INSANE! Membrane UpperLeaflet>loPI=1 LowerLeaflet>loPI=1
49675
    1loPI    C1    1   2.382   6.966  11.620  0.0559 -0.1432  0.0439
    1loPI    C2    2   2.750   7.124  11.631  0.0287 -0.0834  0.1064
    1loPI    C3    3   2.507   7.161  11.946 -0.0201 -0.1495  0.0769
    1loPI   PO4    4   2.340   6.922  11.415 -0.2207 -0.0654  0.1446
    1loPI   GL1    5   2.376   7.125  11.015 -0.0903 -0.0599 -0.0723
    1loPI   GL2    6   2.156   7.263  10.786  0.0935 -0.5345 -0.0274
    1loPI   C1A    7   2.433   6.872  10.597 -0.1628 -0.0504  0.1102
    1loPI   C2A    8   2.434   6.864  10.070 -0.1969  0.1459  0.0647
    1loPI   C3A    9   2.445   6.862   9.754 -0.0343 -0.0187  0.1615
    1loPI   C4A   10   2.414   6.783   9.417  0.4454  0.0718  0.0844
    1loPI   C5A   11   2.596   6.410   9.212 -0.1829  0.0150  0.5180
    1loPI   C6A   12   2.472   6.380   8.779  0.1095 -0.0616  0.1181
    1loPI   C1B   13   2.168   7.196  10.358  0.2251  0.1613  0.1550
    1loPI   C2B   14   2.220   7.335   9.985 -0.1695 -0.1726 -0.1221
    1loPI   C3B   15   2.248   7.245   9.588  0.0293 -0.0008  0.2344
    1loPI   C4B   16   2.135   7.368   9.156 -0.0448  0.1000 -0.0372
    2loPI    C1   17  12.186  11.408  11.603 -0.0233  0.1115  0.0480
    2loPI    C2   18  12.094  11.180  11.918 -0.1414 -0.2094 -0.2125
    2loPI    C3   19  11.883  11.512  11.842  0.0593  0.0190  0.1938
    2loPI   PO4   20  12.154  11.216  11.392  0.0803  0.0232  0.1181
    2loPI   GL1   21  12.166  11.267  10.991  0.3413 -0.1460 -0.0461
    2loPI   GL2   22  12.208  10.979  10.866 -0.1298 -0.0505 -0.0707
    2loPI   C1A   23  12.159  11.434  10.530 -0.0822  0.2106 -0.1727
    2loPI   C2A   24  12.146  11.436  10.104  0.1231 -0.2338 -0.0525
    2loPI   C3A   25  12.140  11.431   9.756 -0.0999  0.0486  0.0575
    2loPI   C4A   26  12.116  11.473   9.274 -0.2456 -0.3931  0.1414
    2loPI   C5A   27  12.113  11.613   8.809  0.4800 -0.0204  0.1713
    2loPI   C6A   28  12.248  11.449   8.414 -0.1884 -0.1574  0.1480
    2loPI   C1B   29  12.333  10.928  10.562  0.1244  0.2357  0.2521
    2loPI   C2B   30  12.407  10.998  10.220 -0.0283 -0.0160  0.2123
    2loPI   C3B   31  12.389  11.030   9.791  0.2503  0.3994 -0.0870
    2loPI   C4B   32  12.398  11.000   9.297 -0.1353  0.0119  0.1579
    3loPI    C1   33   1.639   3.725  11.338  0.0321 -0.2773 -0.1982
    3loPI    C2   34   1.322   3.481  11.330 -0.0367 -0.2214  0.3702
    3loPI    C3   35   1.358   3.752  11.622  0.3505  0.0316  0.0980
    3loPI   PO4   36   1.774   3.660  11.140  0.0501  0.0879 -0.1172
    3loPI   GL1   37   1.553   3.594  10.748  0.3015 -0.3156  0.1103
    3loPI   GL2   38   1.457   3.896  10.812 -0.0411 -0.3611 -0.2623
    3loPI   C1A   39   1.721   3.631  10.322 -0.0040 -0.0311 -0.0207
    3loPI   C2A   40   1.677   3.711   9.897 -0.1628  0.0315 -0.1502
    3loPI   C3A   41   1.624   3.665   9.458  0.0751 -0.2295  0.0397
    3loPI   C4A   42   1.645   3.779   9.022 -0.3083  0.2334 -0.4180
    3loPI   C5A   43   1.913   4.074   8.762  0.7268 -0.1259 -0.0708
    3loPI   C6A   44   1.804   4.441   8.426  0.1627  0.0493  0.2153
    3loPI   C1B   45   1.497   4.142  10.371  0.1234 -0.1524 -0.2725
    3loPI   C2B   46   1.350   4.213   9.939 -0.0480  0.1220 -0.2534
    3loPI   C3B   47   1.332   4.159   9.492  0.0015 -0.0943 -0.0200
    3loPI   C4B   48   1.303   4.176   8.952 -0.0382  0.1641 -0.0242
    4loPI    C1   49  17.219   4.180  11.563  0.0106 -0.3083 -0.0283
    4loPI    C2   50  16.863   4.208  11.743 -0.0190 -0.3438 -0.0811
    4loPI    C3   51  17.199   4.224  11.960 -0.0441 -0.0265 -0.0602
    4loPI   PO4   52  17.221   4.420  11.375  0.2525  0.4058  0.1087
    4loPI   GL1   53  17.356   4.468  10.963 -0.1668  0.0194 -0.0366
    4loPI   GL2   54  17.524   4.599  10.824  0.3098  0.1321  0.3194
    4loPI   C1A   55  17.230   4.276  10.532 -0.2401  0.2225 -0.0913
    4loPI   C2A   56  17.291   4.222  10.058  0.2824 -0.1544 -0.2962
    4loPI   C3A   57  17.341   4.256   9.634  0.2131  0.1022 -0.0305
    4loPI   C4A   58  17.289   4.246   9.198 -0.0149 -0.0139 -0.0608
    4loPI   C5A   59  17.377   4.298   8.698  0.0087 -0.2793  0.1018
    4loPI   C6A   60  17.138   3.996   8.448  0.2616  0.1738  0.0585
    4loPI   C1B   61  17.607   4.731  10.454  0.2035  0.2288 -0.0393
    4loPI   C2B   62  17.571   4.626   9.991  0.0089  0.0160 -0.0415
    4loPI   C3B   63  17.541   4.662   9.510 -0.2189  0.1009  0.2569
    4loPI   C4B   64  17.538   4.663   9.109 -0.0123  0.4116  0.2536
    5loPI    C1   65   2.797  17.338  11.225 -0.1362  0.0113  0.1001
    5loPI    C2   66   2.972  17.117  10.942 -0.3373 -0.1039  0.0634
    5loPI    C3   67   3.130  17.133  11.309 -0.2705 -0.2356  0.0411
    5loPI   PO4   68   2.639  17.324  11.176  0.0008  0.0032 -0.0428
    5loPI   GL1   69   2.458  17.313  10.848  0.1053  0.1775  0.0961
    5loPI   GL2   70   2.610  17.188  10.611 -0.2293 -0.1674  0.0754
    5loPI   C1A   71   2.364  17.573  10.506  0.1511 -0.0483  0.1656
    5loPI   C2A   72   2.348  17.623  10.115  0.1852 -0.2067  0.1160
    5loPI   C3A   73   2.398  17.672   9.624 -0.1044 -0.3307  0.4094
    5loPI   C4A   74   2.515  17.770   9.188  0.2463 -0.0568 -0.0864
    5loPI   C5A   75   2.463  17.663   8.666  0.0363 -0.1654  0.2400
    5loPI   C6A   76   2.444  17.877   8.281 -0.1005  0.2775 -0.2238
    5loPI   C1B   77   2.588  17.238  10.237 -0.2594  0.0590  0.1789
    5loPI   C2B   78   2.697  17.198   9.845 -0.0281  0.3233 -0.0947
    5loPI   C3B   79   2.687  17.259   9.426  0.1853 -0.2698 -0.3465
    5loPI   C4B   80   2.633  17.181   8.967 -0.2409 -0.1027 -0.2212
    6loPI    C1   81  15.008  13.955  11.776 -0.1691  0.0977  0.0965
    6loPI    C2   82  15.201  13.907  12.123  0.1896 -0.0842 -0.1214
    6loPI    C3   83  14.807  13.979  12.121  0.1898 -0.0418  0.3210
    6loPI   PO4   84  15.173  13.830  11.582  0.0073 -0.1341  0.0116
    6loPI   GL1   85  15.320  13.973  11.154 -0.2348 -0.3107 -0.1613
    6loPI   GL2   86  15.654  14.037  11.046  0.1570  0.3442 -0.1641
    6loPI   C1A   87  15.168  14.094  10.710 -0.0484 -0.0291  0.1143
    6loPI   C2A   88  15.320  14.224  10.323 -0.1083  0.2238  0.1160
    6loPI   C3A   89  15.253  14.096   9.923  0.1096 -0.1715 -0.2763
    6loPI   C4A   90  15.302  14.050   9.480 -0.0179 -0.1221  0.2481
    6loPI   C5A   91  15.266  13.935   9.073  0.2463 -0.2855 -0.1041
    6loPI   C6A   92  15.068  13.842   8.622 -0.3311 -0.2334  0.2587
    6loPI   C1B   93  15.683  14.142  10.647  0.1226  0.1459 -0.2052
    6loPI   C2B   94  15.737  14.245  10.125 -0.0388  0.0001  0.0094
    6loPI   C3B   95  15.727  14.218   9.704 -0.0452 -0.2584  0.2447
    6loPI   C4B   96  15.794  14.018   9.329  0.1831  0.5415 -0.2278
    7loPI    C1   97   5.889   2.697  11.430  0.1490 -0.1258  0.0634
    7loPI    C2   98   5.892   2.915  11.765  0.1591  0.1180 -0.0931
    7loPI    C3   99   6.042   2.544  11.766  0.0229  0.0615  0.2076
    7loPI   PO4  100   5.977   2.798  11.265  0.0438  0.2456 -0.1001
    7loPI   GL1  101   5.823   2.991  10.911 -0.1958 -0.1359 -0.2759
    7loPI   GL2  102   5.834   2.750  10.646 -0.1556  0.1037  0.2123
    7loPI   C1A  103   5.701   3.233  10.513  0.0774  0.2107  0.0668
    7loPI   C2A  104   5.530   3.296  10.160 -0.3179 -0.4513  0.4112
    7loPI   C3A  105   5.468   3.257   9.776  0.0883 -0.1857  0.2291
    7loPI   C4A  106   5.532   3.275   9.278  0.0253  0.4060  0.1616
    7loPI   C5A  107   5.530   3.304   8.816 -0.2542 -0.2645  0.1380
    7loPI   C6A  108   5.638   3.373   8.443  0.1837  0.0208 -0.3803
    7loPI   C1B  109   5.851   2.882  10.226  0.0777  0.2317 -0.4301
    7loPI   C2B  110   5.771   2.877   9.840 -0.3799  0.1240  0.1712
    7loPI   C3B  111   5.754   2.863   9.433  0.0689 -0.1153 -0.1177
    7loPI   C4B  112   5.758   2.830   8.941  0.0484  0.3918  0.4569
    8loPI    C1  113  14.739   7.853  11.471  0.2724 -0.2944  0.0549
    8loPI    C2  114  15.031   8.112  11.555 -0.0653  0.0941  0.0640
    8loPI    C3  115  14.886   7.874  11.842 -0.0616  0.2170  0.1685
    8loPI   PO4  116  14.777   7.733  11.288  0.3712 -0.0902  0.1415
    8loPI   GL1  117  14.881   7.800  10.855 -0.1760  0.1735 -0.0232
    8loPI   GL2  118  14.730   7.678  10.606  0.0751  0.1370 -0.0944
    8loPI   C1A  119  14.934   8.148  10.658 -0.1962 -0.1839  0.1590
    8loPI   C2A  120  14.993   8.217  10.203  0.3845 -0.1769 -0.1260
    8loPI   C3A  121  14.988   8.290   9.786  0.0981  0.3305 -0.2022
    8loPI   C4A  122  14.927   8.395   9.312  0.2801 -0.0555 -0.1980
    8loPI   C5A  123  14.935   8.334   8.940 -0.4149 -0.0316  0.0230
    8loPI   C6A  124  15.026   8.539   8.534  0.1408  0.1304  0.1030
    8loPI   C1B  125  14.734   7.771  10.207 -0.1507 -0.0782  0.1164
    8loPI   C2B  126  14.774   7.800   9.820  0.1738 -0.0980 -0.2672
    8loPI   C3B  127  14.726   7.935   9.398  0.3272 -0.3644  0.2123
    8loPI   C4B  128  14.636   7.882   8.857 -0.1570 -0.0270 -0.2599
    9loPI    C1  129  10.265   6.409  11.206 -0.0786 -0.1672 -0.2313
    9loPI    C2  130  10.268   6.788  11.335 -0.1853 -0.2036 -0.1199
    9loPI    C3  131  10.454   6.503  11.545  0.0710 -0.1806 -0.3101
    9loPI   PO4  132  10.313   6.519  10.916 -0.1456 -0.3492  0.0448
    9loPI   GL1  133  10.200   6.532  10.479 -0.1144  0.1117 -0.0881
    9loPI   GL2  134  10.391   6.375  10.441  0.0482 -0.0166  0.4303
    9loPI   C1A  135  10.046   6.451  10.110 -0.1322  0.2542  0.1724
    9loPI   C2A  136   9.947   6.505   9.691 -0.0108 -0.0546  0.0986
    9loPI   C3A  137   9.811   6.482   9.232  0.1834  0.0756  0.0084
    9loPI   C4A  138   9.835   6.534   8.724 -0.0414  0.3764  0.3867
    9loPI   C5A  139   9.971   6.290   8.346 -0.0650  0.1045  0.0212
    9loPI   C6A  140  10.274   6.376   8.036 -0.1628  0.0152 -0.4659
    9loPI   C1B  141  10.557   6.433  10.011 -0.1916  0.1215 -0.2743
    9loPI   C2B  142  10.813   6.470   9.654 -0.2217  0.0260  0.0964
    9loPI   C3B  143  10.928   6.284   9.273  0.1761  0.0135  0.1375
    9loPI   C4B  144  11.283   6.342   8.927 -0.1021  0.4343 -0.3704
   10loPI    C1  145   2.904  17.871  11.297  0.0765  0.1963  0.1540
   10loPI    C2  146   2.925  17.600  11.591 -0.1861  0.0324  0.0260
   10loPI    C3  147   2.585  17.802  11.529 -0.0985  0.1434 -0.0985
   10loPI   PO4  148   2.856  17.801  11.037  0.0221 -0.0081 -0.1728
   10loPI   GL1  149   2.879  17.618  10.595  0.0400 -0.0135  0.2640
   10loPI   GL2  150   3.131  17.488  10.621 -0.0925  0.0316  0.1177
   10loPI   C1A  151   2.949  17.583  10.169  0.0630  0.1098 -0.0963
   10loPI   C2A  152   2.957  17.631   9.726  0.0965  0.1518  0.1685
   10loPI   C3A  153   3.028  17.760   9.344  0.1086 -0.1074 -0.2699
   10loPI   C4A  154   2.984  17.792   8.889  0.2951 -0.0525 -0.0835
   10loPI   C5A  155   2.973  17.451   8.574  0.3421  0.0039 -0.3254
   10loPI   C6A  156   3.174  17.119   8.565 -0.0575 -0.2276 -0.0260
   10loPI   C1B  157   3.195  17.160  10.240 -0.1160  0.1383  0.0292
   10loPI   C2B  158   3.207  17.169   9.857  0.0915 -0.3464  0.1031
   10loPI   C3B  159   3.244  17.237   9.486 -0.0614 -0.2199 -0.0244
   10loPI   C4B  160   3.134  17.256   9.079 -0.0997 -0.1932 -0.0041
   11loPI    C1  161  12.346  14.689  11.142  0.0566 -0.2891  0.1835
   11loPI    C2  162  12.103  14.822  11.431 -0.1024 -0.0073 -0.0740
   11loPI    C3  163  12.476  14.708  11.520 -0.1438  0.0924  0.2382
   11loPI   PO4  164  12.187  14.719  10.956 -0.1061 -0.1883 -0.1312
   11loPI   GL1  165  12.037  14.694  10.596  0.2249 -0.0670 -0.2494
   11loPI   GL2  166  11.628  14.685  10.581 -0.1177  0.1122 -0.0086
   11loPI   C1A  167  11.966  14.557  10.132  0.1654 -0.0708 -0.1422
   11loPI   C2A  168  12.022  14.516   9.665 -0.0241  0.0752 -0.0469
   11loPI   C3A  169  11.961  14.521   9.214 -0.2761 -0.2063  0.3098
   11loPI   C4A  170  12.057  14.526   8.788  0.0081 -0.0347  0.0299
   11loPI   C5A  171  11.844  14.487   8.367 -0.0769  0.2101  0.3493
   11loPI   C6A  172  11.987  14.203   8.104  0.0058  0.0171 -0.3163
   11loPI   C1B  173  11.445  14.587  10.153 -0.2890 -0.0197  0.0566
   11loPI   C2B  174  11.389  14.590   9.664  0.0773 -0.0687 -0.1959
   11loPI   C3B  175  11.488  14.561   9.234 -0.1133  0.0136 -0.4274
   11loPI   C4B  176  11.346  14.483   8.788 -0.0576  0.2595 -0.2119
   12loPI    C1  177  10.232   7.278  11.228 -0.1758  0.0446  0.0329
   12loPI    C2  178   9.934   7.503  11.371 -0.3877 -0.3411  0.2103
   12loPI    C3  179  10.191   7.326  11.623  0.0415  0.0453  0.0571
   12loPI   PO4  180  10.342   7.376  10.968  0.3793 -0.4035 -0.0662
   12loPI   GL1  181  10.196   7.530  10.620 -0.2754  0.0016 -0.0513
   12loPI   GL2  182  10.025   7.332  10.580 -0.0566 -0.1743 -0.1327
   12loPI   C1A  183  10.207   7.759  10.318  0.1320 -0.0732 -0.2124
   12loPI   C2A  184  10.074   7.794   9.847 -0.2163 -0.2143  0.2757
   12loPI   C3A  185  10.199   7.851   9.479 -0.0531 -0.2300  0.0191
   12loPI   C4A  186  10.098   7.891   9.032 -0.1504  0.2265 -0.0980
   12loPI   C5A  187   9.975   7.950   8.693  0.4657  0.0429  0.5908
   12loPI   C6A  188   9.819   8.324   8.451  0.0170  0.2741 -0.2334
   12loPI   C1B  189   9.966   7.371  10.125 -0.0741 -0.2630 -0.0380
   12loPI   C2B  190   9.983   7.277   9.701  0.2187 -0.2529  0.1097
   12loPI   C3B  191   9.880   7.387   9.283  0.2918  0.2886  0.1885
   12loPI   C4B  192   9.808   7.446   8.806 -0.2728  0.2983  0.0002
   13loPI    C1  193  13.106  13.644  11.811  0.0349  0.0423 -0.1942
   13loPI    C2  194  13.465  13.676  11.986 -0.1226 -0.0030  0.1463
   13loPI    C3  195  13.135  13.640  12.210 -0.3183 -0.2093 -0.1657
   13loPI   PO4  196  13.143  13.829  11.572  0.0890 -0.1946  0.0811
   13loPI   GL1  197  13.020  13.762  11.104  0.0889 -0.1926 -0.2284
   13loPI   GL2  198  13.395  13.757  11.017 -0.0044 -0.0846  0.0953
   13loPI   C1A  199  13.091  14.084  10.678 -0.0417  0.0120 -0.1760
   13loPI   C2A  200  13.194  14.209  10.244  0.0085 -0.0046  0.0801
   13loPI   C3A  201  13.176  14.150   9.865 -0.0257 -0.1277 -0.0268
   13loPI   C4A  202  13.267  14.075   9.448 -0.0231 -0.1480 -0.2443
   13loPI   C5A  203  13.244  14.065   9.027 -0.0638 -0.1753 -0.5094
   13loPI   C6A  204  13.176  14.099   8.593 -0.3370  0.2913 -0.2470
   13loPI   C1B  205  13.426  13.766  10.514  0.0220 -0.0771 -0.0502
   13loPI   C2B  206  13.441  13.760  10.038  0.1249 -0.0048  0.0294
   13loPI   C3B  207  13.517  13.682   9.654 -0.3809  0.4010  0.2998
   13loPI   C4B  208  13.481  13.657   9.190  0.0590  0.0354 -0.3437
   14loPI    C1  209   4.212   1.196  11.405  0.0732  0.0566  0.1272
   14loPI    C2  210   4.018   1.417  11.676 -0.0152  0.0610  0.0604
   14loPI    C3  211   4.309   1.170  11.792 -0.0335  0.0843  0.1562
   14loPI   PO4  212   4.061   1.111  11.246  0.2276 -0.1022  0.0834
   14loPI   GL1  213   3.878   1.014  10.733  0.0370 -0.3637 -0.0859
   14loPI   GL2  214   4.182   0.976  10.688 -0.4103 -0.0661 -0.0013
   14loPI   C1A  215   3.659   0.902  10.353 -0.0751  0.0026 -0.0929
   14loPI   C2A  216   3.784   1.026   9.901 -0.0198 -0.1407  0.2490
   14loPI   C3A  217   3.763   1.013   9.397 -0.1306 -0.1039  0.1695
   14loPI   C4A  218   3.738   1.073   8.933  0.0652 -0.0962  0.0978
   14loPI   C5A  219   4.016   1.091   8.575 -0.1834  0.1425 -0.1282
   14loPI   C6A  220   4.216   0.906   8.257  0.4684 -0.2758  0.0608
   14loPI   C1B  221   4.164   0.931  10.242 -0.1129 -0.0762 -0.2684
   14loPI   C2B  222   4.305   1.016   9.827 -0.0567 -0.1081 -0.0715
   14loPI   C3B  223   4.315   0.930   9.434  0.3698  0.5877 -0.2882
   14loPI   C4B  224   4.210   1.027   9.104 -0.0984 -0.0760  0.1560
   15loPI    C1  225  12.310   2.924  10.864 -0.1731  0.0385 -0.0187
   15loPI    C2  226  12.000   2.671  10.878 -0.2568  0.1441  0.0571
   15loPI    C3  227  12.020   2.977  11.135 -0.0796  0.1270  0.0650
   15loPI   PO4  228  12.378   2.960  10.631  0.2391  0.0786 -0.0345
   15loPI   GL1  229  12.265   3.289  10.297  0.2468  0.4005 -0.2293
   15loPI   GL2  230  12.606   3.409  10.214 -0.2460  0.5067 -0.1080
   15loPI   C1A  231  12.089   3.272   9.895 -0.0702  0.1710 -0.1582
   15loPI   C2A  232  12.201   3.268   9.474 -0.1651 -0.2859 -0.5661
   15loPI   C3A  233  11.923   3.246   9.185 -0.0269 -0.4301 -0.0840
   15loPI   C4A  234  11.616   3.422   8.932  0.1375 -0.1491 -0.0938
   15loPI   C5A  235  11.459   3.833   8.896  0.1129 -0.0776 -0.2020
   15loPI   C6A  236  11.350   4.298   8.903 -0.1574  0.2912 -0.2126
   15loPI   C1B  237  12.920   3.103  10.086  0.1548 -0.6004  0.1479
   15loPI   C2B  238  12.969   2.931   9.689 -0.0033 -0.1218 -0.0133
   15loPI   C3B  239  13.275   2.904   9.391  0.2140 -0.0979 -0.0951
   15loPI   C4B  240  13.393   2.967   8.930 -0.1507  0.0637  0.2202
   16loPI    C1  241   9.271   2.417  10.734 -0.0965 -0.0407  0.0456
   16loPI    C2  242   9.128   2.659  11.019  0.1987  0.0211  0.1445
   16loPI    C3  243   9.517   2.667  10.926  0.1888 -0.3250  0.0581
   16loPI   PO4  244   9.043   2.486  10.486  0.0459 -0.5668 -0.1836
   16loPI   GL1  245   8.950   2.240  10.075 -0.0387 -0.1246  0.2237
   16loPI   GL2  246   9.245   1.988   9.981 -0.0076  0.1162  0.0459
   16loPI   C1A  247   8.474   2.236  10.113  0.2717  0.2494  0.1781
   16loPI   C2A  248   8.314   1.957   9.778 -0.0476 -0.1082  0.0960
   16loPI   C3A  249   8.239   2.011   9.332 -0.2780 -0.0023  0.2656
   16loPI   C4A  250   8.566   2.253   9.051  0.1179  0.0584  0.1632
   16loPI   C5A  251   8.887   2.474   9.258  0.3067  0.0286 -0.0152
   16loPI   C6A  252   8.996   2.825   9.342 -0.1904 -0.0293 -0.2065
   16loPI   C1B  253   9.260   2.195   9.579 -0.2825  0.2085 -0.0391
   16loPI   C2B  254   9.383   2.533   9.287  0.3047 -0.3596 -0.0630
   16loPI   C3B  255   9.406   2.849   9.037 -0.0494 -0.3492 -0.3902
   16loPI   C4B  256   9.228   3.085   8.632  0.2635  0.0473 -0.1865
   17loPI    C1  257  17.576   0.425  11.768  0.0804 -0.3478  0.1515
   17loPI    C2  258  17.491   0.807  11.851  0.0815 -0.1910 -0.5114
   17loPI    C3  259  17.293   0.512  12.036  0.0655  0.1237 -0.0093
   17loPI   PO4  260  17.551   0.465  11.489  0.2255  0.1584 -0.0867
   17loPI   GL1  261  17.792   0.418  11.084 -0.1746 -0.0272 -0.2729
   17loPI   GL2  262  17.980   0.527  10.781  0.0146 -0.1477  0.0586
   17loPI   C1A  263  17.603   0.231  10.751 -0.3507  0.0454 -0.2969
   17loPI   C2A  264  17.477   0.060  10.319  0.0021  0.1236  0.2170
   17loPI   C3A  265  17.617   0.125   9.793  0.0621  0.1558  0.0387
   17loPI   C4A  266  17.622   0.147   9.345  0.1254 -0.0147 -0.1316
   17loPI   C5A  267  17.564   0.117   8.883 -0.0450  0.2880  0.0485
   17loPI   C6A  268  17.635  -0.131   8.501  0.0179  0.0286 -0.3037
   17loPI   C1B  269  17.728   0.483  10.356  0.0079 -0.0163  0.2971
   17loPI   C2B  270  17.823   0.611   9.840  0.0306  0.2156  0.1003
   17loPI   C3B  271  17.856   0.562   9.340 -0.3961  0.0427 -0.1537
   17loPI   C4B  272  17.816   0.621   8.923  0.1362  0.1434 -0.2590
   18loPI    C1  273   6.877  18.055  11.274  0.1218 -0.0730  0.1117
   18loPI    C2  274   6.504  18.018  11.415  0.1193  0.0008  0.1246
   18loPI    C3  275   6.790  17.765  11.535  0.0203 -0.2050 -0.0658
   18loPI   PO4  276   6.826  18.149  11.050  0.3074 -0.2881 -0.0837
   18loPI   GL1  277   6.704  18.040  10.648 -0.1214 -0.0092  0.3846
   18loPI   GL2  278   6.874  18.094  10.429  0.1470 -0.2281 -0.0770
   18loPI   C1A  279   6.417  18.103  10.326 -0.0028  0.1037  0.0471
   18loPI   C2A  280   6.354  18.145   9.890  0.1484 -0.0200 -0.1759
   18loPI   C3A  281   6.329  18.174   9.480 -0.2530  0.0156 -0.0612
   18loPI   C4A  282   6.275  18.190   9.053 -0.2101 -0.1214  0.0246
   18loPI   C5A  283   6.275  18.194   8.642  0.0641 -0.0052 -0.2558
   18loPI   C6A  284   6.113  18.070   8.294  0.0426  0.0048  0.3220
   18loPI   C1B  285   6.860  18.174   9.959 -0.0200 -0.3062  0.0053
   18loPI   C2B  286   6.827  18.160   9.514 -0.0155 -0.3940 -0.1388
   18loPI   C3B  287   6.813  18.161   9.058  0.0934 -0.0749  0.2031
   18loPI   C4B  288   6.797  18.305   8.572 -0.3964  0.0361  0.1093
   19loPI    C1  289   6.084   2.246  11.293  0.0622  0.0967 -0.0121
   19loPI    C2  290   6.173   1.857  11.321  0.2071  0.1134 -0.2198
   19loPI    C3  291   6.251   2.102  11.627  0.5000  0.0521 -0.2427
   19loPI   PO4  292   5.873   2.238  11.169  0.1136 -0.0195  0.2182
   19loPI   GL1  293   5.689   2.250  10.774 -0.0555  0.3654  0.2735
   19loPI   GL2  294   5.757   1.885  10.778 -0.0788 -0.1166  0.1792
   19loPI   C1A  295   5.529   2.341  10.429 -0.1223 -0.0295 -0.4094
   19loPI   C2A  296   5.467   2.385  10.027 -0.1865  0.0390  0.2550
   19loPI   C3A  297   5.523   2.407   9.612  0.1202  0.0394  0.0819
   19loPI   C4A  298   5.443   2.376   9.227  0.1312 -0.2164  0.2571
   19loPI   C5A  299   5.432   2.337   8.879 -0.0673  0.1495  0.0169
   19loPI   C6A  300   5.372   2.382   8.493  0.0691 -0.0475 -0.0780
   19loPI   C1B  301   5.737   1.841  10.342 -0.3851  0.0788  0.1400
   19loPI   C2B  302   5.773   1.966   9.868 -0.0997 -0.0827  0.2819
   19loPI   C3B  303   5.685   1.949   9.419  0.1086 -0.0278  0.2219
   19loPI   C4B  304   5.761   1.993   8.974  0.2024  0.1339  0.0762
   20loPI    C1  305   9.001   4.524  10.816 -0.0181  0.1157  0.1608
   20loPI    C2  306   9.154   4.818  11.040  0.0117  0.0277  0.2568
   20loPI    C3  307   9.152   4.443  11.177 -0.0333 -0.0160  0.1378
   20loPI   PO4  308   8.941   4.608  10.624 -0.1755  0.0764  0.1319
   20loPI   GL1  309   8.942   4.610  10.210 -0.2040  0.1669  0.2706
   20loPI   GL2  310   9.004   4.930  10.245  0.0659 -0.1383 -0.1346
   20loPI   C1A  311   8.803   4.647   9.763 -0.0956  0.2706 -0.2805
   20loPI   C2A  312   8.839   4.617   9.301  0.0443 -0.2843  0.0347
   20loPI   C3A  313   8.960   4.570   8.876  0.1055 -0.0674  0.1056
   20loPI   C4A  314   9.296   4.624   8.573 -0.1572 -0.1470 -0.1472
   20loPI   C5A  315   9.482   5.019   8.297 -0.3812  0.1130 -0.0144
   20loPI   C6A  316   9.857   5.133   8.088 -0.1195  0.1155 -0.2291
   20loPI   C1B  317   9.111   5.060   9.865 -0.1013 -0.0253 -0.4077
   20loPI   C2B  318   9.128   5.149   9.424  0.1002  0.0450  0.0214
   20loPI   C3B  319   9.164   5.101   8.955  0.2620  0.0578  0.2369
   20loPI   C4B  320   9.346   5.436   8.742  0.0355 -0.1806 -0.0187
   21loPI    C1  321   2.322   6.030  11.815  0.3589 -0.0376  0.0162
   21loPI    C2  322   2.172   6.115  12.176  0.3095  0.1472 -0.0465
   21loPI    C3  323   2.401   5.791  12.126 -0.0849 -0.1553  0.0460
   21loPI   PO4  324   2.191   6.088  11.619  0.3799 -0.0477 -0.1202
   21loPI   GL1  325   2.320   6.157  11.249 -0.0470  0.2455 -0.0000
   21loPI   GL2  326   2.361   6.480  11.181  0.0697  0.1228  0.1249
   21loPI   C1A  327   2.442   5.920  10.778 -0.0652  0.0380 -0.2361
   21loPI   C2A  328   2.494   6.004  10.394  0.3146  0.3466 -0.0507
   21loPI   C3A  329   2.456   5.878   9.983  0.1290 -0.0183  0.1100
   21loPI   C4A  330   2.377   5.888   9.579  0.1986  0.4259 -0.1097
   21loPI   C5A  331   2.395   6.002   9.119  0.0906  0.1384  0.0165
   21loPI   C6A  332   2.216   6.015   8.665 -0.1575 -0.0833  0.1194
   21loPI   C1B  333   2.558   6.371  10.785 -0.0949  0.0100  0.1347
   21loPI   C2B  334   2.735   6.474  10.438  0.0491 -0.2030  0.0219
   21loPI   C3B  335   2.777   6.342  10.022  0.3264  0.0835 -0.0195
   21loPI   C4B  336   2.650   6.383   9.692 -0.2254  0.0812  0.0643
   22loPI    C1  337   7.301  10.338  11.376 -0.0511 -0.0103  0.0127
   22loPI    C2  338   7.202   9.952  11.405  0.0335 -0.0352 -0.0279
   22loPI    C3  339   7.427  10.122  11.688  0.1822 -0.0726 -0.1225
   22loPI   PO4  340   7.505  10.403  11.150  0.1758  0.3839 -0.0665
   22loPI   GL1  341   7.426  10.538  10.774 -0.1343 -0.0208  0.0224
   22loPI   GL2  342   7.181  10.567  10.634  0.2981  0.0477 -0.0349
   22loPI   C1A  343   7.607  10.462  10.372  0.1374  0.1121 -0.0844
   22loPI   C2A  344   7.538  10.377   9.946  0.0690  0.1489  0.1672
   22loPI   C3A  345   7.532  10.535   9.477  0.1591 -0.0887  0.2473
   22loPI   C4A  346   7.548  10.564   9.010  0.2992 -0.0857 -0.0047
   22loPI   C5A  347   7.714  10.698   8.652 -0.1432 -0.2456  0.0778
   22loPI   C6A  348   7.455  10.879   8.398 -0.0010 -0.0806 -0.0338
   22loPI   C1B  349   7.059  10.400  10.250 -0.2177 -0.1110  0.1908
   22loPI   C2B  350   7.032  10.538   9.841  0.1893 -0.1629  0.0722
   22loPI   C3B  351   7.015  10.556   9.515  0.1676 -0.1377  0.0681
   22loPI   C4B  352   7.015  10.397   9.166  0.0903  0.3172  0.0645
   23loPI    C1  353  17.927  16.191  11.442 -0.0014 -0.0481 -0.2460
   23loPI    C2  354  18.151  16.329  11.744 -0.0574  0.0159 -0.2335
   23loPI    C3  355  17.874  16.049  11.812 -0.0119 -0.0309 -0.2409
   23loPI   PO4  356  18.024  16.170  11.262 -0.1657 -0.1045  0.0029
   23loPI   GL1  357  17.743  16.191  10.901  0.1887  0.0314 -0.2927
   23loPI   GL2  358  17.570  16.285  10.784  0.0279  0.0572 -0.3685
   23loPI   C1A  359  17.815  15.959  10.527  0.1230  0.1191 -0.3102
   23loPI   C2A  360  17.808  15.823  10.061  0.1439 -0.0698 -0.1597
   23loPI   C3A  361  17.843  15.971   9.654  0.0993 -0.0284  0.2084
   23loPI   C4A  362  17.829  15.815   9.199  0.0886  0.0981  0.2534
   23loPI   C5A  363  17.808  15.799   8.770 -0.2122 -0.2861 -0.0654
   23loPI   C6A  364  17.707  15.603   8.391  0.0053  0.1121 -0.1540
   23loPI   C1B  365  17.484  16.286  10.392 -0.1023  0.1899  0.2482
   23loPI   C2B  366  17.576  16.271   9.926 -0.2425 -0.1027 -0.0138
   23loPI   C3B  367  17.639  16.405   9.618  0.1813  0.0381  0.1451
   23loPI   C4B  368  17.742  16.312   9.242  0.0136  0.1800  0.1244
   24loPI    C1  369  13.650  14.728  11.573 -0.0117  0.0587 -0.1243
   24loPI    C2  370  13.382  14.715  11.869 -0.1175 -0.1501 -0.2270
   24loPI    C3  371  13.693  14.965  11.892  0.0665 -0.4083  0.2225
   24loPI   PO4  372  13.572  14.702  11.375  0.2376  0.2465  0.2534
   24loPI   GL1  373  13.581  14.488  11.046 -0.0484  0.1302  0.3890
   24loPI   GL2  374  13.374  14.667  10.921 -0.1015 -0.1994 -0.0852
   24loPI   C1A  375  13.883  14.692  10.822  0.1307 -0.0435  0.3339
   24loPI   C2A  376  14.011  14.596  10.373 -0.0360 -0.2064 -0.1665
   24loPI   C3A  377  13.972  14.566   9.948  0.0557 -0.1677 -0.1533
   24loPI   C4A  378  14.013  14.614   9.507 -0.0704 -0.2617 -0.0584
   24loPI   C5A  379  14.085  14.437   9.073  0.1335  0.4931 -0.2143
   24loPI   C6A  380  14.320  14.524   8.744 -0.2027 -0.2981 -0.1796
   24loPI   C1B  381  13.486  14.567  10.465  0.0601 -0.0042 -0.1916
   24loPI   C2B  382  13.451  14.667   9.968 -0.1273 -0.0416 -0.0398
   24loPI   C3B  383  13.505  14.530   9.644 -0.1875  0.1820 -0.0268
   24loPI   C4B  384  13.618  14.520   9.243  0.0924 -0.0600  0.1884
   25loPI    C1  385   1.597   4.196  11.779 -0.0533 -0.0556 -0.1242
   25loPI    C2  386   1.415   4.542  11.864  0.0501 -0.0853  0.2317
   25loPI    C3  387   1.741   4.432  12.067  0.1375 -0.2977 -0.0181
   25loPI   PO4  388   1.720   4.190  11.469  0.1015  0.1829 -0.2261
   25loPI   GL1  389   1.699   4.342  10.989  0.0315  0.0515  0.1642
   25loPI   GL2  390   1.934   4.184  10.999 -0.0120 -0.0064  0.1171
   25loPI   C1A  391   1.669   4.560  10.527  0.0355 -0.2404  0.4010
   25loPI   C2A  392   1.613   4.651  10.080 -0.2193  0.1197 -0.2059
   25loPI   C3A  393   1.644   4.550   9.703 -0.5222 -0.1674 -0.1208
   25loPI   C4A  394   1.658   4.580   9.255 -0.2609 -0.4489 -0.0025
   25loPI   C5A  395   1.466   4.610   8.935 -0.0231  0.1935  0.1800
   25loPI   C6A  396   1.139   4.674   8.665  0.1599 -0.1142  0.2404
   25loPI   C1B  397   2.019   4.165  10.517 -0.0502  0.0656 -0.0825
   25loPI   C2B  398   1.920   4.178  10.083 -0.2752 -0.1748 -0.0077
   25loPI   C3B  399   1.853   4.122   9.666 -0.4090  0.3993 -0.0686
   25loPI   C4B  400   1.912   4.151   9.253 -0.2451  0.4288 -0.2237
   26loPI    C1  401  11.900   0.911  11.087  0.0590  0.1482 -0.0516
   26loPI    C2  402  11.819   0.873  11.477 -0.1270 -0.0279 -0.1055
   26loPI    C3  403  11.730   0.576  11.224 -0.0364  0.0979 -0.2876
   26loPI   PO4  404  11.901   1.120  10.998  0.2847  0.2182  0.0373
   26loPI   GL1  405  12.073   1.236  10.603 -0.2885  0.2618 -0.1629
   26loPI   GL2  406  12.120   0.965  10.565 -0.0432 -0.0248 -0.0554
   26loPI   C1A  407  12.237   1.381  10.164 -0.1069  0.0065  0.2655
   26loPI   C2A  408  12.092   1.468   9.683 -0.1298 -0.1647 -0.1364
   26loPI   C3A  409  12.194   1.660   9.262  0.0438  0.1922 -0.1446
   26loPI   C4A  410  12.099   1.966   8.968  0.0296 -0.1058  0.1364
   26loPI   C5A  411  12.215   1.954   8.562 -0.3661 -0.3429 -0.1339
   26loPI   C6A  412  12.500   1.947   8.228  0.0218  0.1335 -0.0822
   26loPI   C1B  413  12.405   0.898  10.304 -0.2250  0.0895 -0.1200
   26loPI   C2B  414  12.479   1.068   9.854  0.0740 -0.2876  0.1772
   26loPI   C3B  415  12.352   1.060   9.431 -0.1832  0.1477  0.1953
   26loPI   C4B  416  12.330   1.250   9.107 -0.0354 -0.0400  0.1324
   27loPI    C1  417   5.705  14.565  11.556  0.2733 -0.0711 -0.1683
   27loPI    C2  418   5.740  14.695  11.933  0.0914 -0.0348 -0.1634
   27loPI    C3  419   5.781  14.305  11.851  0.0061 -0.0604 -0.0875
   27loPI   PO4  420   5.786  14.854  11.448  0.0635  0.1216  0.1756
   27loPI   GL1  421   5.974  14.888  11.034  0.0035  0.1478 -0.2492
   27loPI   GL2  422   6.000  15.143  10.920 -0.1428  0.0988  0.0715
   27loPI   C1A  423   6.009  14.861  10.486 -0.1126 -0.2644  0.1154
   27loPI   C2A  424   6.009  15.004  10.075 -0.1080 -0.3144 -0.1719
   27loPI   C3A  425   6.080  15.055   9.661 -0.0273 -0.0772  0.3514
   27loPI   C4A  426   6.166  15.066   9.260 -0.0431  0.0644 -0.1621
   27loPI   C5A  427   6.212  15.148   8.865 -0.1402  0.3730 -0.1334
   27loPI   C6A  428   6.194  14.996   8.465  0.0096  0.1543 -0.1125
   27loPI   C1B  429   5.830  15.332  10.448 -0.0458 -0.3261  0.1490
   27loPI   C2B  430   5.855  15.459  10.016 -0.2489  0.0966  0.2156
   27loPI   C3B  431   5.833  15.539   9.567  0.2910 -0.0834  0.0497
   27loPI   C4B  432   5.844  15.435   9.138  0.0326  0.1360 -0.0422
   28loPI    C1  433   9.994  16.616  11.215 -0.0593 -0.0520 -0.0052
   28loPI    C2  434  10.174  16.913  11.413 -0.1430  0.2862 -0.4229
   28loPI    C3  435   9.798  16.809  11.505 -0.0629  0.2074 -0.1773
   28loPI   PO4  436   9.974  16.614  11.008 -0.0277 -0.2766  0.0181
   28loPI   GL1  437   9.918  16.422  10.718 -0.0941 -0.2873 -0.1168
   28loPI   GL2  438  10.003  16.266  10.498 -0.1864 -0.0243 -0.1275
   28loPI   C1A  439   9.646  16.679  10.417 -0.1938  0.1467  0.1442
   28loPI   C2A  440   9.592  16.828  10.018  0.1218  0.2011 -0.2473
   28loPI   C3A  441   9.671  16.806   9.531  0.2032  0.0018  0.1673
   28loPI   C4A  442   9.693  16.874   9.098  0.1656 -0.5078  0.2744
   28loPI   C5A  443   9.561  16.945   8.629 -0.0311  0.1080 -0.1062
   28loPI   C6A  444   9.671  17.101   8.281 -0.0417  0.0619 -0.1231
   28loPI   C1B  445   9.836  16.309  10.164 -0.1357 -0.1923  0.0740
   28loPI   C2B  446   9.888  16.363   9.744  0.3080 -0.0176  0.0295
   28loPI   C3B  447   9.932  16.452   9.328  0.1038  0.0234  0.1979
   28loPI   C4B  448   9.981  16.389   8.851  0.3232 -0.0784  0.0027
   29loPI    C1  449  10.296  10.074  11.471  0.1025 -0.3204 -0.0703
   29loPI    C2  450  10.102   9.885  11.765 -0.1736  0.1271  0.0456
   29loPI    C3  451  10.405  10.131  11.851  0.0539 -0.1015 -0.0875
   29loPI   PO4  452  10.165   9.958  11.140 -0.2630 -0.1629  0.2237
   29loPI   GL1  453  10.298   9.863  10.773 -0.0496  0.0348 -0.1662
   29loPI   GL2  454  10.112   9.618  10.662  0.2916 -0.1179  0.3796
   29loPI   C1A  455  10.413  10.082  10.420  0.0294 -0.0690 -0.1474
   29loPI   C2A  456  10.339  10.063   9.987 -0.1818 -0.0771  0.1319
   29loPI   C3A  457  10.404   9.979   9.624  0.3258  0.0784 -0.0295
   29loPI   C4A  458  10.318  10.051   9.215 -0.2001 -0.0184 -0.1150
   29loPI   C5A  459  10.334  10.159   8.835 -0.3893  0.1031  0.0923
   29loPI   C6A  460  10.366  10.503   8.479  0.0572  0.1315  0.2935
   29loPI   C1B  461  10.123   9.623  10.224  0.0480 -0.4142 -0.0914
   29loPI   C2B  462  10.079   9.634   9.787 -0.1215  0.2099  0.1128
   29loPI   C3B  463  10.079   9.617   9.377  0.2578  0.1481 -0.3434
   29loPI   C4B  464  10.113   9.665   8.899  0.0466 -0.1935  0.1272
   30loPI    C1  465  12.818   9.461  11.399  0.0585 -0.0039  0.1386
   30loPI    C2  466  12.497   9.345  11.608  0.0193 -0.2741 -0.0659
   30loPI    C3  467  12.860   9.333  11.776 -0.0738  0.0332  0.1666
   30loPI   PO4  468  12.829   9.493  11.093  0.0850 -0.0971 -0.2832
   30loPI   GL1  469  13.072   9.684  10.728  0.3128 -0.0912  0.2876
   30loPI   GL2  470  13.308  10.030  10.810 -0.0266  0.3949  0.0732
   30loPI   C1A  471  13.166   9.666  10.286  0.0568 -0.0948 -0.3234
   30loPI   C2A  472  13.165   9.680   9.885  0.1313  0.1503  0.2481
   30loPI   C3A  473  13.180   9.671   9.572 -0.1959  0.2202 -0.0851
   30loPI   C4A  474  13.144   9.682   9.167  0.3258 -0.0261  0.1723
   30loPI   C5A  475  13.376   9.651   8.769 -0.0654  0.2137 -0.0288
   30loPI   C6A  476  13.700   9.828   8.514 -0.1217 -0.1528  0.0356
   30loPI   C1B  477  13.454  10.115  10.354  0.0312  0.2085 -0.1241
   30loPI   C2B  478  13.531  10.123   9.862  0.0387  0.0319  0.0790
   30loPI   C3B  479  13.373  10.135   9.531  0.3850 -0.0557 -0.0805
   30loPI   C4B  480  13.371  10.105   9.025  0.0285  0.1907 -0.1674
   31loPI    C1  481  13.391  17.859  11.470 -0.2834 -0.1675  0.0520
   31loPI    C2  482  13.767  17.751  11.554 -0.1914 -0.1951 -0.3721
   31loPI    C3  483  13.470  17.653  11.803  0.0879 -0.1138  0.0016
   31loPI   PO4  484  13.337  17.859  11.165  0.2273 -0.2565  0.3105
   31loPI   GL1  485  13.496  17.732  10.692  0.1082 -0.0702  0.0638
   31loPI   GL2  486  13.104  17.850  10.683  0.0852  0.0818 -0.0939
   31loPI   C1A  487  13.692  17.795  10.326  0.1434 -0.0908 -0.1226
   31loPI   C2A  488  13.701  17.752   9.952 -0.0696 -0.0110 -0.0979
   31loPI   C3A  489  13.708  17.768   9.496 -0.0959  0.1269  0.0559
   31loPI   C4A  490  13.712  17.685   9.055  0.2131 -0.1620 -0.2430
   31loPI   C5A  491  13.605  17.767   8.647  0.2233 -0.0630 -0.5348
   31loPI   C6A  492  13.147  17.837   8.486 -0.3485 -0.1065 -0.0973
   31loPI   C1B  493  13.124  17.756  10.258 -0.1585 -0.2530 -0.3291
   31loPI   C2B  494  13.230  17.773   9.877 -0.3208  0.2554  0.0042
   31loPI   C3B  495  13.157  17.735   9.429 -0.4086  0.0622  0.1479
   31loPI   C4B  496  13.201  17.730   8.969 -0.0535 -0.2169  0.0152
   32loPI    C1  497   3.354   9.419  11.635  0.1595 -0.2053 -0.2827
   32loPI    C2  498   3.556   9.116  11.801 -0.0219 -0.1560  0.0374
   32loPI    C3  499   3.323   9.348  12.028  0.0730  0.1935 -0.2136
   32loPI   PO4  500   3.438   9.250  11.340 -0.5475  0.2053 -0.1844
   32loPI   GL1  501   3.257   9.061  10.941 -0.3416 -0.0418  0.4696
   32loPI   GL2  502   3.096   9.356  10.940  0.0777  0.0661  0.2235
   32loPI   C1A  503   3.134   9.115  10.481 -0.2740 -0.0100  0.2323
   32loPI   C2A  504   3.112   9.124  10.066 -0.2415  0.2104 -0.2118
   32loPI   C3A  505   3.186   9.184   9.675  0.0092  0.0639 -0.0160
   32loPI   C4A  506   3.217   9.181   9.280  0.0535  0.0180  0.2099
   32loPI   C5A  507   3.189   8.951   8.945  0.1304 -0.1485  0.1502
   32loPI   C6A  508   3.326   8.592   8.852  0.0842  0.2790  0.2855
   32loPI   C1B  509   3.445   9.427  10.593 -0.4191 -0.0272  0.2103
   32loPI   C2B  510   3.433   9.556  10.234  0.1121  0.0335  0.0426
   32loPI   C3B  511   3.460   9.697   9.741  0.1351  0.2428 -0.1975
   32loPI   C4B  512   3.411   9.603   9.333 -0.2551 -0.1442  0.0812
   33loPI    C1  513   3.187  14.866  11.626  0.0609 -0.0641  0.1879
   33loPI    C2  514   2.839  14.695  11.721  0.0224 -0.0602  0.0555
   33loPI    C3  515   2.983  14.993  11.945 -0.1296  0.0345  0.0291
   33loPI   PO4  516   3.219  14.900  11.344 -0.0902  0.1653 -0.0375
   33loPI   GL1  517   3.139  14.972  10.985 -0.0434 -0.2268  0.0242
   33loPI   GL2  518   3.410  15.075  10.747 -0.0109  0.1608  0.1199
   33loPI   C1A  519   2.983  15.057  10.560  0.1144  0.0011  0.1992
   33loPI   C2A  520   2.837  14.931  10.042 -0.0328  0.1037 -0.3040
   33loPI   C3A  521   2.912  14.981   9.636  0.0144 -0.0323  0.3481
   33loPI   C4A  522   2.958  15.056   9.148  0.1825 -0.1443  0.1576
   33loPI   C5A  523   2.779  15.118   8.740 -0.0965  0.2241  0.1213
   33loPI   C6A  524   2.449  15.197   8.364 -0.1182  0.3675 -0.2117
   33loPI   C1B  525   3.450  14.966  10.239  0.1678  0.0847  0.1076
   33loPI   C2B  526   3.521  15.066   9.815 -0.1930  0.0105 -0.2548
   33loPI   C3B  527   3.552  14.988   9.374 -0.1964  0.0059  0.0326
   33loPI   C4B  528   3.432  15.015   8.928 -0.2574  0.0041  0.0978
   34loPI    C1  529   3.715   1.529  11.335  0.2002 -0.1341  0.0069
   34loPI    C2  530   3.900   1.847  11.492 -0.1235  0.0142  0.0963
   34loPI    C3  531   3.614   1.660  11.699 -0.1233 -0.1704 -0.0669
   34loPI   PO4  532   3.637   1.617  11.088  0.4152 -0.2010  0.1814
   34loPI   GL1  533   3.749   1.509  10.790  0.2703 -0.2284  0.0590
   34loPI   GL2  534   3.431   1.476  10.621 -0.1058 -0.0251 -0.2704
   34loPI   C1A  535   3.858   1.336  10.366 -0.0997 -0.0276  0.1537
   34loPI   C2A  536   3.988   1.521  10.002  0.4141  0.1078  0.2937
   34loPI   C3A  537   3.854   1.480   9.634 -0.1617  0.2163  0.4469
   34loPI   C4A  538   3.897   1.454   9.214  0.2759  0.0735 -0.2244
   34loPI   C5A  539   3.797   1.577   8.660  0.0507 -0.0425 -0.3378
   34loPI   C6A  540   3.475   1.807   8.475  0.2744  0.2759 -0.0298
   34loPI   C1B  541   3.419   1.541  10.242  0.1290  0.0713 -0.1377
   34loPI   C2B  542   3.449   1.536   9.820  0.1708  0.1394  0.3247
   34loPI   C3B  543   3.440   1.587   9.400  0.1030  0.0066 -0.0948
   34loPI   C4B  544   3.397   1.470   8.957  0.0069 -0.0693 -0.1838
   35loPI    C1  545  11.976   7.523  11.286  0.0275  0.2789  0.3352
   35loPI    C2  546  12.073   7.136  11.318  0.1920  0.2878 -0.0103
   35loPI    C3  547  11.838   7.307  11.594  0.1849 -0.0354  0.1895
   35loPI   PO4  548  11.977   7.522  10.989  0.0761 -0.2828  0.2763
   35loPI   GL1  549  12.126   7.576  10.626  0.1968  0.3260 -0.0794
   35loPI   GL2  550  11.964   7.415  10.439 -0.1546  0.0739  0.4569
   35loPI   C1A  551  12.169   7.848  10.297  0.0572 -0.0693 -0.0207
   35loPI   C2A  552  12.174   7.865   9.793 -0.1195 -0.1941 -0.1012
   35loPI   C3A  553  12.185   7.837   9.394  0.1917 -0.3428 -0.0609
   35loPI   C4A  554  12.158   7.832   9.033  0.2442 -0.0705 -0.0514
   35loPI   C5A  555  12.222   8.016   8.730  0.1206  0.0348  0.1094
   35loPI   C6A  556  12.528   8.081   8.442 -0.1486  0.1716  0.1573
   35loPI   C1B  557  12.100   7.409  10.016  0.0470 -0.0284 -0.0866
   35loPI   C2B  558  12.503   7.363   9.771  0.0703 -0.1649  0.1535
   35loPI   C3B  559  12.842   7.413   9.497  0.3492 -0.0679 -0.2749
   35loPI   C4B  560  12.845   7.403   9.074  0.0443 -0.1605 -0.2392
   36loPI    C1  561   2.077  17.844  11.520 -0.1677  0.0001 -0.0566
   36loPI    C2  562   1.922  17.864  11.888 -0.1943  0.0452 -0.0703
   36loPI    C3  563   2.045  18.198  11.704 -0.0337  0.0040 -0.0394
   36loPI   PO4  564   1.888  17.666  11.387  0.0401 -0.0074 -0.0860
   36loPI   GL1  565   1.698  17.649  11.047 -0.2352  0.0189 -0.3722
   36loPI   GL2  566   1.954  17.679  10.760  0.0288  0.0097 -0.2809
   36loPI   C1A  567   1.459  17.565  10.612 -0.2516 -0.1394 -0.2535
   36loPI   C2A  568   1.378  17.605  10.168 -0.1909 -0.0558 -0.3824
   36loPI   C3A  569   1.420  17.612   9.693 -0.3074  0.0699  0.4974
   36loPI   C4A  570   1.475  17.717   9.245  0.2265 -0.0651 -0.0117
   36loPI   C5A  571   1.578  17.857   8.831  0.1173 -0.3175  0.0894
   36loPI   C6A  572   1.388  17.808   8.417  0.1071  0.0599  0.0179
   36loPI   C1B  573   1.863  17.593  10.323 -0.1147 -0.2782 -0.4176
   36loPI   C2B  574   1.859  17.676   9.908  0.0746  0.0092  0.1595
   36loPI   C3B  575   1.941  17.658   9.475 -0.1853 -0.2600 -0.0289
   36loPI   C4B  576   2.048  17.681   8.970  0.0592 -0.2769 -0.1422
   37loPI    C1  577  17.447   1.449  11.258 -0.0041  0.1730 -0.0184
   37loPI    C2  578  17.535   1.192  11.552  0.1534  0.0497 -0.1711
   37loPI    C3  579  17.182   1.379  11.549 -0.0394 -0.3049 -0.1556
   37loPI   PO4  580  17.493   1.321  11.050  0.4598  0.0711  0.0875
   37loPI   GL1  581  17.423   1.481  10.733  0.0337 -0.1686 -0.0738
   37loPI   GL2  582  17.647   1.624  10.541 -0.1249 -0.0493  0.0673
   37loPI   C1A  583  17.233   1.452  10.378 -0.1014  0.0508 -0.0581
   37loPI   C2A  584  17.328   1.540   9.942  0.2958  0.2032  0.2249
   37loPI   C3A  585  17.368   1.506   9.523 -0.0376 -0.1398 -0.1109
   37loPI   C4A  586  17.283   1.513   9.143 -0.5059  0.3840 -0.0327
   37loPI   C5A  587  17.338   1.632   8.693 -0.1976 -0.0570  0.0795
   37loPI   C6A  588  17.571   1.636   8.340  0.2947  0.1055 -0.3549
   37loPI   C1B  589  17.817   1.467  10.263 -0.0766  0.3088 -0.3628
   37loPI   C2B  590  17.837   1.458   9.849 -0.0116 -0.2045  0.2732
   37loPI   C3B  591  17.845   1.428   9.434 -0.4623  0.1961 -0.4604
   37loPI   C4B  592  17.737   1.507   9.019  0.2630 -0.1003 -0.1445
   38loPI    C1  593  11.726  17.422  11.210 -0.0788  0.1384  0.0236
   38loPI    C2  594  12.089  17.387  11.373 -0.1325 -0.1997  0.0783
   38loPI    C3  595  11.764  17.350  11.602 -0.2041 -0.0948 -0.0056
   38loPI   PO4  596  11.698  17.250  11.017  0.1813 -0.0217  0.2143
   38loPI   GL1  597  11.755  16.998  10.693  0.0573 -0.1487  0.0350
   38loPI   GL2  598  11.882  17.271  10.550  0.1132  0.0675  0.1537
   38loPI   C1A  599  11.589  16.905  10.347  0.2552 -0.2128  0.0251
   38loPI   C2A  600  11.693  16.754   9.978  0.3961  0.2498 -0.2890
   38loPI   C3A  601  11.650  16.810   9.593  0.2209  0.0629 -0.2545
   38loPI   C4A  602  11.684  16.747   9.155  0.2517  0.0705 -0.2403
   38loPI   C5A  603  11.819  16.891   8.724  0.0156  0.2606  0.1403
   38loPI   C6A  604  12.061  17.089   8.377  0.2169  0.1714 -0.1512
   38loPI   C1B  605  11.929  17.254  10.140  0.0806 -0.1472  0.2115
   38loPI   C2B  606  11.873  17.237   9.702 -0.0956  0.1372 -0.1434
   38loPI   C3B  607  11.917  17.190   9.306 -0.2029  0.3025 -0.3581
   38loPI   C4B  608  12.053  17.204   8.958  0.2073 -0.0495 -0.1249
   39loPI    C1  609  17.284  16.673  11.483  0.0056  0.1740 -0.1015
   39loPI    C2  610  17.150  16.536  11.834  0.4443 -0.1343 -0.0468
   39loPI    C3  611  17.298  16.906  11.807  0.0478  0.0324 -0.0007
   39loPI   PO4  612  17.141  16.616  11.323  0.0939  0.2990  0.0998
   39loPI   GL1  613  17.006  16.380  11.008 -0.0063  0.2357 -0.0408
   39loPI   GL2  614  16.866  16.634  10.936  0.2589  0.2622 -0.0029
   39loPI   C1A  615  16.974  16.320  10.553 -0.0224  0.1754 -0.1583
   39loPI   C2A  616  17.021  16.341  10.196  0.0528  0.1207  0.0619
   39loPI   C3A  617  17.037  16.382   9.752  0.1302 -0.2138 -0.2189
   39loPI   C4A  618  17.164  16.343   9.325  0.2002 -0.0668 -0.1135
   39loPI   C5A  619  17.128  16.523   8.922  0.3008  0.0107  0.0580
   39loPI   C6A  620  16.954  16.891   8.658 -0.2894  0.2519 -0.0389
   39loPI   C1B  621  16.787  16.791  10.549 -0.0451  0.2019 -0.0452
   39loPI   C2B  622  16.742  16.816  10.107  0.1572 -0.0881 -0.0760
   39loPI   C3B  623  16.868  16.832   9.702 -0.1955  0.0958  0.4221
   39loPI   C4B  624  16.812  16.763   9.268  0.0483  0.0662  0.0609
   40loPI    C1  625  14.157   8.750  11.681  0.1215  0.0162 -0.0687
   40loPI    C2  626  14.319   8.463  11.908  0.1317  0.0698 -0.0077
   40loPI    C3  627  14.106   8.755  12.078 -0.0691 -0.0260 -0.0918
   40loPI   PO4  628  14.367   8.810  11.479  0.0304  0.3925  0.2478
   40loPI   GL1  629  14.517   8.603  11.078 -0.3017  0.0294 -0.3305
   40loPI   GL2  630  14.345   8.564  10.959 -0.0917 -0.0279 -0.0624
   40loPI   C1A  631  14.769   8.645  10.641  0.3035 -0.1618 -0.1883
   40loPI   C2A  632  14.762   8.677  10.328 -0.0729  0.1047  0.2872
   40loPI   C3A  633  14.727   8.746   9.935 -0.3206 -0.4319 -0.2371
   40loPI   C4A  634  14.685   8.791   9.530  0.0100  0.1968  0.2493
   40loPI   C5A  635  14.640   8.792   9.006  0.1527  0.1062 -0.3249
   40loPI   C6A  636  14.606   8.831   8.581  0.0173 -0.1157 -0.1805
   40loPI   C1B  637  14.187   8.642  10.526  0.1228 -0.0055  0.1279
   40loPI   C2B  638  14.261   8.597  10.126 -0.1387 -0.0426 -0.0530
   40loPI   C3B  639  14.171   8.823   9.794 -0.1046 -0.0638  0.0825
   40loPI   C4B  640  14.177   8.817   9.282 -0.1005  0.3629 -0.1812
   41loPI    C1  641   7.620   2.083  11.300  0.0354 -0.0135  0.0656
   41loPI    C2  642   7.923   2.344  11.300  0.1925 -0.1888  0.4308
   41loPI    C3  643   7.722   2.271  11.638 -0.3273 -0.0018  0.1720
   41loPI   PO4  644   7.560   2.157  11.028  0.0655 -0.0694 -0.2083
   41loPI   GL1  645   7.611   2.015  10.534  0.2024 -0.1714  0.2416
   41loPI   GL2  646   7.497   2.314  10.574  0.2645 -0.0252  0.1024
   41loPI   C1A  647   7.250   1.862  10.171  0.2977 -0.1063 -0.3293
   41loPI   C2A  648   7.252   1.970   9.742  0.0134 -0.0315  0.2130
   41loPI   C3A  649   7.238   2.009   9.254  0.4306  0.4148 -0.1131
   41loPI   C4A  650   7.329   2.013   8.840  0.0524  0.2224 -0.0461
   41loPI   C5A  651   7.154   1.877   8.485  0.2742 -0.0720 -0.1440
   41loPI   C6A  652   6.853   1.765   8.173  0.0241 -0.3128 -0.0061
   41loPI   C1B  653   7.504   2.309  10.103 -0.1730 -0.3967 -0.2179
   41loPI   C2B  654   7.521   2.435   9.746 -0.2193 -0.2744 -0.3676
   41loPI   C3B  655   7.544   2.449   9.298 -0.4604 -0.1568 -0.0035
   41loPI   C4B  656   7.638   2.386   8.910  0.0528  0.3389 -0.3842
   42loPI    C1  657  14.267  11.301  11.424  0.0014  0.0511 -0.1528
   42loPI    C2  658  14.119  10.976  11.605  0.2246  0.1357  0.1925
   42loPI    C3  659  13.887  11.297  11.548  0.0522 -0.0202  0.0041
   42loPI   PO4  660  14.413  11.224  11.251 -0.2307 -0.0711  0.1293
   42loPI   GL1  661  14.296  11.145  10.802 -0.2817 -0.0767 -0.0308
   42loPI   GL2  662  14.140  11.360  10.598  0.3510 -0.1256 -0.0669
   42loPI   C1A  663  14.453  11.005  10.484  0.1480  0.0231 -0.1410
   42loPI   C2A  664  14.486  10.924  10.072  0.3258 -0.1782  0.1817
   42loPI   C3A  665  14.464  10.946   9.648 -0.0047 -0.1027 -0.0018
   42loPI   C4A  666  14.459  11.067   9.253 -0.0638  0.1894 -0.0255
   42loPI   C5A  667  14.470  11.024   8.813 -0.1271 -0.0308  0.0735
   42loPI   C6A  668  14.233  11.074   8.362 -0.0623 -0.1716 -0.3102
   42loPI   C1B  669  14.230  11.436  10.202 -0.1121  0.0587  0.0628
   42loPI   C2B  670  14.280  11.468   9.738 -0.1344  0.1390  0.1012
   42loPI   C3B  671  14.166  11.492   9.194 -0.2785  0.1113  0.0901
   42loPI   C4B  672  13.954  11.380   8.790  0.2366  0.2897  0.0822
   43loPI    C1  673  14.085  17.363  11.458 -0.1040  0.5095 -0.1546
   43loPI    C2  674  14.388  17.304  11.712 -0.1913 -0.2714 -0.2065
   43loPI    C3  675  14.037  17.438  11.848  0.0028  0.1033 -0.0584
   43loPI   PO4  676  14.193  17.439  11.247 -0.1183  0.1552  0.1238
   43loPI   GL1  677  14.255  17.562  10.814 -0.0543  0.0771  0.3127
   43loPI   GL2  678  14.012  17.467  10.647 -0.0439  0.0077 -0.1927
   43loPI   C1A  679  14.453  17.364  10.444  0.2042 -0.0365  0.1851
   43loPI   C2A  680  14.469  17.280   9.935  0.1768  0.0226 -0.0372
   43loPI   C3A  681  14.438  17.341   9.495  0.2446 -0.0839  0.0125
   43loPI   C4A  682  14.462  17.274   9.093  0.2079  0.0167  0.0148
   43loPI   C5A  683  14.387  17.301   8.753 -0.1650 -0.1710  0.1632
   43loPI   C6A  684  14.010  17.398   8.555 -0.2519  0.1811  0.0862
   43loPI   C1B  685  14.035  17.402  10.244  0.2419  0.3398  0.2000
   43loPI   C2B  686  13.900  17.343   9.848 -0.2650 -0.3423  0.1678
   43loPI   C3B  687  13.935  17.213   9.479  0.0340  0.0481 -0.1227
   43loPI   C4B  688  13.996  17.284   9.057 -0.1300 -0.3047 -0.1262
   44loPI    C1  689   2.281  13.909  11.457 -0.2625  0.2708  0.3100
   44loPI    C2  690   2.387  13.577  11.654 -0.2573  0.2044  0.1959
   44loPI    C3  691   2.420  13.934  11.831 -0.0396  0.1660  0.2359
   44loPI   PO4  692   2.285  13.869  11.256 -0.1845 -0.1507 -0.0946
   44loPI   GL1  693   2.167  13.951  10.894  0.0841 -0.1478 -0.0414
   44loPI   GL2  694   1.953  13.706  10.790  0.2173  0.0417 -0.3383
   44loPI   C1A  695   1.876  14.093  10.491  0.2217 -0.0414  0.3811
   44loPI   C2A  696   1.895  14.135  10.062 -0.2567 -0.1513 -0.0700
   44loPI   C3A  697   1.905  14.089   9.623 -0.0668 -0.0658 -0.2629
   44loPI   C4A  698   2.003  14.063   9.265 -0.0930 -0.2287  0.1454
   44loPI   C5A  699   1.936  14.017   8.893  0.1289 -0.2201 -0.1366
   44loPI   C6A  700   1.977  13.946   8.415 -0.2419  0.0518 -0.0413
   44loPI   C1B  701   1.654  13.645  10.517 -0.2883 -0.1272 -0.1643
   44loPI   C2B  702   1.639  13.685  10.114 -0.0338 -0.0053 -0.0374
   44loPI   C3B  703   1.627  13.648   9.677  0.2169  0.0175 -0.0219
   44loPI   C4B  704   1.685  13.720   9.254  0.3632  0.2620 -0.0230
   45loPI    C1  705  14.600  17.880  11.265 -0.1539  0.0690 -0.0121
   45loPI    C2  706  14.324  17.802  11.544  0.1447  0.0380  0.2810
   45loPI    C3  707  14.701  17.681  11.597  0.1481 -0.2248 -0.2737
   45loPI   PO4  708  14.443  17.901  11.060  0.3205 -0.0931 -0.1424
   45loPI   GL1  709  14.779  17.863  10.720 -0.0389  0.4624 -0.1350
   45loPI   GL2  710  14.753  17.554  10.760 -0.0012  0.0354  0.1069
   45loPI   C1A  711  14.662  17.833  10.245  0.0826  0.1658  0.1966
   45loPI   C2A  712  14.708  17.688   9.817  0.0365  0.0064 -0.1977
   45loPI   C3A  713  14.795  17.785   9.455 -0.1818  0.1178 -0.0828
   45loPI   C4A  714  14.714  17.730   9.112  0.1931 -0.0354  0.1426
   45loPI   C5A  715  14.797  17.513   8.787 -0.1870  0.0834  0.1064
   45loPI   C6A  716  15.035  17.107   8.725 -0.1670 -0.3152  0.2204
   45loPI   C1B  717  14.993  17.347  10.395  0.1662 -0.2272 -0.5415
   45loPI   C2B  718  14.990  17.287   9.955  0.4494 -0.2049  0.0475
   45loPI   C3B  719  14.901  17.241   9.570  0.1498 -0.0385  0.3681
   45loPI   C4B  720  14.952  17.331   9.192  0.1301  0.0102 -0.1195
   46loPI    C1  721  13.386  12.648  11.163 -0.0414 -0.2550  0.0221
   46loPI    C2  722  13.032  12.491  11.262 -0.1909  0.0132 -0.0789
   46loPI    C3  723  13.100  12.882  11.316  0.1857 -0.0854  0.1954
   46loPI   PO4  724  13.454  12.545  11.027 -0.2287 -0.1364 -0.2949
   46loPI   GL1  725  13.573  12.455  10.617  0.1512  0.2053  0.2661
   46loPI   GL2  726  13.368  12.774  10.535  0.0006 -0.3771  0.0792
   46loPI   C1A  727  13.682  12.293  10.191 -0.2161 -0.3439  0.0109
   46loPI   C2A  728  13.724  12.370   9.724 -0.1363  0.1734 -0.0022
   46loPI   C3A  729  13.672  12.363   9.299 -0.0242  0.2651  0.0634
   46loPI   C4A  730  13.736  12.297   8.872  0.2152 -0.0191  0.1990
   46loPI   C5A  731  13.960  12.643   8.653 -0.0966  0.2728 -0.2017
   46loPI   C6A  732  14.199  12.917   8.362 -0.0474 -0.1502 -0.1504
   46loPI   C1B  733  13.446  12.786  10.116 -0.2350  0.3181  0.0137
   46loPI   C2B  734  13.404  12.755   9.745 -0.3200 -0.2700  0.0561
   46loPI   C3B  735  13.490  12.792   9.358 -0.3356  0.2346  0.1822
   46loPI   C4B  736  13.483  12.742   8.882 -0.0616 -0.1887  0.1542
   47loPI    C1  737   3.316   9.959  11.650 -0.0792  0.0723  0.0664
   47loPI    C2  738   3.675   9.788  11.697 -0.1307 -0.0928 -0.1252
   47loPI    C3  739   3.427   9.820  12.008 -0.0391 -0.1823 -0.0423
   47loPI   PO4  740   3.249   9.880  11.352 -0.0781  0.0109  0.2564
   47loPI   GL1  741   3.077   9.907  11.005 -0.0513  0.0874  0.2515
   47loPI   GL2  742   3.424  10.011  10.869 -0.0909  0.2799  0.0311
   47loPI   C1A  743   3.221   9.987  10.418 -0.1514 -0.2888 -0.2706
   47loPI   C2A  744   3.122   9.988   9.999  0.0246  0.0621 -0.0118
   47loPI   C3A  745   3.186  10.053   9.517  0.2025  0.2600 -0.3483
   47loPI   C4A  746   3.239  10.082   9.089 -0.1405 -0.3381  0.0520
   47loPI   C5A  747   3.402  10.215   8.657 -0.2187 -0.1731  0.0061
   47loPI   C6A  748   3.816  10.052   8.508 -0.2164  0.0354  0.0589
   47loPI   C1B  749   3.673   9.953  10.594  0.0125  0.1024 -0.1995
   47loPI   C2B  750   3.692   9.972  10.116  0.1856  0.2600 -0.2130
   47loPI   C3B  751   3.766  10.112   9.746 -0.1988 -0.1536  0.1198
   47loPI   C4B  752   3.660  10.107   9.356 -0.0066  0.2949  0.0237
   48loPI    C1  753   3.018   3.043  11.489 -0.1016  0.1817  0.0849
   48loPI    C2  754   2.934   2.698  11.674  0.0587  0.0975  0.0029
   48loPI    C3  755   3.234   2.928  11.806  0.0469  0.1334 -0.0326
   48loPI   PO4  756   3.034   2.977  11.227 -0.0080 -0.0708 -0.4366
   48loPI   GL1  757   3.094   3.205  10.773 -0.0938  0.2110  0.0250
   48loPI   GL2  758   2.896   3.327  10.588 -0.0682 -0.1067  0.1478
   48loPI   C1A  759   3.253   2.887  10.478  0.1969 -0.0211  0.2508
   48loPI   C2A  760   3.239   2.912  10.030 -0.0282 -0.1013 -0.0746
   48loPI   C3A  761   3.235   2.896   9.673 -0.2544 -0.0907 -0.3493
   48loPI   C4A  762   3.245   2.850   9.298 -0.0933 -0.0714  0.0286
   48loPI   C5A  763   3.175   2.903   8.840 -0.3337 -0.1225 -0.1445
   48loPI   C6A  764   2.814   2.957   8.561 -0.1923 -0.0404 -0.2348
   48loPI   C1B  765   3.019   3.328  10.270  0.2556 -0.2053 -0.0380
   48loPI   C2B  766   3.038   3.322   9.863 -0.1439  0.0865  0.3844
   48loPI   C3B  767   2.925   3.263   9.405  0.2996 -0.2332 -0.1672
   48loPI   C4B  768   2.993   3.333   8.977 -0.3578 -0.4136 -0.0023
   49loPI    C1  769   6.223  10.147  11.524  0.0673  0.2596 -0.1352
   49loPI    C2  770   5.833  10.088  11.592  0.1041  0.0988 -0.0605
   49loPI    C3  771   6.106   9.920  11.832  0.2250 -0.0522 -0.3004
   49loPI   PO4  772   6.331  10.113  11.178  0.2181  0.0344 -0.0356
   49loPI   GL1  773   6.319  10.077  10.733 -0.3971  0.1547  0.1252
   49loPI   GL2  774   6.155   9.789  10.751  0.1202  0.1539  0.2851
   49loPI   C1A  775   6.288  10.122  10.317 -0.2752  0.1006 -0.3060
   49loPI   C2A  776   6.225   9.944   9.862 -0.0058 -0.2626  0.0021
   49loPI   C3A  777   6.238  10.025   9.397  0.1186  0.0137  0.2194
   49loPI   C4A  778   6.177  10.180   8.901 -0.5030 -0.1248 -0.1363
   49loPI   C5A  779   6.404  10.042   8.476 -0.2387  0.5114 -0.1387
   49loPI   C6A  780   6.618   9.946   8.083 -0.1204  0.0351 -0.2239
   49loPI   C1B  781   6.070   9.641  10.424  0.0269 -0.3648  0.0134
   49loPI   C2B  782   6.028   9.521   9.982  0.0016 -0.0773  0.1482
   49loPI   C3B  783   5.967   9.553   9.490 -0.0295 -0.1352  0.1247
   49loPI   C4B  784   6.086   9.698   9.041 -0.1046 -0.4731 -0.2051
   50loPI    C1  785   5.249   0.817  11.310  0.2553 -0.2257  0.0101
   50loPI    C2  786   5.173   0.510  11.556  0.1730 -0.2942 -0.0995
   50loPI    C3  787   5.198   0.882  11.701 -0.2189 -0.2892 -0.0353
   50loPI   PO4  788   5.394   0.746  11.189 -0.2095 -0.0220 -0.0385
   50loPI   GL1  789   5.383   0.451  10.833  0.0753 -0.1361  0.2336
   50loPI   GL2  790   5.121   0.293  10.732 -0.1804 -0.0014 -0.3256
   50loPI   C1A  791   5.524   0.564  10.419 -0.1933 -0.0159  0.1089
   50loPI   C2A  792   5.484   0.667  10.060  0.0251  0.1521  0.1689
   50loPI   C3A  793   5.534   0.577   9.650  0.1831  0.2107  0.2699
   50loPI   C4A  794   5.501   0.657   9.223 -0.2199 -0.2248 -0.0874
   50loPI   C5A  795   5.503   0.729   8.803  0.1880 -0.0423  0.1786
   50loPI   C6A  796   5.729   0.519   8.414  0.3047  0.1868  0.1028
   50loPI   C1B  797   5.197   0.093  10.299  0.1265  0.2451  0.3671
   50loPI   C2B  798   5.341   0.205   9.908  0.1631  0.2013  0.0737
   50loPI   C3B  799   5.287   0.127   9.514  0.0188 -0.2504 -0.1486
   50loPI   C4B  800   5.282   0.223   9.118 -0.1426  0.3229  0.0176
   51loPI    C1  801  14.039   0.294  11.565 -0.2223 -0.1952  0.0240
   51loPI    C2  802  14.332   0.255  11.834 -0.1565  0.1617  0.0100
   51loPI    C3  803  13.975   0.085  11.900 -0.0011 -0.1362  0.1046
   51loPI   PO4  804  14.151   0.231  11.349 -0.1210 -0.4710  0.1555
   51loPI   GL1  805  14.172   0.302  10.834 -0.1967  0.2938  0.0362
   51loPI   GL2  806  14.175   0.524  10.641 -0.2922 -0.0759  0.2481
   51loPI   C1A  807  14.161  -0.075  10.446 -0.0044  0.1904  0.0940
   51loPI   C2A  808  14.234  -0.223   9.972 -0.1802  0.0463  0.1671
   51loPI   C3A  809  14.241  -0.191   9.453 -0.0322  0.2693  0.0788
   51loPI   C4A  810  14.229  -0.244   8.955  0.2865 -0.0562  0.5808
   51loPI   C5A  811  14.429  -0.303   8.479  0.2346  0.1677  0.1065
   51loPI   C6A  812  14.185  -0.431   8.121 -0.1688 -0.1749 -0.0505
   51loPI   C1B  813  14.255   0.712  10.348 -0.1843 -0.1457  0.2754
   51loPI   C2B  814  14.164   0.674   9.843 -0.0046 -0.2684 -0.1404
   51loPI   C3B  815  14.175   0.639   9.399  0.1184 -0.1430  0.0264
   51loPI   C4B  816  14.236   0.624   8.947 -0.0740  0.2106  0.0280
   52loPI    C1  817   2.783   0.787  11.547 -0.0705  0.1926  0.1692
   52loPI    C2  818   2.461   0.871  11.768 -0.1266  0.3294  0.0372
   52loPI    C3  819   2.748   1.146  11.721  0.0452  0.1830  0.2132
   52loPI   PO4  820   2.745   0.693  11.309  0.1347 -0.1959  0.0033
   52loPI   GL1  821   2.594   0.790  10.824 -0.0033  0.0091 -0.0535
   52loPI   GL2  822   2.373   0.570  10.888 -0.0756 -0.2749 -0.0756
   52loPI   C1A  823   2.633   0.978  10.407 -0.2130  0.0587  0.1694
   52loPI   C2A  824   2.732   0.959   9.951  0.0058 -0.1635  0.1954
   52loPI   C3A  825   2.745   1.033   9.565  0.0190 -0.3275 -0.2305
   52loPI   C4A  826   2.721   1.096   9.077  0.0261 -0.0168  0.0754
   52loPI   C5A  827   2.659   1.141   8.661  0.0119 -0.0493 -0.2926
   52loPI   C6A  828   2.473   1.078   8.265 -0.1050  0.2937 -0.1776
   52loPI   C1B  829   2.351   0.566  10.410  0.2134 -0.2903  0.0936
   52loPI   C2B  830   2.389   0.540   9.992  0.0157 -0.2960 -0.1718
   52loPI   C3B  831   2.423   0.614   9.560  0.0379 -0.0468  0.0250
   52loPI   C4B  832   2.498   0.651   9.177  0.0774 -0.3668 -0.0483
   53loPI    C1  833  16.387   3.946  11.443  0.0844 -0.0241  0.1222
   53loPI    C2  834  16.392   4.273  11.673 -0.2703  0.0110  0.0861
   53loPI    C3  835  16.433   3.911  11.838 -0.0373  0.0623  0.1447
   53loPI   PO4  836  16.527   3.990  11.292 -0.0041  0.3787  0.2416
   53loPI   GL1  837  16.416   4.030  10.803 -0.0566  0.0107  0.1182
   53loPI   GL2  838  16.670   3.898  10.611 -0.2422  0.0983  0.0933
   53loPI   C1A  839  16.320   4.161  10.423  0.0377  0.1026  0.0214
   53loPI   C2A  840  16.341   4.194   9.980 -0.5067 -0.2969  0.2986
   53loPI   C3A  841  16.315   4.135   9.536  0.0628  0.0729  0.0657
   53loPI   C4A  842  16.331   4.260   9.169 -0.2805 -0.0571  0.2045
   53loPI   C5A  843  16.369   4.277   8.766 -0.2383 -0.0018 -0.2202
   53loPI   C6A  844  16.259   4.774   8.549 -0.2410  0.4183  0.0286
   53loPI   C1B  845  16.573   3.763  10.118  0.1161  0.1322 -0.2013
   53loPI   C2B  846  16.555   3.710   9.704 -0.1499  0.1613  0.1294
   53loPI   C3B  847  16.593   3.700   9.218  0.0279  0.0882 -0.1152
   53loPI   C4B  848  16.461   3.718   8.849  0.3179 -0.1674  0.1745
   54loPI    C1  849   0.710  10.766  11.278  0.0196 -0.1048  0.1164
   54loPI    C2  850   0.359  10.745  11.469 -0.1084 -0.0720 -0.1109
   54loPI    C3  851   0.681  10.564  11.622 -0.1407  0.1874  0.2785
   54loPI   PO4  852   0.761  10.969  11.243  0.1692 -0.0558 -0.0145
   54loPI   GL1  853   0.738  11.134  10.809  0.0334  0.0117  0.1726
   54loPI   GL2  854   0.534  10.966  10.690 -0.2239  0.0666  0.1483
   54loPI   C1A  855   0.878  11.487  10.495 -0.2174  0.1579 -0.0593
   54loPI   C2A  856   0.886  11.498  10.065 -0.2154  0.3956  0.2914
   54loPI   C3A  857   0.907  11.501   9.650  0.2011  0.0957 -0.3368
   54loPI   C4A  858   0.797  11.473   9.285 -0.1077 -0.0207 -0.1480
   54loPI   C5A  859   0.827  11.554   8.918 -0.2788  0.2048 -0.0956
   54loPI   C6A  860   0.747  11.561   8.505  0.0078  0.1826  0.1606
   54loPI   C1B  861   0.651  10.898  10.312 -0.1562  0.1238  0.1257
   54loPI   C2B  862   0.603  11.100   9.902  0.0029 -0.0225  0.2388
   54loPI   C3B  863   0.584  11.100   9.528 -0.1683 -0.2669 -0.5871
   54loPI   C4B  864   0.496  11.015   9.198  0.0144 -0.1427  0.1856
   55loPI    C1  865  14.181  15.583  11.509  0.0640  0.0400  0.1574
   55loPI    C2  866  13.876  15.377  11.666  0.0080  0.0241  0.0293
   55loPI    C3  867  14.012  15.705  11.850  0.1028 -0.1299  0.2380
   55loPI   PO4  868  14.120  15.621  11.282  0.2075  0.1228 -0.3041
   55loPI   GL1  869  14.014  15.782  10.945  0.1320 -0.0572  0.2524
   55loPI   GL2  870  13.890  15.564  10.859 -0.0817  0.2630  0.1664
   55loPI   C1A  871  14.156  16.015  10.649  0.1187 -0.2264 -0.1138
   55loPI   C2A  872  14.259  15.945  10.132 -0.1411 -0.0250 -0.1810
   55loPI   C3A  873  14.266  15.952   9.688  0.0627 -0.1205  0.0363
   55loPI   C4A  874  14.311  15.909   9.254  0.3724  0.0663 -0.2492
   55loPI   C5A  875  14.488  15.801   8.877 -0.0303  0.0009  0.0470
   55loPI   C6A  876  14.909  15.846   8.719  0.0850 -0.2024  0.3348
   55loPI   C1B  877  13.989  15.526  10.384  0.1401 -0.3197  0.0665
   55loPI   C2B  878  14.069  15.469   9.937 -0.0650 -0.0038  0.0901
   55loPI   C3B  879  14.058  15.516   9.419  0.0304  0.0223 -0.1631
   55loPI   C4B  880  14.131  15.419   8.933 -0.0548  0.1121 -0.2250
   56loPI    C1  881   8.556   9.539  11.597  0.3192 -0.3298  0.2952
   56loPI    C2  882   8.446   9.805  11.875 -0.1227 -0.2504  0.0539
   56loPI    C3  883   8.528   9.428  11.980  0.1460 -0.1144  0.3475
   56loPI   PO4  884   8.465   9.582  11.401 -0.1915  0.1662 -0.1148
   56loPI   GL1  885   8.217   9.814  11.169  0.0665  0.0961  0.1627
   56loPI   GL2  886   8.065   9.668  11.020  0.0435 -0.2033  0.1400
   56loPI   C1A  887   8.385   9.964  10.771 -0.1050  0.2810 -0.2121
   56loPI   C2A  888   8.390  10.064  10.353 -0.2220  0.0701  0.2754
   56loPI   C3A  889   8.398   9.998   9.909 -0.1244  0.0248 -0.2516
   56loPI   C4A  890   8.344  10.061   9.481  0.3375  0.2033  0.3384
   56loPI   C5A  891   8.384  10.142   9.099  0.2839 -0.0008 -0.5338
   56loPI   C6A  892   8.269  10.120   8.594  0.1140  0.0836 -0.2367
   56loPI   C1B  893   8.152   9.531  10.564 -0.0688  0.0309 -0.1680
   56loPI   C2B  894   8.159   9.548  10.165 -0.0925  0.0295 -0.0875
   56loPI   C3B  895   8.107   9.598   9.675 -0.0907 -0.1534 -0.0708
   56loPI   C4B  896   8.085   9.650   9.222 -0.0999  0.1967  0.0713
   57loPI    C1  897   3.820  17.632  11.178 -0.0969 -0.2977 -0.0698
   57loPI    C2  898   4.202  17.686  11.282 -0.2193  0.0864  0.2051
   57loPI    C3  899   3.986  17.398  11.456 -0.0913 -0.0504  0.1398
   57loPI   PO4  900   3.830  17.713  10.954 -0.0093 -0.3776  0.2298
   57loPI   GL1  901   3.511  17.785  10.610  0.2284  0.0875 -0.0151
   57loPI   GL2  902   3.747  17.989  10.506 -0.1320 -0.2659  0.1614
   57loPI   C1A  903   3.457  17.630  10.178  0.2886 -0.3539 -0.1893
   57loPI   C2A  904   3.424  17.630   9.787  0.0879  0.1637  0.1129
   57loPI   C3A  905   3.546  17.750   9.437 -0.1398  0.1616 -0.0013
   57loPI   C4A  906   3.451  17.627   9.030  0.0071  0.0776  0.0213
   57loPI   C5A  907   3.457  17.707   8.629 -0.2125  0.1614  0.0049
   57loPI   C6A  908   3.293  17.532   8.213 -0.1072  0.1796 -0.1714
   57loPI   C1B  909   3.778  18.051  10.070  0.1625  0.2610  0.1381
   57loPI   C2B  910   3.720  18.190   9.683  0.2226 -0.0659  0.1971
   57loPI   C3B  911   3.802  18.126   9.210 -0.1963  0.0559 -0.0277
   57loPI   C4B  912   3.804  18.111   8.803  0.0299  0.1450  0.0217
   58loPI    C1  913   4.753  10.689  11.259 -0.1785 -0.1214  0.2576
   58loPI    C2  914   5.127  10.668  11.398 -0.0359 -0.1181 -0.1126
   58loPI    C3  915   4.828  10.496  11.601  0.1393  0.0142  0.2675
   58loPI   PO4  916   4.784  10.758  11.063  0.0985  0.1564  0.3742
   58loPI   GL1  917   4.706  10.980  10.766 -0.1621 -0.2858  0.4422
   58loPI   GL2  918   4.638  11.302  10.717 -0.1171  0.1419 -0.4284
   58loPI   C1A  919   4.748  10.888  10.297  0.1153  0.0878  0.0482
   58loPI   C2A  920   4.736  10.849   9.903 -0.0029  0.1439 -0.0840
   58loPI   C3A  921   4.670  11.048   9.558 -0.2016  0.2207 -0.0521
   58loPI   C4A  922   4.670  10.988   9.151  0.0455  0.1727  0.2387
   58loPI   C5A  923   4.730  11.066   8.768  0.3318  0.1499  0.0869
   58loPI   C6A  924   4.767  11.237   8.441  0.0392 -0.2671  0.2019
   58loPI   C1B  925   4.599  11.383  10.281  0.2400  0.2018  0.4480
   58loPI   C2B  926   4.492  11.422   9.767  0.0740  0.0221 -0.0453
   58loPI   C3B  927   4.411  11.477   9.377 -0.3735  0.1819 -0.1730
   58loPI   C4B  928   4.431  11.465   8.977  0.1397 -0.2781  0.0618
   59loPI    C1  929   8.786   8.039  11.317 -0.0415  0.0801 -0.1409
   59loPI    C2  930   8.838   8.281  11.631  0.0575 -0.0422 -0.0618
   59loPI    C3  931   8.827   7.885  11.684 -0.3074 -0.0489 -0.1634
   59loPI   PO4  932   8.696   8.233  11.137  0.0839  0.0825 -0.2132
   59loPI   GL1  933   8.759   8.253  10.731 -0.0126 -0.2049 -0.0853
   59loPI   GL2  934   8.385   8.262  10.716 -0.1443 -0.1059  0.3121
   59loPI   C1A  935   8.906   8.288  10.275 -0.0406  0.1358  0.1579
   59loPI   C2A  936   8.843   8.298   9.866 -0.0095 -0.2304 -0.0440
   59loPI   C3A  937   8.854   8.267   9.403 -0.1594 -0.1783  0.0514
   59loPI   C4A  938   8.761   8.376   8.988 -0.0604  0.1259  0.0077
   59loPI   C5A  939   8.822   8.462   8.508 -0.0097  0.0099  0.0218
   59loPI   C6A  940   8.540   8.714   8.243 -0.4094 -0.1746 -0.1271
   59loPI   C1B  941   8.330   8.296  10.286 -0.2615  0.0040 -0.0888
   59loPI   C2B  942   8.359   8.281   9.833  0.2660  0.1422 -0.2253
   59loPI   C3B  943   8.360   8.239   9.458 -0.1248 -0.0126 -0.2003
   59loPI   C4B  944   8.267   8.280   9.047  0.4363 -0.0339  0.1873
   60loPI    C1  945  10.644   3.077  10.989  0.1049  0.3895  0.1891
   60loPI    C2  946  10.593   2.801  11.274 -0.2913  0.2782  0.0170
   60loPI    C3  947  10.333   3.103  11.238 -0.0034  0.5340  0.0408
   60loPI   PO4  948  10.659   2.958  10.712 -0.0351 -0.0492 -0.1729
   60loPI   GL1  949  10.875   3.098  10.349  0.0054  0.2136 -0.0119
   60loPI   GL2  950  10.838   2.833  10.240 -0.1300  0.0885 -0.2500
   60loPI   C1A  951  10.796   3.415  10.015 -0.3765  0.1547  0.0219
   60loPI   C2A  952  11.034   3.349   9.687 -0.0840 -0.1765 -0.2534
   60loPI   C3A  953  11.297   3.579   9.414 -0.0920 -0.2425  0.0031
   60loPI   C4A  954  11.703   3.717   9.491 -0.1077 -0.0152  0.1715
   60loPI   C5A  955  12.088   3.737   9.358  0.2139  0.0658  0.2063
   60loPI   C6A  956  12.265   3.586   8.940  0.3755 -0.2967  0.1896
   60loPI   C1B  957  10.937   2.870   9.871 -0.0880 -0.2155  0.3390
   60loPI   C2B  958  10.745   3.001   9.531 -0.0599 -0.1677  0.0549
   60loPI   C3B  959  10.526   3.093   9.192 -0.3217  0.1022  0.0653
   60loPI   C4B  960  10.232   3.241   8.959 -0.4703  0.0788 -0.3133
   61loPI    C1  961  14.330  10.240  11.317  0.1367  0.2385  0.2260
   61loPI    C2  962  14.233  10.445  11.646  0.2690  0.1219  0.3388
   61loPI    C3  963  14.359  10.066  11.676 -0.0952 -0.0212  0.1228
   61loPI   PO4  964  14.132  10.301  11.165 -0.1009  0.3014  0.1788
   61loPI   GL1  965  14.245  10.518  10.797  0.1779  0.0334  0.0553
   61loPI   GL2  966  14.509  10.423  10.852  0.1491  0.1899  0.0294
   61loPI   C1A  967  14.219  10.418  10.298  0.0770 -0.1831  0.0645
   61loPI   C2A  968  14.301  10.555   9.847  0.0408  0.0861 -0.1826
   61loPI   C3A  969  14.209  10.571   9.448  0.1937  0.6219  0.0506
   61loPI   C4A  970  14.159  10.603   9.053  0.1525 -0.2930  0.1178
   61loPI   C5A  971  13.950  10.880   8.698 -0.2834 -0.0052  0.0507
   61loPI   C6A  972  13.617  10.870   8.374 -0.1309 -0.4082 -0.0039
   61loPI   C1B  973  14.738  10.448  10.436  0.3529  0.0194 -0.5586
   61loPI   C2B  974  14.745  10.458   9.939 -0.2213  0.1796 -0.1351
   61loPI   C3B  975  14.736  10.529   9.526 -0.2730  0.0410  0.0193
   61loPI   C4B  976  14.690  10.594   9.082  0.1176  0.1446  0.0203
   62loPI    C1  977   0.981  12.956  11.927  0.3250 -0.2671 -0.0415
   62loPI    C2  978   1.198  12.973  12.263  0.1215 -0.3256  0.0944
   62loPI    C3  979   0.808  12.883  12.280  0.0304  0.0052 -0.1246
   62loPI   PO4  980   1.126  12.855  11.654 -0.0495  0.0486 -0.0705
   62loPI   GL1  981   1.064  12.948  11.133  0.0028 -0.2050 -0.2036
   62loPI   GL2  982   1.334  12.989  11.009  0.2334 -0.1380  0.1699
   62loPI   C1A  983   0.849  13.183  10.776  0.1568  0.2594  0.0959
   62loPI   C2A  984   0.847  13.218  10.394 -0.0313  0.0573  0.1230
   62loPI   C3A  985   0.884  13.197   9.963 -0.1047 -0.1161  0.0631
   62loPI   C4A  986   0.822  13.264   9.461  0.0149  0.2611  0.0976
   62loPI   C5A  987   0.792  13.181   9.005  0.3075  0.2887 -0.3201
   62loPI   C6A  988   0.851  13.173   8.619 -0.1485  0.1887 -0.1854
   62loPI   C1B  989   1.209  12.772  10.654  0.2603 -0.1536 -0.3677
   62loPI   C2B  990   1.203  12.813  10.225  0.2919  0.0548  0.1016
   62loPI   C3B  991   1.174  12.800   9.801  0.0740  0.4151 -0.1603
   62loPI   C4B  992   1.099  12.825   9.372 -0.0034  0.2407  0.2655
   63loPI    C1  993   7.710  14.151  11.736 -0.1470 -0.2681 -0.1389
   63loPI    C2  994   7.539  14.284  12.072  0.0926  0.2049 -0.1964
   63loPI    C3  995   7.938  14.254  12.048  0.0651 -0.0710 -0.3543
   63loPI   PO4  996   7.555  14.326  11.554 -0.0606  0.1671 -0.0347
   63loPI   GL1  997   7.468  14.342  11.187  0.0829  0.2425 -0.0680
   63loPI   GL2  998   7.478  14.158  10.982  0.0504 -0.0766 -0.1290
   63loPI   C1A  999   7.443  14.601  10.812 -0.1726 -0.1537  0.1163
   63loPI   C2A 1000   7.389  14.515  10.358  0.0174  0.1712 -0.1690
   63loPI   C3A 1001   7.418  14.634  10.007  0.0228 -0.1440 -0.0986
   63loPI   C4A 1002   7.401  14.608   9.549 -0.1831  0.1486  0.2029
   63loPI   C5A 1003   7.401  14.474   9.112 -0.0921  0.4487  0.2747
   63loPI   C6A 1004   7.470  14.551   8.667 -0.1109 -0.1256  0.1581
   63loPI   C1B 1005   7.160  14.167  10.655 -0.0972 -0.2436  0.0093
   63loPI   C2B 1006   7.116  14.055  10.243 -0.1614  0.0438 -0.1242
   63loPI   C3B 1007   7.008  14.092   9.859  0.0861 -0.1713  0.0570
   63loPI   C4B 1008   7.127  14.145   9.426  0.3665  0.0600 -0.0086
   64loPI    C1 1009   6.155  17.625  11.421  0.0418  0.3475  0.1238
   64loPI    C2 1010   6.357  17.667  11.763 -0.0671 -0.0201  0.2380
   64loPI    C3 1011   5.990  17.509  11.766 -0.2177  0.3130 -0.0092
   64loPI   PO4 1012   6.376  17.488  11.255  0.1935 -0.0686  0.0600
   64loPI   GL1 1013   6.393  17.390  10.793 -0.2094 -0.2437  0.2493
   64loPI   GL2 1014   6.479  17.153  10.691 -0.0447 -0.1577  0.5106
   64loPI   C1A 1015   6.485  17.606  10.482 -0.0064 -0.0444 -0.3249
   64loPI   C2A 1016   6.638  17.686  10.120  0.0385 -0.1996  0.0025
   64loPI   C3A 1017   6.660  17.745   9.733  0.4171 -0.0118 -0.1953
   64loPI   C4A 1018   6.543  17.738   9.331  0.1996 -0.1172 -0.3099
   64loPI   C5A 1019   6.605  17.813   8.836 -0.0741 -0.0456  0.4567
   64loPI   C6A 1020   6.374  17.707   8.481 -0.0963 -0.0826  0.0954
   64loPI   C1B 1021   6.411  17.180  10.233  0.0533 -0.0943 -0.2023
   64loPI   C2B 1022   6.390  17.360   9.826  0.0412 -0.0656 -0.0733
   64loPI   C3B 1023   6.327  17.239   9.403  0.2099 -0.3422 -0.0303
   64loPI   C4B 1024   6.215  17.336   9.053 -0.2240  0.2373  0.0992
   65loPI    C1 1025  10.392  15.087  11.390 -0.1548  0.2053 -0.1286
   65loPI    C2 1026  10.596  15.330  11.634  0.1270 -0.0974 -0.0555
   65loPI    C3 1027  10.220  15.226  11.724  0.0838  0.1264  0.0299
   65loPI   PO4 1028  10.374  15.164  11.219  0.0714 -0.3396  0.2127
   65loPI   GL1 1029  10.485  15.418  10.794 -0.0049 -0.0168  0.0260
   65loPI   GL2 1030  10.855  15.398  10.687  0.0537 -0.0945 -0.2067
   65loPI   C1A 1031  10.485  15.426  10.288 -0.2070  0.2409 -0.2568
   65loPI   C2A 1032  10.357  15.448   9.857  0.0949 -0.0447 -0.1254
   65loPI   C3A 1033  10.390  15.517   9.459 -0.0014  0.1171 -0.1983
   65loPI   C4A 1034  10.365  15.442   9.085 -0.2283  0.0081  0.1266
   65loPI   C5A 1035  10.466  15.542   8.671  0.1837  0.1501 -0.2405
   65loPI   C6A 1036  10.447  15.372   8.242  0.1145 -0.2305 -0.0240
   65loPI   C1B 1037  10.969  15.419  10.276 -0.0148 -0.0527  0.0176
   65loPI   C2B 1038  10.930  15.464   9.825  0.1468  0.1760  0.2578
   65loPI   C3B 1039  10.931  15.516   9.420  0.1654  0.1409  0.1363
   65loPI   C4B 1040  10.924  15.610   8.941  0.0369  0.2463  0.1350
   66loPI    C1 1041  14.190   4.143  10.976 -0.0961 -0.0424 -0.1266
   66loPI    C2 1042  14.363   4.499  11.035  0.0425 -0.1172 -0.0767
   66loPI    C3 1043  14.160   4.323  11.332  0.3356 -0.2743  0.0357
   66loPI   PO4 1044  14.051   4.219  10.741  0.4005  0.1961  0.0174
   66loPI   GL1 1045  14.247   4.396  10.443  0.0495 -0.0973  0.0133
   66loPI   GL2 1046  13.927   4.585  10.337  0.1015  0.0409 -0.2882
   66loPI   C1A 1047  14.403   4.564  10.059 -0.5120 -0.2492 -0.0771
   66loPI   C2A 1048  14.492   4.674   9.760  0.0705 -0.1407  0.0175
   66loPI   C3A 1049  14.459   4.718   9.395 -0.0680 -0.2223 -0.0541
   66loPI   C4A 1050  14.417   4.729   8.971 -0.2893  0.2065  0.1670
   66loPI   C5A 1051  14.594   4.828   8.586 -0.0119  0.1628 -0.1100
   66loPI   C6A 1052  14.900   5.033   8.331 -0.0608  0.2237 -0.2406
   66loPI   C1B 1053  13.666   4.364  10.042  0.0747 -0.1127  0.0863
   66loPI   C2B 1054  13.687   4.216   9.731  0.2186  0.0326  0.3332
   66loPI   C3B 1055  13.508   4.339   9.316 -0.1594 -0.1092  0.0679
   66loPI   C4B 1056  13.243   4.591   9.165 -0.0555 -0.0762  0.3521
   67loPI    C1 1057  14.680  12.046  11.481  0.0089 -0.0162  0.0045
   67loPI    C2 1058  14.486  11.696  11.485 -0.0853  0.0369  0.3250
   67loPI    C3 1059  14.367  11.994  11.724  0.0319  0.2693  0.0984
   67loPI   PO4 1060  14.706  12.077  11.162  0.2059 -0.1191  0.1545
   67loPI   GL1 1061  14.471  12.157  10.821  0.3234 -0.1156  0.1701
   67loPI   GL2 1062  14.253  12.402  10.862 -0.0177 -0.0789 -0.0540
   67loPI   C1A 1063  14.661  12.371  10.484 -0.0409 -0.0495 -0.0731
   67loPI   C2A 1064  14.714  12.337  10.048 -0.0319 -0.2538 -0.0638
   67loPI   C3A 1065  14.699  12.347   9.681 -0.2222 -0.1667  0.0176
   67loPI   C4A 1066  14.726  12.337   9.272 -0.0962  0.0536 -0.0991
   67loPI   C5A 1067  14.633  12.375   8.874 -0.4008 -0.1318 -0.0124
   67loPI   C6A 1068  14.671  12.864   8.723 -0.0871  0.1059 -0.0403
   67loPI   C1B 1069  14.146  12.303  10.389 -0.3112 -0.0077 -0.3951
   67loPI   C2B 1070  14.151  12.273  10.032  0.1592 -0.4377 -0.0581
   67loPI   C3B 1071  14.175  12.321   9.626  0.0015  0.2358 -0.1316
   67loPI   C4B 1072  14.186  12.333   9.129 -0.1909  0.0287 -0.0042
   68loPI    C1 1073  10.830  17.722  10.939 -0.0487 -0.6725  0.0643
   68loPI    C2 1074  11.070  17.933  11.180 -0.2680 -0.1252 -0.1783
   68loPI    C3 1075  10.796  17.686  11.336 -0.1070 -0.1216  0.1171
   68loPI   PO4 1076  11.091  17.623  10.730 -0.1196  0.0389  0.0058
   68loPI   GL1 1077  11.150  17.638  10.339  0.0570  0.0359  0.1968
   68loPI   GL2 1078  11.427  17.503  10.295  0.2383 -0.0071 -0.2618
   68loPI   C1A 1079  11.030  17.704   9.969  0.2032  0.0828  0.1076
   68loPI   C2A 1080  11.155  17.658   9.520  0.0099  0.0119  0.2117
   68loPI   C3A 1081  11.204  17.766   9.134  0.0127 -0.1887  0.1585
   68loPI   C4A 1082  11.078  18.143   8.984 -0.1536  0.2502 -0.0747
   68loPI   C5A 1083  11.044  18.482   8.767 -0.0260 -0.0293 -0.3961
   68loPI   C6A 1084  10.954  18.999   8.746  0.2246 -0.1577  0.0610
   68loPI   C1B 1085  11.308  17.219  10.027 -0.1556 -0.1004 -0.2187
   68loPI   C2B 1086  11.381  17.204   9.549  0.3921  0.0795  0.0766
   68loPI   C3B 1087  11.413  17.292   9.168 -0.2102 -0.3930 -0.0629
   68loPI   C4B 1088  11.529  17.324   8.788  0.0468  0.2283  0.3189
   69loPI    C1 1089   9.287  12.604  11.984 -0.0523 -0.1559  0.0483
   69loPI    C2 1090   9.212  12.237  12.126  0.0468 -0.1370  0.1507
   69loPI    C3 1091   9.151  12.558  12.358  0.0465 -0.0947  0.0920
   69loPI   PO4 1092   9.188  12.644  11.671 -0.3938 -0.2088  0.4145
   69loPI   GL1 1093   9.211  12.519  11.252 -0.2087  0.2097 -0.0428
   69loPI   GL2 1094   9.094  12.710  10.964  0.1161  0.0737 -0.3254
   69loPI   C1A 1095   9.130  12.224  10.844  0.2747  0.2165  0.1473
   69loPI   C2A 1096   9.132  12.182  10.385 -0.1177 -0.0714  0.1522
   69loPI   C3A 1097   9.077  12.283   9.992 -0.2937 -0.0953 -0.0224
   69loPI   C4A 1098   9.017  12.352   9.540  0.0233 -0.0875 -0.0109
   69loPI   C5A 1099   8.959  12.421   9.107 -0.2069 -0.0494  0.2689
   69loPI   C6A 1100   8.607  12.199   8.859  0.1951  0.1226 -0.1570
   69loPI   C1B 1101   8.916  12.655  10.548 -0.2206  0.0481  0.0896
   69loPI   C2B 1102   8.839  12.777  10.084  0.0007  0.0262 -0.0634
   69loPI   C3B 1103   8.757  12.792   9.606 -0.2716 -0.2648 -0.0026
   69loPI   C4B 1104   8.800  12.899   9.125 -0.1440  0.0329  0.0247
   70loPI    C1 1105  12.595  13.734  11.682  0.1375 -0.1665 -0.2439
   70loPI    C2 1106  12.344  13.675  11.988  0.1645 -0.0268 -0.1940
   70loPI    C3 1107  12.678  13.457  11.958  0.2133  0.0298 -0.0669
   70loPI   PO4 1108  12.339  13.766  11.405 -0.0491 -0.1597 -0.0516
   70loPI   GL1 1109  12.179  13.709  10.914 -0.0592  0.0133 -0.3536
   70loPI   GL2 1110  11.924  13.743  10.696 -0.0349 -0.1542 -0.0018
   70loPI   C1A 1111  12.366  13.660  10.625 -0.3351  0.0714  0.2336
   70loPI   C2A 1112  12.467  13.684  10.240  0.1949 -0.1789 -0.0909
   70loPI   C3A 1113  12.470  13.669   9.800 -0.0271 -0.0139  0.0370
   70loPI   C4A 1114  12.509  13.660   9.415  0.2608  0.4090  0.0017
   70loPI   C5A 1115  12.456  13.647   8.960  0.1159  0.0324 -0.1414
   70loPI   C6A 1116  12.220  13.525   8.650 -0.0147 -0.2049  0.0643
   70loPI   C1B 1117  11.907  13.670  10.250 -0.0416  0.0973  0.0321
   70loPI   C2B 1118  11.932  13.698   9.841 -0.2336  0.1380  0.0872
   70loPI   C3B 1119  11.918  13.684   9.452 -0.2433  0.2520 -0.1797
   70loPI   C4B 1120  11.898  13.696   9.016  0.0674  0.1097  0.0877
   71loPI    C1 1121  16.376   5.006  11.373 -0.1228 -0.0547  0.1226
   71loPI    C2 1122  16.264   4.774  11.678 -0.0530 -0.1293  0.0918
   71loPI    C3 1123  16.219   5.170  11.702 -0.2313 -0.1504  0.1192
   71loPI   PO4 1124  16.238   4.941  11.169  0.2513  0.2369 -0.2012
   71loPI   GL1 1125  16.218   4.987  10.737 -0.2441 -0.0045 -0.0064
   71loPI   GL2 1126  16.373   4.665  10.683  0.2025  0.1382  0.1189
   71loPI   C1A 1127  16.226   5.046  10.305  0.1181 -0.0058 -0.0023
   71loPI   C2A 1128  16.171   5.107  10.008  0.0166 -0.2332 -0.2108
   71loPI   C3A 1129  16.341   5.132   9.657  0.0234  0.0103  0.2713
   71loPI   C4A 1130  16.227   5.154   9.334 -0.5797 -0.1271  0.1324
   71loPI   C5A 1131  16.381   5.172   8.928  0.1789 -0.1990 -0.0424
   71loPI   C6A 1132  16.414   5.310   8.532  0.0923 -0.2155 -0.1367
   71loPI   C1B 1133  16.509   4.652  10.219  0.1361  0.2154  0.2158
   71loPI   C2B 1134  16.502   4.682   9.901  0.1922 -0.1099 -0.0769
   71loPI   C3B 1135  16.518   4.684   9.490  0.0535 -0.1131  0.2886
   71loPI   C4B 1136  16.612   4.702   8.986  0.0943 -0.3526  0.1447
   72loPI    C1 1137   0.153   3.863  11.381 -0.1706 -0.0646 -0.0909
   72loPI    C2 1138   0.374   3.530  11.389  0.2740  0.2243  0.0007
   72loPI    C3 1139   0.192   3.658  11.722  0.2318  0.1574  0.0035
   72loPI   PO4 1140  -0.005   3.786  11.104  0.0203  0.0534 -0.1037
   72loPI   GL1 1141   0.095   3.779  10.681  0.0705 -0.0802  0.0424
   72loPI   GL2 1142   0.007   3.436  10.646 -0.1058  0.1374  0.0561
   72loPI   C1A 1143   0.079   3.753  10.279  0.0054  0.1525 -0.0481
   72loPI   C2A 1144   0.133   3.756   9.871  0.2185  0.0796 -0.1135
   72loPI   C3A 1145   0.114   3.757   9.335  0.0307  0.1475  0.0292
   72loPI   C4A 1146   0.082   3.737   8.924  0.2021 -0.2987  0.0219
   72loPI   C5A 1147   0.002   4.147   8.563 -0.0877 -0.0940 -0.5649
   72loPI   C6A 1148   0.227   4.292   8.342  0.2562 -0.3038 -0.0018
   72loPI   C1B 1149  -0.077   3.193  10.337  0.0777 -0.2492 -0.2061
   72loPI   C2B 1150  -0.186   3.319   9.882  0.0878  0.0985  0.0435
   72loPI   C3B 1151  -0.081   3.311   9.418 -0.2676  0.0389  0.0849
   72loPI   C4B 1152  -0.202   3.348   8.938 -0.1391 -0.0531 -0.1726
   73loPI    C1 1153  15.744   4.016  11.390  0.0512 -0.0738 -0.2101
   73loPI    C2 1154  15.482   3.930  11.100 -0.3454  0.4604 -0.0266
   73loPI    C3 1155  15.419   3.799  11.473  0.0057  0.0323 -0.1085
   73loPI   PO4 1156  15.964   4.010  11.236  0.1919 -0.0937 -0.1579
   73loPI   GL1 1157  15.918   4.170  10.803  0.0632 -0.0401  0.2276
   73loPI   GL2 1158  15.910   4.464  10.870 -0.0420 -0.0492 -0.1820
   73loPI   C1A 1159  15.805   4.109  10.350 -0.0895 -0.0951  0.1863
   73loPI   C2A 1160  15.762   4.127   9.937 -0.1360  0.2586  0.0910
   73loPI   C3A 1161  15.808   4.282   9.529  0.1082  0.0599 -0.0251
   73loPI   C4A 1162  15.759   4.294   9.132  0.3529 -0.1360  0.2515
   73loPI   C5A 1163  15.672   4.276   8.726 -0.1168 -0.1867  0.1799
   73loPI   C6A 1164  15.278   4.085   8.495 -0.0081  0.0641  0.2493
   73loPI   C1B 1165  15.965   4.611  10.464 -0.0695  0.2776  0.0027
   73loPI   C2B 1166  16.005   4.655  10.005  0.1107 -0.3195 -0.1202
   73loPI   C3B 1167  16.009   4.716   9.541 -0.0322  0.0656 -0.0348
   73loPI   C4B 1168  16.038   4.679   9.239 -0.3556  0.0583  0.2789
   74loPI    C1 1169   4.635  17.272  11.080 -0.1868  0.0576 -0.1670
   74loPI    C2 1170   4.480  17.330  11.444 -0.1123  0.0912 -0.1403
   74loPI    C3 1171   4.425  16.981  11.257 -0.1160  0.0590 -0.0795
   74loPI   PO4 1172   4.582  17.437  10.976  0.1236  0.2714 -0.0436
   74loPI   GL1 1173   4.438  17.815  10.771 -0.0460  0.2386 -0.1058
   74loPI   GL2 1174   4.227  17.656  10.677  0.0041  0.2013 -0.0168
   74loPI   C1A 1175   4.584  17.707  10.285  0.1986  0.1573  0.0974
   74loPI   C2A 1176   4.439  17.640   9.893  0.2519  0.2308  0.0876
   74loPI   C3A 1177   4.563  17.713   9.505  0.1771  0.2421 -0.4684
   74loPI   C4A 1178   4.448  17.760   9.069 -0.0786  0.2511  0.0160
   74loPI   C5A 1179   4.439  17.876   8.623  0.1536  0.0869 -0.0810
   74loPI   C6A 1180   4.456  17.450   8.499 -0.0821  0.0488  0.2603
   74loPI   C1B 1181   4.327  17.257  10.406 -0.1718 -0.1043 -0.0399
   74loPI   C2B 1182   4.238  17.186   9.899  0.1817 -0.0175  0.0821
   74loPI   C3B 1183   4.229  17.221   9.461  0.0631  0.0826 -0.2538
   74loPI   C4B 1184   4.229  17.252   8.957 -0.2452 -0.3830  0.1268
   75loPI    C1 1185  10.455   7.748  11.523 -0.0778  0.1346  0.2292
   75loPI    C2 1186  10.708   7.467  11.654 -0.2695  0.0282  0.3762
   75loPI    C3 1187  10.779   7.852  11.735  0.0366  0.0329  0.1061
   75loPI   PO4 1188  10.418   7.752  11.287  0.1588 -0.0705 -0.1958
   75loPI   GL1 1189  10.562   7.845  10.860 -0.2908 -0.1641  0.5441
   75loPI   GL2 1190  10.410   8.016  10.636  0.0899  0.0471 -0.2238
   75loPI   C1A 1191  10.729   7.802  10.351  0.2314 -0.2669  0.2055
   75loPI   C2A 1192  10.681   7.785   9.988  0.0329 -0.1547 -0.2544
   75loPI   C3A 1193  10.677   7.883   9.549  0.2062  0.1310 -0.0265
   75loPI   C4A 1194  10.653   7.896   9.045  0.1410  0.1144  0.0197
   75loPI   C5A 1195  10.553   7.973   8.643  0.0696  0.0475  0.0662
   75loPI   C6A 1196  10.682   7.826   8.263  0.1900  0.0678 -0.1466
   75loPI   C1B 1197  10.375   8.227  10.250  0.2179 -0.2797  0.0180
   75loPI   C2B 1198  10.393   8.201   9.846 -0.0693 -0.1305 -0.3638
   75loPI   C3B 1199  10.305   8.328   9.542 -0.1121  0.2724  0.4491
   75loPI   C4B 1200  10.296   8.338   9.140  0.1944 -0.1814  0.0227
   76loPI    C1 1201  13.592   0.304  11.324 -0.1224  0.2100  0.0222
   76loPI    C2 1202  13.375   0.571  11.528 -0.6362 -0.2843  0.1481
   76loPI    C3 1203  13.562   0.275  11.722  0.0884  0.0728  0.0299
   76loPI   PO4 1204  13.713   0.364  11.141  0.1072  0.1725  0.1613
   76loPI   GL1 1205  13.723   0.249  10.666 -0.0214  0.0276 -0.1343
   76loPI   GL2 1206  13.450   0.226  10.482 -0.3706 -0.3186 -0.2812
   76loPI   C1A 1207  13.903   0.281  10.195  0.0745  0.0160 -0.1882
   76loPI   C2A 1208  14.001   0.180   9.756  0.0457 -0.3245 -0.0128
   76loPI   C3A 1209  13.907   0.198   9.345  0.1214 -0.3593  0.1416
   76loPI   C4A 1210  13.920   0.178   8.926 -0.0537 -0.2109 -0.3501
   76loPI   C5A 1211  14.023  -0.085   8.520  0.1339 -0.0390  0.1348
   76loPI   C6A 1212  13.753  -0.223   8.184 -0.1596 -0.3142  0.0217
   76loPI   C1B 1213  13.478   0.204  10.058 -0.1721  0.0374  0.0322
   76loPI   C2B 1214  13.449   0.217   9.564  0.0861 -0.3162 -0.2477
   76loPI   C3B 1215  13.378   0.181   9.147 -0.4138  0.0827  0.3053
   76loPI   C4B 1216  13.371   0.248   8.721  0.0257 -0.2484 -0.1424
   77loPI    C1 1217   6.449   3.114  11.206 -0.0223  0.0569  0.0757
   77loPI    C2 1218   6.330   3.020  11.576  0.4559  0.0809  0.2420
   77loPI    C3 1219   6.688   3.189  11.517  0.3275  0.2064 -0.2213
   77loPI   PO4 1220   6.252   3.242  11.082  0.1063 -0.0625 -0.1501
   77loPI   GL1 1221   6.184   3.305  10.620 -0.1721  0.1658 -0.0245
   77loPI   GL2 1222   6.288   2.937  10.555 -0.0085  0.2719  0.3129
   77loPI   C1A 1223   6.021   3.360  10.231  0.2905 -0.3891 -0.1241
   77loPI   C2A 1224   6.012   3.383   9.743  0.0901  0.3270 -0.2327
   77loPI   C3A 1225   5.992   3.336   9.400  0.0656  0.2775  0.1445
   77loPI   C4A 1226   6.079   3.350   9.007  0.0544  0.1463  0.1381
   77loPI   C5A 1227   6.076   3.138   8.641  0.0955  0.0932  0.0980
   77loPI   C6A 1228   6.123   3.131   8.266  0.0528  0.0543  0.3790
   77loPI   C1B 1229   6.318   2.856  10.099  0.1626 -0.1121  0.1408
   77loPI   C2B 1230   6.236   2.893   9.620  0.0269  0.1000  0.0859
   77loPI   C3B 1231   6.212   2.907   9.254  0.0299  0.1823  0.1906
   77loPI   C4B 1232   6.278   2.707   8.898  0.3133 -0.0689  0.0769
   78loPI    C1 1233  17.277  17.569  11.442 -0.0800  0.0134 -0.0529
   78loPI    C2 1234  17.280  17.372  11.790  0.0191 -0.1034 -0.1195
   78loPI    C3 1235  16.991  17.638  11.714 -0.0313 -0.1140  0.0313
   78loPI   PO4 1236  17.275  17.453  11.230  0.1396 -0.2576 -0.0455
   78loPI   GL1 1237  17.146  17.558  10.843 -0.0840  0.0936 -0.3475
   78loPI   GL2 1238  16.874  17.372  10.721 -0.1279 -0.1865 -0.1909
   78loPI   C1A 1239  17.206  17.662  10.438  0.3282 -0.1815 -0.3998
   78loPI   C2A 1240  17.187  17.747  10.037 -0.4365 -0.0419  0.1344
   78loPI   C3A 1241  17.354  17.711   9.625 -0.2778  0.1217 -0.1396
   78loPI   C4A 1242  17.319  17.669   9.230  0.0417 -0.0892  0.1583
   78loPI   C5A 1243  17.337  17.628   8.798 -0.1305  0.0273  0.1042
   78loPI   C6A 1244  17.481  17.344   8.475  0.1508  0.0700  0.0763
   78loPI   C1B 1245  16.968  17.212  10.274 -0.0103  0.3521 -0.1950
   78loPI   C2B 1246  17.114  17.242   9.845 -0.2011  0.0625  0.1562
   78loPI   C3B 1247  17.174  17.238   9.388 -0.0647  0.1966  0.1188
   78loPI   C4B 1248  17.511  17.213   9.012 -0.0937 -0.0772  0.2077
   79loPI    C1 1249   6.192  14.623  11.618  0.1738 -0.2104 -0.2917
   79loPI    C2 1250   6.561  14.515  11.728  0.1304 -0.2148 -0.1496
   79loPI    C3 1251   6.276  14.564  12.004  0.1122  0.1242 -0.2241
   79loPI   PO4 1252   6.230  14.534  11.333 -0.0351  0.0761 -0.0452
   79loPI   GL1 1253   6.419  14.608  10.959 -0.2261 -0.1167  0.2318
   79loPI   GL2 1254   6.445  14.874  10.852  0.2108  0.2450 -0.0555
   79loPI   C1A 1255   6.336  14.473  10.478  0.1309 -0.2349 -0.0842
   79loPI   C2A 1256   6.257  14.576  10.082 -0.0303  0.0843  0.0945
   79loPI   C3A 1257   6.357  14.603   9.631 -0.0486  0.0705 -0.3039
   79loPI   C4A 1258   6.385  14.552   9.197 -0.2401 -0.0362 -0.3102
   79loPI   C5A 1259   6.537  14.683   8.738  0.0805  0.0548  0.2120
   79loPI   C6A 1260   6.766  14.392   8.529  0.2406  0.1103  0.0943
   79loPI   C1B 1261   6.548  14.957  10.305 -0.0052 -0.0651  0.3357
   79loPI   C2B 1262   6.549  14.983   9.855  0.0990  0.0235 -0.1990
   79loPI   C3B 1263   6.622  15.048   9.405 -0.0002 -0.2209 -0.3350
   79loPI   C4B 1264   6.728  15.086   9.010 -0.1242 -0.2309 -0.2452
   80loPI    C1 1265   6.007  17.146  11.246  0.1659  0.0169  0.0049
   80loPI    C2 1266   6.237  17.108  11.571 -0.0320  0.1235  0.1589
   80loPI    C3 1267   5.843  17.040  11.595  0.0022 -0.2045 -0.1364
   80loPI   PO4 1268   6.046  17.039  11.054 -0.0282 -0.3048 -0.2290
   80loPI   GL1 1269   5.890  16.691  10.769  0.6628  0.2734 -0.3662
   80loPI   GL2 1270   6.239  16.730  10.596  0.0264  0.0676 -0.1055
   80loPI   C1A 1271   5.705  16.744  10.310 -0.3787  0.1172  0.0134
   80loPI   C2A 1272   5.568  16.818   9.847 -0.1154 -0.0140  0.1874
   80loPI   C3A 1273   5.506  16.835   9.429 -0.5642  0.3612 -0.1436
   80loPI   C4A 1274   5.576  16.783   9.018 -0.2047  0.2660 -0.2324
   80loPI   C5A 1275   5.317  16.859   8.603 -0.4907  0.2568 -0.1236
   80loPI   C6A 1276   5.285  16.796   8.128  0.2467  0.1172  0.2621
   80loPI   C1B 1277   6.130  16.740  10.099 -0.2661 -0.0193 -0.0936
   80loPI   C2B 1278   6.105  16.880   9.769 -0.0305 -0.3165 -0.0779
   80loPI   C3B 1279   5.992  16.844   9.332  0.0658 -0.3161 -0.0057
   80loPI   C4B 1280   5.994  16.924   8.906 -0.1357  0.0717  0.3244
   81loPI    C1 1281   6.378   6.702  11.760 -0.0028 -0.0591  0.0136
   81loPI    C2 1282   6.776   6.675  11.733  0.0087 -0.0077  0.1269
   81loPI    C3 1283   6.600   7.034  11.735 -0.0417 -0.0316  0.0313
   81loPI   PO4 1284   6.260   6.668  11.436  0.0408  0.0674 -0.1445
   81loPI   GL1 1285   6.076   6.664  10.999 -0.1449  0.1541  0.0135
   81loPI   GL2 1286   6.394   6.545  10.855  0.0561  0.0157  0.1081
   81loPI   C1A 1287   6.063   6.911  10.632  0.1180 -0.2680  0.0365
   81loPI   C2A 1288   6.041   6.963  10.206  0.0474  0.1321 -0.1539
   81loPI   C3A 1289   5.947   6.944   9.840 -0.3387 -0.0192  0.2509
   81loPI   C4A 1290   5.963   6.949   9.283  0.0055  0.3859 -0.1334
   81loPI   C5A 1291   5.961   6.872   8.863  0.5347 -0.0157  0.2222
   81loPI   C6A 1292   5.810   6.527   8.553  0.1574  0.2402  0.2809
   81loPI   C1B 1293   6.341   6.490  10.469  0.0577 -0.0813 -0.0362
   81loPI   C2B 1294   6.298   6.495  10.132 -0.0164  0.0479  0.4306
   81loPI   C3B 1295   6.219   6.581   9.620  0.0987 -0.1366  0.3061
   81loPI   C4B 1296   6.278   6.527   9.174 -0.2220 -0.1107 -0.0931
   82loPI    C1 1297   0.778   3.658  11.651  0.0281  0.2995 -0.0344
   82loPI    C2 1298   0.985   3.354  11.808 -0.0647  0.1443 -0.2092
   82loPI    C3 1299   0.909   3.678  12.029 -0.2080 -0.0768  0.0729
   82loPI   PO4 1300   0.882   3.759  11.322  0.0872  0.0287  0.1650
   82loPI   GL1 1301   0.938   3.961  10.879  0.0070 -0.1310 -0.0426
   82loPI   GL2 1302   1.047   3.613  10.769  0.0535 -0.0957 -0.2426
   82loPI   C1A 1303   1.048   4.116  10.580 -0.3102  0.0814  0.2501
   82loPI   C2A 1304   0.882   4.213  10.150  0.4108 -0.0147  0.0703
   82loPI   C3A 1305   0.795   4.181   9.742 -0.0276  0.0591  0.1052
   82loPI   C4A 1306   0.855   4.252   9.370 -0.1275 -0.1704  0.4115
   82loPI   C5A 1307   0.853   4.322   8.919 -0.0543  0.1030 -0.0030
   82loPI   C6A 1308   0.946   4.010   8.621  0.2277 -0.0127 -0.0188
   82loPI   C1B 1309   1.139   3.631  10.353 -0.0684  0.2729 -0.4656
   82loPI   C2B 1310   1.139   3.696   9.966  0.3443  0.0345  0.0369
   82loPI   C3B 1311   1.046   3.727   9.641  0.0851 -0.3193  0.0313
   82loPI   C4B 1312   1.169   3.791   9.243  0.2584  0.2801  0.3008
   83loPI    C1 1313   3.050  12.554  11.382 -0.0634 -0.1723 -0.0248
   83loPI    C2 1314   3.405  12.582  11.565 -0.1257 -0.1047  0.0870
   83loPI    C3 1315   3.088  12.438  11.763 -0.1835 -0.0729  0.0181
   83loPI   PO4 1316   3.167  12.565  11.104 -0.0946 -0.1453  0.0348
   83loPI   GL1 1317   3.497  12.645  10.801 -0.3235 -0.0885  0.2686
   83loPI   GL2 1318   3.767  12.486  10.695 -0.3554  0.2281  0.0652
   83loPI   C1A 1319   3.477  12.983  10.510  0.0205 -0.2330  0.0648
   83loPI   C2A 1320   3.372  13.091   9.988 -0.0347  0.2691  0.0541
   83loPI   C3A 1321   3.398  13.224   9.589  0.1027  0.1643 -0.1947
   83loPI   C4A 1322   3.390  13.252   9.126  0.1074 -0.0218  0.0109
   83loPI   C5A 1323   3.394  13.215   8.670  0.1693  0.1625 -0.2257
   83loPI   C6A 1324   3.186  12.905   8.401  0.0607 -0.1305 -0.1534
   83loPI   C1B 1325   3.649  12.543  10.292  0.1924 -0.0645 -0.1294
   83loPI   C2B 1326   3.686  12.700   9.916  0.2083 -0.4155 -0.0884
   83loPI   C3B 1327   3.608  12.744   9.454 -0.2065  0.0614  0.1407
   83loPI   C4B 1328   3.701  12.875   9.061  0.0793  0.1117 -0.1486
   84loPI    C1 1329   4.554   9.209  11.611 -0.0979 -0.0331  0.1726
   84loPI    C2 1330   4.652   9.502  11.864 -0.2479  0.1265  0.0486
   84loPI    C3 1331   4.926   9.232  11.754 -0.1102  0.2162  0.1680
   84loPI   PO4 1332   4.440   9.285  11.386  0.1995 -0.1058 -0.1115
   84loPI   GL1 1333   4.397   9.128  11.030  0.0565 -0.3136  0.1521
   84loPI   GL2 1334   4.526   9.447  10.919  0.3269  0.0965 -0.1466
   84loPI   C1A 1335   4.361   9.029  10.628 -0.0042 -0.2561 -0.3236
   84loPI   C2A 1336   4.228   9.045  10.211 -0.0727 -0.0238 -0.2641
   84loPI   C3A 1337   4.207   9.090   9.821  0.0729 -0.1195  0.1092
   84loPI   C4A 1338   4.180   9.269   9.365 -0.3482 -0.0921 -0.1355
   84loPI   C5A 1339   4.025   9.571   9.031 -0.1436 -0.0877  0.3789
   84loPI   C6A 1340   3.668   9.798   8.964 -0.2265  0.1508  0.0121
   84loPI   C1B 1341   4.491   9.536  10.553  0.1629  0.0560  0.4248
   84loPI   C2B 1342   4.444   9.604  10.133  0.1699  0.4993 -0.0824
   84loPI   C3B 1343   4.496   9.499   9.757  0.0795  0.0483 -0.1901
   84loPI   C4B 1344   4.456   9.688   9.329  0.2297  0.2386  0.1099
   85loPI    C1 1345  13.936   3.043  11.011 -0.2135  0.1302  0.1444
   85loPI    C2 1346  14.082   3.124  11.374 -0.1962  0.0279  0.1606
   85loPI    C3 1347  13.778   2.866  11.334 -0.2073  0.0498  0.1040
   85loPI   PO4 1348  13.985   3.209  10.871 -0.0478  0.0874 -0.0757
   85loPI   GL1 1349  13.823   3.290  10.479 -0.0232 -0.0964  0.2751
   85loPI   GL2 1350  13.693   3.564  10.222  0.3020 -0.3121 -0.3395
   85loPI   C1A 1351  13.943   2.882  10.234 -0.0582  0.1862 -0.1611
   85loPI   C2A 1352  14.104   2.804   9.728 -0.1714  0.0038  0.1080
   85loPI   C3A 1353  14.214   2.858   9.251  0.0398  0.0565 -0.2133
   85loPI   C4A 1354  14.330   2.796   8.777  0.1033  0.1545  0.0804
   85loPI   C5A 1355  14.120   2.821   8.356  0.1920  0.2024 -0.2102
   85loPI   C6A 1356  14.200   3.116   7.983 -0.0105 -0.0398 -0.2479
   85loPI   C1B 1357  13.854   3.786   9.948  0.1688  0.1377 -0.0931
   85loPI   C2B 1358  13.864   3.666   9.525  0.1124  0.0438 -0.1493
   85loPI   C3B 1359  13.960   3.807   9.097  0.0998 -0.2738  0.2977
   85loPI   C4B 1360  13.968   3.922   8.691  0.0918  0.0504 -0.3111
   86loPI    C1 1361   3.557   2.163  11.517  0.0399 -0.4607  0.1577
   86loPI    C2 1362   3.205   2.287  11.662  0.1749  0.1104  0.0207
   86loPI    C3 1363   3.472   2.114  11.905 -0.1122 -0.1340  0.1683
   86loPI   PO4 1364   3.482   2.042  11.327 -0.0233 -0.1442 -0.0904
   86loPI   GL1 1365   3.488   1.986  10.800 -0.3921 -0.1263 -0.1841
   86loPI   GL2 1366   3.241   2.053  10.860  0.0130  0.2269 -0.2700
   86loPI   C1A 1367   3.420   2.355  10.495  0.2214 -0.4247  0.0617
   86loPI   C2A 1368   3.502   2.438  10.141  0.0327 -0.1117 -0.0725
   86loPI   C3A 1369   3.427   2.457   9.729 -0.1523 -0.0866 -0.1227
   86loPI   C4A 1370   3.459   2.332   9.375 -0.0975  0.0942  0.0392
   86loPI   C5A 1371   3.473   2.385   8.938  0.0348 -0.1851  0.2635
   86loPI   C6A 1372   3.216   2.565   8.523 -0.1256 -0.0089  0.1330
   86loPI   C1B 1373   3.112   1.880  10.506 -0.0374  0.1818  0.1378
   86loPI   C2B 1374   3.193   1.952  10.008  0.1526 -0.1568 -0.0651
   86loPI   C3B 1375   3.185   1.978   9.645 -0.0220  0.3764 -0.0064
   86loPI   C4B 1376   3.197   2.016   9.180 -0.0462  0.3262 -0.0759
   87loPI    C1 1377  11.351   9.058  11.488 -0.0688 -0.0422  0.0617
   87loPI    C2 1378  11.060   8.880  11.696 -0.0514  0.1199  0.2275
   87loPI    C3 1379  11.340   9.093  11.886  0.1166  0.0512  0.0597
   87loPI   PO4 1380  11.443   8.938  11.278  0.1536 -0.2398 -0.2506
   87loPI   GL1 1381  11.504   8.804  10.840 -0.0066 -0.0684  0.0015
   87loPI   GL2 1382  11.376   9.101  10.723 -0.0223 -0.3358 -0.2502
   87loPI   C1A 1383  11.678   8.657  10.451 -0.3330 -0.0589 -0.1585
   87loPI   C2A 1384  11.652   8.761  10.042 -0.2518 -0.2016  0.1656
   87loPI   C3A 1385  11.652   8.781   9.611 -0.1032 -0.0190  0.1180
   87loPI   C4A 1386  11.648   8.749   9.139 -0.0013  0.0766  0.3036
   87loPI   C5A 1387  11.683   8.750   8.731 -0.2749 -0.3702 -0.1083
   87loPI   C6A 1388  11.572   9.110   8.413 -0.1004 -0.0957  0.3340
   87loPI   C1B 1389  11.417   9.187  10.210  0.0419  0.1015  0.2372
   87loPI   C2B 1390  11.388   9.131   9.819 -0.0658  0.1079 -0.2042
   87loPI   C3B 1391  11.416   9.206   9.402  0.1485  0.0264 -0.2284
   87loPI   C4B 1392  11.416   9.184   8.993 -0.0715 -0.2774  0.0745
   88loPI    C1 1393  17.004  14.446  11.476 -0.2753 -0.1530 -0.0081
   88loPI    C2 1394  17.041  14.663  11.811 -0.1466  0.0318 -0.1400
   88loPI    C3 1395  17.324  14.398  11.712 -0.1960 -0.0397 -0.0916
   88loPI   PO4 1396  16.877  14.653  11.298  0.0456 -0.6943 -0.0822
   88loPI   GL1 1397  17.011  14.596  10.832 -0.2574  0.0280 -0.0008
   88loPI   GL2 1398  17.204  14.789  10.944 -0.2210 -0.0739 -0.1583
   88loPI   C1A 1399  17.095  14.551  10.403 -0.2454  0.0317  0.1702
   88loPI   C2A 1400  17.067  14.550   9.906 -0.2094  0.3633 -0.0574
   88loPI   C3A 1401  17.039  14.469   9.485 -0.0068 -0.0584 -0.0634
   88loPI   C4A 1402  17.003  14.519   9.094 -0.0376  0.0035 -0.1789
   88loPI   C5A 1403  17.133  14.800   8.666 -0.0296  0.3184 -0.1170
   88loPI   C6A 1404  17.009  15.139   8.312  0.0844  0.2698 -0.1839
   88loPI   C1B 1405  17.338  14.980  10.500 -0.0163 -0.0857  0.0359
   88loPI   C2B 1406  17.327  14.956  10.085  0.2616  0.0112 -0.0758
   88loPI   C3B 1407  17.293  14.977   9.575 -0.3224  0.2098  0.2389
   88loPI   C4B 1408  17.212  14.949   9.149 -0.1326  0.1454  0.1828
   89loPI    C1 1409  17.175   9.507  11.451  0.1644  0.0018  0.0904
   89loPI    C2 1410  17.375   9.369  11.768  0.2658  0.1651  0.0986
   89loPI    C3 1411  16.983   9.297  11.732  0.3032 -0.0649  0.1360
   89loPI   PO4 1412  17.307   9.466  11.253  0.0589 -0.1769 -0.2413
   89loPI   GL1 1413  17.194   9.393  10.882 -0.2704 -0.0305  0.3329
   89loPI   GL2 1414  17.405   9.172  10.883 -0.3797  0.4129  0.0951
   89loPI   C1A 1415  16.977   9.182  10.520 -0.0258  0.1903 -0.1009
   89loPI   C2A 1416  17.134   9.236  10.063  0.1690 -0.0077 -0.1573
   89loPI   C3A 1417  16.946   9.153   9.696 -0.0353  0.0341  0.0139
   89loPI   C4A 1418  16.998   9.155   9.199  0.0937  0.2043  0.2014
   89loPI   C5A 1419  17.009   9.131   8.789  0.0880 -0.2468 -0.0787
   89loPI   C6A 1420  17.024   9.284   8.478 -0.0010 -0.1327 -0.1401
   89loPI   C1B 1421  17.464   9.259  10.435  0.2671 -0.2363 -0.0524
   89loPI   C2B 1422  17.612   9.204  10.067 -0.1543 -0.1059 -0.1359
   89loPI   C3B 1423  17.587   9.175   9.624 -0.1608  0.2583  0.0479
   89loPI   C4B 1424  17.541   9.252   9.102 -0.2100  0.1335 -0.1795
   90loPI    C1 1425   8.527  14.826  11.608 -0.0326 -0.1629  0.0436
   90loPI    C2 1426   8.430  15.162  11.803 -0.0880 -0.1745  0.0361
   90loPI    C3 1427   8.717  14.924  11.946  0.0955 -0.0190 -0.0687
   90loPI   PO4 1428   8.306  14.851  11.393 -0.1598 -0.0172 -0.0704
   90loPI   GL1 1429   8.190  14.764  10.975  0.1676 -0.0270  0.4256
   90loPI   GL2 1430   8.407  14.517  10.832  0.0955  0.0810  0.1727
   90loPI   C1A 1431   8.193  15.003  10.585 -0.0625 -0.0066 -0.1644
   90loPI   C2A 1432   8.175  14.977  10.037  0.0397 -0.0913 -0.0591
   90loPI   C3A 1433   8.195  15.074   9.629  0.2793 -0.2871 -0.1583
   90loPI   C4A 1434   8.187  15.125   9.189  0.1768 -0.1493 -0.0535
   90loPI   C5A 1435   8.116  14.990   8.810 -0.2097  0.0159 -0.0085
   90loPI   C6A 1436   8.463  14.948   8.507  0.0321  0.1076  0.0706
   90loPI   C1B 1437   8.422  14.522  10.433  0.2768  0.0264  0.2028
   90loPI   C2B 1438   8.351  14.556   9.981  0.3274 -0.0655 -0.0244
   90loPI   C3B 1439   8.457  14.670   9.606 -0.3147  0.0545 -0.2557
   90loPI   C4B 1440   8.332  14.549   9.249  0.0573 -0.1516 -0.1734
   91loPI    C1 1441  15.704  16.160  11.905 -0.0767 -0.1402  0.4186
   91loPI    C2 1442  15.336  16.216  12.052 -0.1064 -0.0949  0.3274
   91loPI    C3 1443  15.649  16.403  12.217 -0.1709  0.1430  0.1858
   91loPI   PO4 1444  15.594  16.140  11.621 -0.0790 -0.0390 -0.0848
   91loPI   GL1 1445  15.640  16.106  11.190 -0.3878  0.0479  0.0257
   91loPI   GL2 1446  15.652  15.858  11.030 -0.1860 -0.0558 -0.1495
   91loPI   C1A 1447  15.507  16.371  10.675 -0.1356 -0.0275 -0.3075
   91loPI   C2A 1448  15.495  16.354  10.224  0.0464 -0.1555 -0.2679
   91loPI   C3A 1449  15.623  16.355   9.808  0.2661 -0.1188  0.1675
   91loPI   C4A 1450  15.595  16.463   9.346  0.2477  0.1080 -0.2177
   91loPI   C5A 1451  15.567  16.391   9.012  0.1499  0.2037  0.1971
   91loPI   C6A 1452  15.511  16.156   8.737  0.1150  0.4134  0.2959
   91loPI   C1B 1453  15.740  15.891  10.569 -0.1293 -0.2341  0.0220
   91loPI   C2B 1454  15.741  15.939  10.122  0.1517 -0.0859  0.3603
   91loPI   C3B 1455  15.802  15.848   9.721 -0.1948  0.2218  0.2812
   91loPI   C4B 1456  15.865  16.014   9.373  0.0846 -0.0381  0.2775
   92loPI    C1 1457   4.810   1.271  11.525  0.0968 -0.0025 -0.2282
   92loPI    C2 1458   4.787   1.610  11.736  0.0915 -0.0600 -0.1357
   92loPI    C3 1459   5.114   1.382  11.760  0.0362 -0.1346 -0.0852
   92loPI   PO4 1460   4.619   1.371  11.269 -0.2087 -0.0034  0.1108
   92loPI   GL1 1461   4.609   1.214  10.821  0.2294 -0.0197 -0.0945
   92loPI   GL2 1462   4.507   1.440  10.683  0.0167  0.0935 -0.1531
   92loPI   C1A 1463   4.666   1.013  10.455  0.1621  0.0376 -0.1315
   92loPI   C2A 1464   4.783   1.034  10.062  0.4433 -0.0322 -0.0048
   92loPI   C3A 1465   4.825   1.042   9.674 -0.2932 -0.1791 -0.0354
   92loPI   C4A 1466   4.828   1.023   9.249  0.0893 -0.0125 -0.0906
   92loPI   C5A 1467   4.938   1.129   8.767 -0.1642 -0.1857 -0.0266
   92loPI   C6A 1468   5.283   1.076   8.463  0.2780 -0.0986 -0.0186
   92loPI   C1B 1469   4.434   1.458  10.247 -0.1278  0.3100 -0.0087
   92loPI   C2B 1470   4.493   1.513   9.854 -0.3820  0.1635  0.1315
   92loPI   C3B 1471   4.360   1.510   9.366  0.0494  0.0223 -0.0407
   92loPI   C4B 1472   4.511   1.354   8.931 -0.1571 -0.0177 -0.0326
   93loPI    C1 1473   8.972   7.385  11.486  0.2496  0.0386  0.1179
   93loPI    C2 1474   9.020   7.362  11.883 -0.0971 -0.0524  0.1578
   93loPI    C3 1475   8.652   7.387  11.727  0.0397  0.0533 -0.1559
   93loPI   PO4 1476   9.084   7.591  11.286  0.0784 -0.4090 -0.3012
   93loPI   GL1 1477   8.951   7.779  10.887 -0.3951 -0.2729 -0.1081
   93loPI   GL2 1478   9.201   7.583  10.783 -0.2914 -0.1611  0.1347
   93loPI   C1A 1479   8.599   7.816  10.536 -0.0334 -0.0735 -0.0196
   93loPI   C2A 1480   8.606   7.921  10.149  0.2182  0.0494  0.2657
   93loPI   C3A 1481   8.543   7.803   9.705 -0.1608 -0.0142 -0.1986
   93loPI   C4A 1482   8.552   7.812   9.255  0.0376  0.3086  0.0955
   93loPI   C5A 1483   8.485   7.903   8.855 -0.1097  0.3159 -0.1600
   93loPI   C6A 1484   8.777   7.987   8.605  0.0908  0.1632  0.0708
   93loPI   C1B 1485   9.180   7.774  10.320  0.2174 -0.1080  0.1053
   93loPI   C2B 1486   9.107   7.835   9.879  0.0347  0.0984 -0.0757
   93loPI   C3B 1487   9.046   7.808   9.471 -0.1233 -0.2222 -0.1235
   93loPI   C4B 1488   9.040   7.867   9.007 -0.1610 -0.0034  0.0236
   94loPI    C1 1489   4.018   2.302  11.446  0.0141 -0.1975 -0.0602
   94loPI    C2 1490   4.206   2.514  11.729  0.1643 -0.1077 -0.2254
   94loPI    C3 1491   3.975   2.204  11.832 -0.0350  0.1163  0.0172
   94loPI   PO4 1492   4.248   2.405  11.161  0.1595  0.0642 -0.1490
   94loPI   GL1 1493   4.275   2.410  10.779 -0.0134 -0.0686 -0.1113
   94loPI   GL2 1494   4.513   2.528  10.721  0.0076 -0.0691  0.0310
   94loPI   C1A 1495   3.971   2.415  10.446  0.0768 -0.1261  0.3583
   94loPI   C2A 1496   3.999   2.374  10.071  0.0702  0.0669 -0.1639
   94loPI   C3A 1497   3.969   2.447   9.640 -0.1862  0.0432 -0.2620
   94loPI   C4A 1498   3.896   2.506   9.271 -0.1401 -0.3918  0.1157
   94loPI   C5A 1499   3.943   2.359   8.834  0.0947 -0.0533  0.2277
   94loPI   C6A 1500   3.704   2.526   8.502 -0.0497  0.0106 -0.1387
   94loPI   C1B 1501   4.564   2.433  10.333 -0.0328 -0.2370 -0.0201
   94loPI   C2B 1502   4.481   2.451   9.887  0.2707 -0.0103 -0.0637
   94loPI   C3B 1503   4.476   2.470   9.410 -0.2208 -0.0604  0.0888
   94loPI   C4B 1504   4.422   2.342   8.990 -0.2043 -0.1646  0.0027
   95loPI    C1 1505   9.933   4.915  10.784 -0.2649 -0.1069 -0.1121
   95loPI    C2 1506   9.941   5.235  11.024  0.1555 -0.3323  0.1888
   95loPI    C3 1507   9.701   4.927  11.110 -0.0588 -0.2093  0.0412
   95loPI   PO4 1508   9.902   5.020  10.553  0.2981  0.2561  0.0297
   95loPI   GL1 1509   9.913   5.237  10.216 -0.2468 -0.0549  0.1054
   95loPI   GL2 1510  10.024   5.517  10.263 -0.1362 -0.0566 -0.3786
   95loPI   C1A 1511   9.800   5.067   9.805  0.1565 -0.0085  0.0137
   95loPI   C2A 1512   9.649   5.112   9.345  0.1404  0.2229 -0.1110
   95loPI   C3A 1513   9.730   5.166   8.885  0.2172  0.2928 -0.0106
   95loPI   C4A 1514  10.015   5.115   8.520  0.3089 -0.2676  0.0757
   95loPI   C5A 1515  10.121   5.525   8.279  0.0746 -0.4976  0.0602
   95loPI   C6A 1516  10.584   5.605   8.185  0.0106 -0.0871  0.3212
   95loPI   C1B 1517  10.002   5.710   9.829 -0.2387 -0.2126 -0.3447
   95loPI   C2B 1518   9.791   5.588   9.457 -0.2309 -0.1228  0.1898
   95loPI   C3B 1519   9.921   5.557   8.987 -0.1875 -0.0078 -0.1075
   95loPI   C4B 1520  10.282   5.497   8.833 -0.0736 -0.3498 -0.0921
   96loPI    C1 1521   1.288  16.125  11.744 -0.4906 -0.2153 -0.2702
   96loPI    C2 1522   1.045  15.996  12.033  0.0298 -0.1126  0.2324
   96loPI    C3 1523   1.299  16.296  12.105  0.0984 -0.0133 -0.3712
   96loPI   PO4 1524   1.110  16.221  11.551  0.0837 -0.2312  0.1758
   96loPI   GL1 1525   1.134  16.258  11.096 -0.0328  0.0329 -0.1790
   96loPI   GL2 1526   1.358  16.017  10.779 -0.0664 -0.1161  0.1050
   96loPI   C1A 1527   1.048  16.408  10.682 -0.4282 -0.0595  0.0797
   96loPI   C2A 1528   1.163  16.330  10.275 -0.0602  0.2151  0.2284
   96loPI   C3A 1529   1.106  16.295   9.809 -0.1848  0.1130 -0.2517
   96loPI   C4A 1530   1.146  16.298   9.335  0.2111  0.1691 -0.0694
   96loPI   C5A 1531   1.206  16.522   8.942 -0.2066 -0.0078  0.0117
   96loPI   C6A 1532   1.566  16.414   8.604 -0.0620  0.5001  0.1097
   96loPI   C1B 1533   1.404  15.864  10.395  0.0929 -0.0626  0.0884
   96loPI   C2B 1534   1.396  15.946  10.048  0.2813 -0.0617  0.0245
   96loPI   C3B 1535   1.363  15.909   9.526  0.0017  0.1110  0.0569
   96loPI   C4B 1536   1.347  15.884   9.055  0.2449 -0.0996 -0.2734
   97loPI    C1 1537  14.590  13.687  11.601 -0.0907  0.0685  0.1433
   97loPI    C2 1538  14.403  13.440  11.348  0.2812  0.0449 -0.1165
   97loPI    C3 1539  14.426  13.349  11.737 -0.1381 -0.0080 -0.0998
   97loPI   PO4 1540  14.750  13.804  11.294  0.1442  0.1751 -0.0976
   97loPI   GL1 1541  14.885  13.642  10.868 -0.0649  0.1765  0.1585
   97loPI   GL2 1542  14.639  13.335  10.867 -0.2597 -0.2584 -0.1716
   97loPI   C1A 1543  15.010  13.727  10.420 -0.2936 -0.1412 -0.0654
   97loPI   C2A 1544  14.996  13.673   9.955 -0.2012  0.1961 -0.3633
   97loPI   C3A 1545  14.978  13.650   9.514  0.0629  0.1636  0.1794
   97loPI   C4A 1546  14.940  13.544   9.064 -0.1422  0.0078  0.0150
   97loPI   C5A 1547  14.898  13.383   8.644  0.1542 -0.1101 -0.0120
   97loPI   C6A 1548  14.521  13.267   8.314 -0.2029  0.0981 -0.1077
   97loPI   C1B 1549  14.643  13.259  10.461 -0.1389  0.2168  0.0046
   97loPI   C2B 1550  14.688  13.267  10.049  0.2330 -0.1190 -0.0288
   97loPI   C3B 1551  14.716  13.249   9.634 -0.4081 -0.2318 -0.0833
   97loPI   C4B 1552  14.756  13.132   9.246 -0.0058 -0.0043 -0.0340
   98loPI    C1 1553   6.670  12.774  11.342  0.2573  0.1075  0.0031
   98loPI    C2 1554   6.539  12.396  11.332  0.2069  0.1236  0.0532
   98loPI    C3 1555   6.726  12.534  11.657 -0.0296  0.2263  0.1483
   98loPI   PO4 1556   6.729  12.799  11.078 -0.3534  0.1117 -0.0876
   98loPI   GL1 1557   6.768  12.667  10.734  0.1694  0.2512 -0.2929
   98loPI   GL2 1558   6.647  12.344  10.758  0.3041  0.1897  0.0661
   98loPI   C1A 1559   6.863  12.740  10.327  0.1568 -0.0080 -0.0279
   98loPI   C2A 1560   6.778  12.739   9.829  0.3159  0.0350 -0.1322
   98loPI   C3A 1561   6.897  12.752   9.437  0.0108 -0.0653  0.0566
   98loPI   C4A 1562   6.813  12.815   9.079 -0.1670 -0.1199 -0.3221
   98loPI   C5A 1563   6.746  12.666   8.607  0.0083  0.0890 -0.1351
   98loPI   C6A 1564   6.883  12.482   8.174  0.0003  0.2950 -0.2224
   98loPI   C1B 1565   6.533  12.284  10.356 -0.0549  0.1756  0.1859
   98loPI   C2B 1566   6.541  12.328   9.950  0.2376 -0.1455  0.1447
   98loPI   C3B 1567   6.578  12.377   9.416  0.3059 -0.3502  0.1751
   98loPI   C4B 1568   6.555  12.365   9.026 -0.3448 -0.0858 -0.1510
   99loPI    C1 1569  11.237   2.886  10.728 -0.1501 -0.0880  0.0286
   99loPI    C2 1570  11.197   2.758  11.105  0.1669 -0.2018  0.0264
   99loPI    C3 1571  11.530   2.950  10.993 -0.0535  0.1010 -0.1212
   99loPI   PO4 1572  11.186   2.725  10.610  0.0710 -0.1304 -0.2057
   99loPI   GL1 1573  11.339   2.567  10.207 -0.0477 -0.1689  0.0653
   99loPI   GL2 1574  11.131   2.294  10.077 -0.1938 -0.1703  0.1825
   99loPI   C1A 1575  11.537   2.788   9.802  0.0095  0.0600 -0.1965
   99loPI   C2A 1576  12.020   2.811   9.658  0.0818 -0.0365 -0.1034
   99loPI   C3A 1577  12.420   2.842   9.378 -0.2392  0.0465 -0.0739
   99loPI   C4A 1578  12.305   3.026   9.027  0.0949 -0.3186 -0.0080
   99loPI   C5A 1579  12.410   3.276   8.555 -0.0082  0.0476  0.0631
   99loPI   C6A 1580  12.385   3.555   8.208  0.1456 -0.3262 -0.0885
   99loPI   C1B 1581  11.450   2.255   9.788 -0.0515 -0.1234 -0.1298
   99loPI   C2B 1582  11.614   2.467   9.403  0.0448 -0.2597 -0.0408
   99loPI   C3B 1583  11.706   2.366   8.914  0.3107 -0.5313  0.0536
   99loPI   C4B 1584  11.687   1.931   8.644  0.1645  0.3067  0.0224
  100loPI    C1 1585  17.497  15.287  11.899  0.1021 -0.1237  0.2105
  100loPI    C2 1586  17.207  15.559  11.851 -0.1137 -0.4024 -0.1099
  100loPI    C3 1587  17.578  15.677  11.942 -0.1642  0.0132 -0.4141
  100loPI   PO4 1588  17.590  15.226  11.643  0.1318 -0.1960  0.2333
  100loPI   GL1 1589  17.733  15.247  11.197 -0.1311  0.2473 -0.2983
  100loPI   GL2 1590  17.957  15.221  11.034  0.0397 -0.1239 -0.0096
  100loPI   C1A 1591  17.583  15.393  10.707 -0.0930 -0.2447 -0.2168
  100loPI   C2A 1592  17.545  15.430  10.278  0.2207 -0.1369 -0.0509
  100loPI   C3A 1593  17.601  15.417   9.909 -0.0588 -0.0929  0.3958
  100loPI   C4A 1594  17.577  15.366   9.390  0.1306  0.2317  0.1854
  100loPI   C5A 1595  17.655  15.131   8.928 -0.0458  0.0167 -0.0685
  100loPI   C6A 1596  18.049  14.797   8.768 -0.0065  0.1291 -0.2102
  100loPI   C1B 1597  17.852  14.996  10.679  0.1482 -0.0734  0.3081
  100loPI   C2B 1598  17.820  15.034  10.256 -0.2811 -0.1259 -0.2927
  100loPI   C3B 1599  17.837  14.914   9.823  0.1641  0.1702  0.2286
  100loPI   C4B 1600  17.822  14.954   9.369  0.3175  0.0634  0.1491
  101loPI    C1 1601  12.862  16.183  11.334 -0.2766 -0.0303  0.0467
  101loPI    C2 1602  12.788  16.565  11.426 -0.3119  0.0039 -0.1202
  101loPI    C3 1603  12.499  16.292  11.461 -0.2848 -0.0093  0.0057
  101loPI   PO4 1604  12.906  16.158  11.159  0.1790 -0.1267 -0.0762
  101loPI   GL1 1605  12.987  16.121  10.748  0.2142  0.1477  0.1771
  101loPI   GL2 1606  12.762  15.947  10.739 -0.1591 -0.1004  0.0739
  101loPI   C1A 1607  13.189  16.026  10.453  0.0566 -0.0343 -0.2638
  101loPI   C2A 1608  13.244  15.925  10.049  0.0361 -0.0883  0.1186
  101loPI   C3A 1609  13.233  15.922   9.601  0.0326 -0.0632 -0.0682
  101loPI   C4A 1610  13.261  15.851   9.122 -0.1003 -0.1351 -0.0644
  101loPI   C5A 1611  13.394  16.007   8.702  0.1078 -0.0922  0.1235
  101loPI   C6A 1612  13.681  16.028   8.460  0.0712 -0.0496 -0.2056
  101loPI   C1B 1613  12.667  15.967  10.344  0.0083 -0.2521 -0.2393
  101loPI   C2B 1614  12.664  15.944   9.925 -0.1484  0.2732 -0.0468
  101loPI   C3B 1615  12.627  15.916   9.518 -0.5603 -0.2833 -0.0973
  101loPI   C4B 1616  12.757  15.812   9.015  0.0153 -0.0910  0.2104
  102loPI    C1 1617  10.286   2.134  10.836  0.1668 -0.2043 -0.2643
  102loPI    C2 1618  10.443   1.814  11.018  0.2257 -0.0262  0.0050
  102loPI    C3 1619  10.074   1.937  11.113  0.2118  0.0001 -0.0815
  102loPI   PO4 1620  10.291   2.115  10.631  0.0430 -0.2393 -0.3393
  102loPI   GL1 1621  10.326   1.931  10.235 -0.0804 -0.0843  0.1034
  102loPI   GL2 1622   9.918   1.950  10.359  0.2206  0.2143  0.1992
  102loPI   C1A 1623  10.206   2.130   9.844 -0.0357  0.0518  0.0570
  102loPI   C2A 1624  10.004   2.055   9.441  0.3262 -0.3470  0.1638
  102loPI   C3A 1625  10.251   2.368   9.062  0.3143  0.4369 -0.0528
  102loPI   C4A 1626  10.374   2.555   8.735  0.0632 -0.0348  0.3136
  102loPI   C5A 1627  10.183   2.985   8.499 -0.0025 -0.1685  0.1493
  102loPI   C6A 1628   9.917   2.995   8.154 -0.1184  0.1491  0.0355
  102loPI   C1B 1629   9.799   1.848   9.908 -0.0074 -0.1108 -0.0028
  102loPI   C2B 1630   9.548   1.717   9.564  0.2122 -0.0120 -0.0407
  102loPI   C3B 1631   9.090   1.583   9.387  0.1877 -0.3276  0.1294
  102loPI   C4B 1632   8.595   1.494   9.418  0.0694  0.0082 -0.2025
  103loPI    C1 1633   4.577   0.740  11.352 -0.0712 -0.1150 -0.0725
  103loPI    C2 1634   4.703   0.754  11.731 -0.0051  0.1044 -0.1011
  103loPI    C3 1635   4.321   0.667  11.651  0.0467 -0.2337  0.0004
  103loPI   PO4 1636   4.718   0.872  11.203  0.0981 -0.1620  0.1568
  103loPI   GL1 1637   4.977   0.807  10.855 -0.1752 -0.0251  0.0445
  103loPI   GL2 1638   5.075   1.057  10.684  0.4237 -0.0998  0.0750
  103loPI   C1A 1639   4.984   0.590  10.380 -0.2934 -0.2205  0.0288
  103loPI   C2A 1640   4.996   0.603   9.931 -0.1112  0.0170  0.1305
  103loPI   C3A 1641   5.077   0.605   9.498 -0.1056  0.2125  0.2367
  103loPI   C4A 1642   5.010   0.596   9.013 -0.0171 -0.0753 -0.3077
  103loPI   C5A 1643   4.966   0.665   8.528 -0.0090  0.2457  0.0785
  103loPI   C6A 1644   5.271   0.527   8.153 -0.0084 -0.0940  0.1274
  103loPI   C1B 1645   5.168   1.064  10.292 -0.1209 -0.0471  0.3219
  103loPI   C2B 1646   5.282   1.107   9.898 -0.2004  0.3007  0.0270
  103loPI   C3B 1647   5.284   1.134   9.498  0.0752 -0.1656  0.1450
  103loPI   C4B 1648   5.286   1.106   9.102 -0.0419  0.0064  0.1678
  104loPI    C1 1649   5.556   5.318  11.475  0.0563  0.1509  0.1912
  104loPI    C2 1650   5.467   5.539  11.796  0.0885  0.1672  0.1888
  104loPI    C3 1651   5.452   5.140  11.818  0.0590  0.1689  0.2012
  104loPI   PO4 1652   5.738   5.404  11.359  0.1055  0.1623  0.0933
  104loPI   GL1 1653   5.776   5.387  10.911 -0.3063  0.0947 -0.1515
  104loPI   GL2 1654   5.426   5.500  10.847 -0.1415  0.1641 -0.0651
  104loPI   C1A 1655   5.804   5.529  10.504  0.1632 -0.0814 -0.0744
  104loPI   C2A 1656   5.830   5.581  10.045 -0.0890  0.4307 -0.2430
  104loPI   C3A 1657   5.802   5.625   9.652 -0.0438 -0.0393  0.2280
  104loPI   C4A 1658   5.779   5.532   9.219 -0.0585 -0.0443 -0.2209
  104loPI   C5A 1659   5.839   5.691   8.754  0.0771  0.0351 -0.1892
  104loPI   C6A 1660   5.899   6.068   8.610  0.0025 -0.1302  0.1322
  104loPI   C1B 1661   5.287   5.563  10.378 -0.1477  0.3095  0.1882
  104loPI   C2B 1662   5.331   5.626   9.898 -0.1345  0.0403 -0.2155
  104loPI   C3B 1663   5.311   5.553   9.410 -0.1092  0.2031  0.2685
  104loPI   C4B 1664   5.337   5.659   9.024 -0.1570  0.0666  0.0651
  105loPI    C1 1665  15.430   1.183  11.657 -0.0769 -0.0538 -0.0003
  105loPI    C2 1666  15.577   1.555  11.644 -0.2079  0.0053  0.1800
  105loPI    C3 1667  15.613   1.336  11.977 -0.2950 -0.0759  0.1368
  105loPI   PO4 1668  15.519   1.104  11.416  0.0769  0.1911  0.3707
  105loPI   GL1 1669  15.451   0.983  10.939 -0.1957  0.1204 -0.0855
  105loPI   GL2 1670  15.638   0.831  10.790  0.1997 -0.0442  0.0147
  105loPI   C1A 1671  15.397   1.139  10.550 -0.1155 -0.2201  0.0463
  105loPI   C2A 1672  15.407   1.160  10.140  0.1751  0.1652  0.1543
  105loPI   C3A 1673  15.479   1.130   9.747  0.1189  0.0793 -0.0580
  105loPI   C4A 1674  15.413   1.089   9.294 -0.1896  0.3241  0.0901
  105loPI   C5A 1675  15.488   0.984   8.873  0.0997  0.2149 -0.0649
  105loPI   C6A 1676  15.840   1.014   8.658  0.0971  0.0655  0.0801
  105loPI   C1B 1677  15.726   0.714  10.325 -0.0647  0.0769 -0.0235
  105loPI   C2B 1678  15.752   0.705   9.921  0.1243  0.0653 -0.1066
  105loPI   C3B 1679  15.753   0.677   9.470  0.0683  0.0204 -0.3126
  105loPI   C4B 1680  15.733   0.587   9.084 -0.1530 -0.2953  0.2198
  106loPI    C1 1681  -0.041  10.521  11.192  0.0830  0.0128  0.1680
  106loPI    C2 1682   0.122  10.350  10.869 -0.1005 -0.1862  0.1785
  106loPI    C3 1683   0.256  10.705  10.997 -0.1024 -0.0511 -0.1832
  106loPI   PO4 1684  -0.345  10.337  11.065 -0.1867  0.1955  0.1939
  106loPI   GL1 1685  -0.409  10.134  10.609  0.1205  0.1765 -0.0252
  106loPI   GL2 1686  -0.154  10.004  10.623  0.1993  0.0109  0.0183
  106loPI   C1A 1687  -0.454  10.093  10.159 -0.2425 -0.0978  0.1839
  106loPI   C2A 1688  -0.428  10.043   9.678  0.2016 -0.1137  0.2180
  106loPI   C3A 1689  -0.462  10.077   9.231  0.2624  0.2403 -0.0651
  106loPI   C4A 1690  -0.319  10.059   8.902 -0.1390 -0.0244  0.1798
  106loPI   C5A 1691  -0.092   9.963   8.515  0.0621 -0.0876 -0.1572
  106loPI   C6A 1692  -0.045   9.938   8.068 -0.3056  0.0326 -0.0804
  106loPI   C1B 1693   0.050  10.095  10.202 -0.0489  0.0685  0.0542
  106loPI   C2B 1694   0.080  10.003   9.748  0.0083  0.0624 -0.4323
  106loPI   C3B 1695   0.003  10.011   9.409  0.2796 -0.0845 -0.1083
  106loPI   C4B 1696   0.183  10.131   8.995 -0.0275  0.3116  0.3011
  107loPI    C1 1697  15.727   9.458  11.351  0.1190 -0.2217 -0.1590
  107loPI    C2 1698  15.918   9.626  11.660 -0.2417 -0.2130  0.0655
  107loPI    C3 1699  15.828   9.236  11.668 -0.2943 -0.2025 -0.0080
  107loPI   PO4 1700  15.870   9.600  11.116 -0.0608  0.1898  0.1584
  107loPI   GL1 1701  15.857   9.785  10.756 -0.0712  0.2274  0.0532
  107loPI   GL2 1702  16.054  10.037  10.828  0.2631 -0.2141  0.1566
  107loPI   C1A 1703  15.721   9.632  10.315 -0.1433  0.1005 -0.2117
  107loPI   C2A 1704  15.800   9.594   9.878  0.2471 -0.0079  0.2628
  107loPI   C3A 1705  15.790   9.588   9.382  0.3376  0.1688 -0.0770
  107loPI   C4A 1706  15.742   9.595   8.968 -0.1786 -0.0687  0.0832
  107loPI   C5A 1707  15.559   9.424   8.595 -0.0124  0.2144 -0.0733
  107loPI   C6A 1708  15.646   9.093   8.364  0.0410 -0.0848 -0.0622
  107loPI   C1B 1709  16.007  10.085  10.295 -0.1810 -0.0012 -0.1727
  107loPI   C2B 1710  16.032  10.124   9.863 -0.1171  0.2523  0.0890
  107loPI   C3B 1711  16.043  10.041   9.462 -0.1516 -0.0640 -0.1668
  107loPI   C4B 1712  15.989  10.112   9.042 -0.2511  0.0084  0.2212
  108loPI    C1 1713   2.092  11.242  11.550  0.1031 -0.2085 -0.0662
  108loPI    C2 1714   2.227  11.590  11.696 -0.2784  0.0901 -0.4003
  108loPI    C3 1715   2.179  11.276  11.939 -0.1377  0.3331 -0.0498
  108loPI   PO4 1716   1.835  11.336  11.405  0.0894  0.1067 -0.1375
  108loPI   GL1 1717   1.599  11.361  10.988 -0.1017 -0.1669 -0.1177
  108loPI   GL2 1718   1.917  11.248  10.922 -0.0477 -0.2100  0.0661
  108loPI   C1A 1719   1.406  11.337  10.629  0.1267  0.1509  0.1702
  108loPI   C2A 1720   1.388  11.482  10.217  0.1840 -0.0656  0.1437
  108loPI   C3A 1721   1.344  11.434   9.819 -0.0678  0.0985  0.0442
  108loPI   C4A 1722   1.311  11.379   9.369 -0.1360 -0.0775  0.0134
  108loPI   C5A 1723   1.392  11.482   8.961  0.3806 -0.1012 -0.3111
  108loPI   C6A 1724   1.684  11.481   8.602  0.1814 -0.0325  0.1777
  108loPI   C1B 1725   1.916  11.283  10.539  0.3279 -0.1333  0.2526
  108loPI   C2B 1726   1.914  11.431  10.097 -0.0637 -0.2303  0.1188
  108loPI   C3B 1727   1.850  11.379   9.583 -0.3625  0.2574 -0.1309
  108loPI   C4B 1728   1.873  11.418   9.056  0.1352 -0.1261 -0.0322
  109loPI    C1 1729   1.454  11.077  11.579  0.0780  0.1014 -0.1529
  109loPI    C2 1730   1.286  11.330  11.839  0.1669 -0.1101  0.1160
  109loPI    C3 1731   1.677  11.249  11.863  0.1685 -0.1596 -0.0621
  109loPI   PO4 1732   1.279  11.133  11.361  0.0602 -0.3263  0.0967
  109loPI   GL1 1733   1.174  10.922  10.964 -0.1856 -0.0368  0.0625
  109loPI   GL2 1734   1.033  10.652  10.946 -0.1134 -0.2469 -0.1421
  109loPI   C1A 1735   1.132  10.953  10.535  0.1563 -0.1085  0.1841
  109loPI   C2A 1736   1.120  10.997  10.090  0.0421 -0.0781 -0.0223
  109loPI   C3A 1737   1.071  11.036   9.682 -0.2352  0.0749  0.1350
  109loPI   C4A 1738   1.151  10.963   9.189  0.2351 -0.0360  0.0850
  109loPI   C5A 1739   1.237  10.995   8.770  0.0125  0.0250 -0.0812
  109loPI   C6A 1740   1.473  10.953   8.383 -0.2107  0.0975  0.1935
  109loPI   C1B 1741   0.992  10.515  10.585  0.2418 -0.0624 -0.1203
  109loPI   C2B 1742   0.857  10.449  10.200 -0.2944 -0.2455 -0.1009
  109loPI   C3B 1743   0.778  10.540   9.783 -0.2063 -0.1104  0.0655
  109loPI   C4B 1744   0.855  10.592   9.355  0.3268  0.1002 -0.2676
  110loPI    C1 1745  12.560  12.789  11.656 -0.2153 -0.0446  0.1476
  110loPI    C2 1746  12.931  12.710  11.781 -0.0635  0.0928 -0.2023
  110loPI    C3 1747  12.694  12.950  11.996  0.0931  0.1043 -0.0404
  110loPI   PO4 1748  12.609  12.756  11.357 -0.1839  0.0162  0.3710
  110loPI   GL1 1749  12.748  12.916  10.955 -0.2276 -0.0145  0.0300
  110loPI   GL2 1750  12.964  12.801  10.839 -0.1813 -0.2670  0.1082
  110loPI   C1A 1751  12.728  13.171  10.521  0.2084 -0.0844  0.2067
  110loPI   C2A 1752  12.720  13.304  10.098 -0.3042 -0.0814  0.1988
  110loPI   C3A 1753  12.741  13.280   9.690  0.0003 -0.1993 -0.2832
  110loPI   C4A 1754  12.688  13.159   9.276  0.1486 -0.0303 -0.2141
  110loPI   C5A 1755  12.641  13.191   8.852 -0.0127  0.1435  0.0441
  110loPI   C6A 1756  12.857  12.854   8.660 -0.0340  0.0219 -0.1350
  110loPI   C1B 1757  12.867  12.716  10.421 -0.2470 -0.0434 -0.0590
  110loPI   C2B 1758  12.937  12.819  10.007 -0.1425 -0.0486  0.1513
  110loPI   C3B 1759  12.930  12.755   9.521 -0.4032 -0.0328 -0.0674
  110loPI   C4B 1760  13.013  12.836   9.109 -0.0196  0.2845 -0.2575
  111loPI    C1 1761   9.060  17.129  11.388  0.1448  0.3744 -0.2271
  111loPI    C2 1762   9.325  16.883  11.558 -0.1849  0.0750 -0.1354
  111loPI    C3 1763   9.165  17.180  11.771 -0.0446  0.1576 -0.1440
  111loPI   PO4 1764   9.029  17.095  11.195  0.4372 -0.1464 -0.0602
  111loPI   GL1 1765   8.871  16.792  10.824  0.2567  0.3156  0.2148
  111loPI   GL2 1766   9.125  16.888  10.617  0.0588  0.2417 -0.0077
  111loPI   C1A 1767   8.652  16.805  10.399 -0.1872 -0.2894  0.0912
  111loPI   C2A 1768   8.642  16.714  10.017 -0.3169  0.1362  0.0723
  111loPI   C3A 1769   8.658  16.866   9.621  0.1783 -0.4025  0.1409
  111loPI   C4A 1770   8.609  16.804   9.116  0.0507 -0.5087 -0.4510
  111loPI   C5A 1771   8.594  16.951   8.721  0.0559  0.0757  0.1840
  111loPI   C6A 1772   8.730  16.963   8.254 -0.0674 -0.2033 -0.1680
  111loPI   C1B 1773   9.100  16.776  10.299  0.1184  0.0554  0.3457
  111loPI   C2B 1774   9.085  16.832   9.891 -0.0839  0.0922  0.0462
  111loPI   C3B 1775   9.145  16.851   9.402 -0.0294 -0.0254 -0.0581
  111loPI   C4B 1776   9.102  16.859   8.901  0.0063 -0.1995  0.1236
  112loPI    C1 1777  11.739  12.470  11.458  0.4655  0.2453  0.0001
  112loPI    C2 1778  11.414  12.618  11.638  0.2379  0.0469 -0.2384
  112loPI    C3 1779  11.762  12.602  11.835  0.0159 -0.0905  0.1533
  112loPI   PO4 1780  11.644  12.619  11.213  0.1791 -0.0860 -0.1491
  112loPI   GL1 1781  11.861  12.587  10.850 -0.1917 -0.0633 -0.1552
  112loPI   GL2 1782  11.693  12.240  10.679 -0.2134 -0.1593  0.1569
  112loPI   C1A 1783  11.914  12.816  10.484  0.1661  0.1900  0.3046
  112loPI   C2A 1784  11.902  12.739  10.113 -0.1404  0.0076  0.0306
  112loPI   C3A 1785  11.873  12.773   9.717  0.0408  0.0078  0.1456
  112loPI   C4A 1786  11.883  12.754   9.317 -0.1206 -0.0381 -0.1599
  112loPI   C5A 1787  11.772  12.859   9.001 -0.1236 -0.2227  0.0562
  112loPI   C6A 1788  11.647  12.727   8.574 -0.0233 -0.4494  0.0404
  112loPI   C1B 1789  11.599  12.326  10.302  0.2476  0.1436  0.0859
  112loPI   C2B 1790  11.646  12.302   9.822  0.4482 -0.0749 -0.2314
  112loPI   C3B 1791  11.616  12.292   9.450  0.3553 -0.0935  0.2108
  112loPI   C4B 1792  11.600  12.365   9.053  0.2616  0.0664  0.1808
  113loPI    C1 1793   4.184  11.414  11.707  0.1375  0.1273  0.0841
  113loPI    C2 1794   4.355  11.089  11.863 -0.0757 -0.0204  0.0145
  113loPI    C3 1795   3.960  11.143  11.898 -0.0311  0.2693  0.0910
  113loPI   PO4 1796   4.335  11.466  11.512  0.0546  0.0965 -0.0823
  113loPI   GL1 1797   4.447  11.626  11.089 -0.0777 -0.1422  0.0330
  113loPI   GL2 1798   4.499  11.895  10.998  0.1012 -0.2258  0.4158
  113loPI   C1A 1799   4.321  11.697  10.597  0.1986  0.1144  0.1648
  113loPI   C2A 1800   4.206  11.701  10.155 -0.5037  0.0138 -0.0755
  113loPI   C3A 1801   4.210  11.886   9.733  0.1461 -0.1801  0.2227
  113loPI   C4A 1802   4.176  11.930   9.234 -0.1451 -0.1787  0.0155
  113loPI   C5A 1803   4.428  11.968   8.801  0.2310 -0.1272  0.1811
  113loPI   C6A 1804   4.591  12.330   8.650  0.0536  0.1709 -0.1245
  113loPI   C1B 1805   4.824  11.759  10.560  0.1867 -0.3830  0.1082
  113loPI   C2B 1806   4.747  11.773  10.048  0.0870  0.1556  0.0115
  113loPI   C3B 1807   4.780  11.927   9.657 -0.2898 -0.1271 -0.1523
  113loPI   C4B 1808   4.707  11.862   9.213 -0.3100 -0.1976  0.0805
  114loPI    C1 1809  11.156  10.281  11.201 -0.0144  0.1942  0.1056
  114loPI    C2 1810  10.945  10.197  11.530  0.0005  0.1068  0.0929
  114loPI    C3 1811  11.323  10.322  11.562 -0.0142  0.1470  0.1109
  114loPI   PO4 1812  11.077  10.348  10.968  0.2211  0.4717  0.0475
  114loPI   GL1 1813  11.157  10.505  10.503  0.1855 -0.0090  0.0127
  114loPI   GL2 1814  11.497  10.509  10.666  0.1234 -0.2083 -0.0429
  114loPI   C1A 1815  11.106  10.442  10.066 -0.4319 -0.2233 -0.0032
  114loPI   C2A 1816  11.073  10.592   9.743  0.0280  0.2150  0.0605
  114loPI   C3A 1817  11.098  10.464   9.306  0.0779 -0.1182  0.2636
  114loPI   C4A 1818  11.018  10.526   8.808  0.1253  0.4305 -0.0913
  114loPI   C5A 1819  10.889  10.758   8.399 -0.4728  0.2237  0.0945
  114loPI   C6A 1820  10.996  11.069   8.145  0.1519 -0.1893 -0.1573
  114loPI   C1B 1821  11.616  10.515  10.161  0.0590  0.0869 -0.0564
  114loPI   C2B 1822  11.682  10.501   9.746 -0.3014  0.0685 -0.0656
  114loPI   C3B 1823  11.618  10.538   9.328 -0.3800 -0.1479 -0.2408
  114loPI   C4B 1824  11.491  10.498   8.919 -0.0037  0.0864  0.2227
  115loPI    C1 1825   7.135   6.609  11.239  0.0332  0.0118 -0.1865
  115loPI    C2 1826   7.304   6.618  11.602  0.3392 -0.1621 -0.3215
  115loPI    C3 1827   7.135   6.281  11.467 -0.0367 -0.0169 -0.2273
  115loPI   PO4 1828   7.239   6.714  11.120  0.2766 -0.1545 -0.0871
  115loPI   GL1 1829   7.435   6.703  10.741 -0.1642 -0.0245 -0.1502
  115loPI   GL2 1830   7.741   6.941  10.776  0.2707 -0.1064 -0.0513
  115loPI   C1A 1831   7.231   6.882  10.320 -0.1215  0.1102  0.1705
  115loPI   C2A 1832   7.032   6.962   9.921  0.1644  0.0248 -0.4206
  115loPI   C3A 1833   6.936   7.008   9.542 -0.1235  0.1506  0.4171
  115loPI   C4A 1834   7.050   6.918   9.211 -0.1254  0.0252  0.4115
  115loPI   C5A 1835   7.035   6.902   8.816  0.2216 -0.0543  0.2027
  115loPI   C6A 1836   6.827   6.594   8.615 -0.1146 -0.2594  0.0558
  115loPI   C1B 1837   7.702   6.846  10.322  0.2006 -0.7619 -0.0728
  115loPI   C2B 1838   7.577   6.933   9.897  0.1905 -0.1130  0.1210
  115loPI   C3B 1839   7.541   6.980   9.437  0.1184 -0.0198  0.0680
  115loPI   C4B 1840   7.509   7.009   9.051  0.0340 -0.0277 -0.0942
  116loPI    C1 1841   1.891  10.192  11.590  0.0414  0.0556 -0.1232
  116loPI    C2 1842   1.675   9.868  11.496  0.1020 -0.0127 -0.0290
  116loPI    C3 1843   1.638  10.036  11.857 -0.1471  0.2630 -0.1788
  116loPI   PO4 1844   1.873  10.367  11.357 -0.1545  0.1108  0.3928
  116loPI   GL1 1845   2.027  10.323  10.948  0.1587  0.3292  0.5535
  116loPI   GL2 1846   2.003  10.524  10.794 -0.1307  0.2841  0.1559
  116loPI   C1A 1847   2.127  10.069  10.733 -0.4753 -0.0866  0.1890
  116loPI   C2A 1848   2.182   9.998  10.359  0.0536 -0.1573  0.1544
  116loPI   C3A 1849   2.205  10.021   9.871 -0.1353  0.1024  0.1263
  116loPI   C4A 1850   2.184  10.084   9.384 -0.0540  0.2911 -0.3132
  116loPI   C5A 1851   2.303  10.211   9.052 -0.1556  0.0098 -0.1232
  116loPI   C6A 1852   2.469  10.603   8.826 -0.1055  0.0340  0.1526
  116loPI   C1B 1853   1.918  10.426  10.402 -0.3207 -0.1299  0.0625
  116loPI   C2B 1854   1.905  10.588  10.027  0.0297 -0.0947  0.1711
  116loPI   C3B 1855   1.858  10.553   9.574 -0.2127 -0.1866 -0.2778
  116loPI   C4B 1856   1.981  10.550   9.097  0.3918 -0.0125 -0.0465
  117loPI    C1 1857  14.195   8.056  11.065  0.1188 -0.0517 -0.0002
  117loPI    C2 1858  14.160   7.786  11.359 -0.0502  0.0824  0.1053
  117loPI    C3 1859  14.014   7.706  10.995 -0.0248 -0.0016  0.1133
  117loPI   PO4 1860  14.415   8.083  11.000  0.1307 -0.0450 -0.0137
  117loPI   GL1 1861  14.449   8.139  10.552  0.1190 -0.3292 -0.1014
  117loPI   GL2 1862  14.254   7.781  10.532 -0.2060  0.0844  0.3605
  117loPI   C1A 1863  14.503   8.195  10.057  0.1504  0.2170 -0.2669
  117loPI   C2A 1864  14.488   8.312   9.655  0.0202  0.3578 -0.1926
  117loPI   C3A 1865  14.412   8.307   9.206 -0.1581 -0.1360 -0.0601
  117loPI   C4A 1866  14.491   8.350   8.767 -0.0631  0.3445  0.2388
  117loPI   C5A 1867  14.361   8.006   8.458  0.3275  0.2184  0.1781
  117loPI   C6A 1868  13.956   8.019   8.136 -0.1304 -0.0596  0.1992
  117loPI   C1B 1869  14.143   7.772  10.096 -0.1503  0.0098  0.1930
  117loPI   C2B 1870  14.248   7.850   9.687 -0.0182 -0.3071 -0.2639
  117loPI   C3B 1871  14.199   7.855   9.266 -0.0273  0.0497 -0.4218
  117loPI   C4B 1872  14.078   7.893   8.890  0.0559 -0.4220  0.1229
  118loPI    C1 1873  11.575   1.959  10.614 -0.0710 -0.0701  0.1052
  118loPI    C2 1874  11.646   2.352  10.616 -0.1442 -0.0552 -0.0594
  118loPI    C3 1875  11.270   2.217  10.594 -0.1215 -0.1348  0.0343
  118loPI   PO4 1876  11.815   1.906  10.572 -0.1487  0.0104  0.0008
  118loPI   GL1 1877  12.038   2.006  10.280  0.2972  0.0609  0.0757
  118loPI   GL2 1878  11.794   2.288  10.177  0.1713 -0.0262 -0.1884
  118loPI   C1A 1879  12.275   1.901   9.956  0.0244  0.1665  0.0220
  118loPI   C2A 1880  12.469   1.949   9.667  0.1998 -0.2147 -0.1495
  118loPI   C3A 1881  12.520   2.115   9.304 -0.0181 -0.0497 -0.2283
  118loPI   C4A 1882  12.573   2.203   8.760 -0.0551  0.0059  0.0203
  118loPI   C5A 1883  12.696   2.389   8.399  0.2294 -0.1905 -0.3108
  118loPI   C6A 1884  12.509   2.420   8.062 -0.1533 -0.1727 -0.3017
  118loPI   C1B 1885  12.052   2.353   9.906  0.2045  0.0032 -0.2664
  118loPI   C2B 1886  12.106   2.390   9.430  0.0649 -0.2285 -0.1278
  118loPI   C3B 1887  12.255   2.521   9.009  0.3407 -0.2125 -0.1808
  118loPI   C4B 1888  12.516   2.743   8.739  0.1464 -0.1639  0.2063
  119loPI    C1 1889   7.691  15.481  11.566 -0.0085 -0.0259 -0.0097
  119loPI    C2 1890   7.923  15.169  11.660 -0.2332 -0.2397 -0.1517
  119loPI    C3 1891   7.902  15.485  11.905  0.1227 -0.2629 -0.0866
  119loPI   PO4 1892   7.688  15.570  11.318  0.0763  0.2084 -0.1335
  119loPI   GL1 1893   7.741  15.588  10.989 -0.0244 -0.0422  0.0640
  119loPI   GL2 1894   7.550  15.765  10.764 -0.1797 -0.0773  0.2370
  119loPI   C1A 1895   7.893  15.426  10.604  0.2931 -0.1380 -0.0323
  119loPI   C2A 1896   7.965  15.431  10.122  0.2426 -0.0524 -0.3942
  119loPI   C3A 1897   7.851  15.477   9.742  0.1069  0.1611  0.1209
  119loPI   C4A 1898   7.913  15.516   9.357 -0.2834  0.0487 -0.0478
  119loPI   C5A 1899   7.956  15.466   8.959  0.1081 -0.1344  0.1433
  119loPI   C6A 1900   7.748  15.480   8.526 -0.3935  0.1149 -0.3144
  119loPI   C1B 1901   7.150  15.795  10.445 -0.2891  0.2898  0.0048
  119loPI   C2B 1902   7.116  15.854  10.067  0.0457 -0.0285  0.0622
  119loPI   C3B 1903   7.105  15.908   9.638 -0.4124 -0.2086  0.3174
  119loPI   C4B 1904   7.169  15.877   9.156  0.1614  0.2596  0.0789
  120loPI    C1 1905   5.606   1.253  11.659  0.0336 -0.0970 -0.1694
  120loPI    C2 1906   5.955   1.443  11.609  0.0418 -0.0703 -0.0160
  120loPI    C3 1907   5.737   1.508  11.938 -0.0488 -0.1804 -0.0537
  120loPI   PO4 1908   5.500   1.245  11.443  0.0554 -0.1966 -0.0385
  120loPI   GL1 1909   5.578   1.313  10.947 -0.1661  0.0843 -0.2952
  120loPI   GL2 1910   5.871   1.399  11.058  0.0453  0.1816  0.0300
  120loPI   C1A 1911   5.470   1.374  10.558 -0.1145 -0.2867  0.3509
  120loPI   C2A 1912   5.437   1.493  10.137 -0.2089  0.0189  0.2405
  120loPI   C3A 1913   5.504   1.547   9.691  0.1360  0.0991 -0.4735
  120loPI   C4A 1914   5.532   1.536   9.206  0.0664 -0.0971 -0.0812
  120loPI   C5A 1915   5.790   1.504   8.839  0.0876 -0.0731 -0.2984
  120loPI   C6A 1916   6.183   1.217   8.607  0.1775  0.1318 -0.0574
  120loPI   C1B 1917   5.948   1.408  10.504 -0.2729 -0.0686 -0.0502
  120loPI   C2B 1918   5.975   1.438  10.110 -0.2785  0.2153  0.2381
  120loPI   C3B 1919   6.071   1.444   9.750  0.1763 -0.0391  0.5471
  120loPI   C4B 1920   6.101   1.443   9.307 -0.0898  0.2359 -0.0958
  121loPI    C1 1921  17.832   2.265  11.406 -0.1087  0.1566 -0.3713
  121loPI    C2 1922  17.504   2.407  11.585  0.0692  0.0916  0.0172
  121loPI    C3 1923  17.745   2.155  11.780  0.1856 -0.1117 -0.3776
  121loPI   PO4 1924  17.846   2.389  11.173  0.2684  0.2211 -0.1555
  121loPI   GL1 1925  18.041   2.295  10.831  0.2287  0.2412 -0.1109
  121loPI   GL2 1926  17.744   2.192  10.698  0.0528  0.1543 -0.0536
  121loPI   C1A 1927  18.271   2.317  10.533  0.0392 -0.1826 -0.2690
  121loPI   C2A 1928  18.396   2.386  10.076  0.3285  0.0531 -0.1682
  121loPI   C3A 1929  18.413   2.352   9.673  0.3232  0.1923 -0.1227
  121loPI   C4A 1930  18.450   2.460   9.278  0.1255  0.1629  0.0558
  121loPI   C5A 1931  18.514   2.283   8.859 -0.0888  0.0682 -0.1359
  121loPI   C6A 1932  18.495   2.091   8.474  0.2797 -0.2890  0.2012
  121loPI   C1B 1933  17.859   2.355  10.205 -0.0988  0.1426 -0.0902
  121loPI   C2B 1934  17.893   2.383   9.802  0.0841 -0.3605 -0.2695
  121loPI   C3B 1935  17.952   2.400   9.432 -0.2072 -0.0712 -0.0335
  121loPI   C4B 1936  17.876   2.338   9.008 -0.2006 -0.0681 -0.3560
  122loPI    C1 1937  12.839  17.097  11.197  0.2001  0.1258  0.1735
  122loPI    C2 1938  12.497  17.065  11.403  0.1123 -0.3009 -0.0284
  122loPI    C3 1939  12.831  17.186  11.588 -0.1719  0.2658  0.1382
  122loPI   PO4 1940  12.712  17.145  10.875  0.1442  0.0642  0.0912
  122loPI   GL1 1941  12.475  16.928  10.577  0.0597 -0.2820 -0.1160
  122loPI   GL2 1942  12.165  16.933  10.395 -0.2658 -0.1453 -0.0277
  122loPI   C1A 1943  12.641  16.846  10.196 -0.1915 -0.1509  0.1278
  122loPI   C2A 1944  12.649  16.808   9.793 -0.4400  0.0483  0.2354
  122loPI   C3A 1945  12.666  16.715   9.423 -0.0120  0.0029  0.1776
  122loPI   C4A 1946  12.766  16.684   9.016 -0.1015 -0.0159  0.3485
  122loPI   C5A 1947  13.007  16.831   8.635 -0.2364 -0.1663 -0.4929
  122loPI   C6A 1948  12.954  16.770   8.196  0.1358 -0.0157  0.1339
  122loPI   C1B 1949  12.152  16.858   9.947  0.0853  0.4025  0.3642
  122loPI   C2B 1950  12.129  16.788   9.449 -0.0907  0.0827  0.0304
  122loPI   C3B 1951  12.222  16.728   9.072  0.1447 -0.1036  0.2484
  122loPI   C4B 1952  12.373  16.749   8.718 -0.0413  0.0217 -0.0514
  123loPI    C1 1953   3.356  14.501  11.141  0.0751  0.1443  0.0175
  123loPI    C2 1954   3.109  14.393  11.436 -0.0062  0.1039 -0.0647
  123loPI    C3 1955   3.499  14.444  11.510  0.0459 -0.3028 -0.0350
  123loPI   PO4 1956   3.238  14.432  10.992 -0.2327  0.2082  0.2306
  123loPI   GL1 1957   3.220  14.552  10.513  0.2665  0.0029 -0.0425
  123loPI   GL2 1958   2.861  14.606  10.684 -0.0440 -0.1554 -0.1484
  123loPI   C1A 1959   3.219  14.509  10.129 -0.1388  0.2463 -0.0703
  123loPI   C2A 1960   3.122  14.510   9.708 -0.1373  0.0288  0.0790
  123loPI   C3A 1961   3.203  14.602   9.273  0.0488  0.0631 -0.2800
  123loPI   C4A 1962   3.161  14.587   8.855 -0.2103  0.2011 -0.0523
  123loPI   C5A 1963   2.992  14.603   8.491 -0.0025  0.0970 -0.3699
  123loPI   C6A 1964   2.878  14.261   8.249  0.0916  0.0774  0.1333
  123loPI   C1B 1965   2.718  14.501  10.273  0.1924 -0.2897 -0.1152
  123loPI   C2B 1966   2.623  14.534   9.768  0.0266  0.0011  0.0957
  123loPI   C3B 1967   2.700  14.632   9.379  0.2197 -0.0019  0.0985
  123loPI   C4B 1968   2.637  14.613   9.000 -0.2521  0.3329  0.2420
  124loPI    C1 1969   5.709  13.603  11.352 -0.1553  0.1157  0.0625
  124loPI    C2 1970   5.624  13.859  11.648  0.0932  0.0510  0.1926
  124loPI    C3 1971   5.461  13.494  11.646 -0.0861  0.1302  0.1266
  124loPI   PO4 1972   5.711  13.693  11.137  0.1680  0.0849  0.2004
  124loPI   GL1 1973   5.676  13.590  10.806  0.1265  0.1017  0.2224
  124loPI   GL2 1974   5.425  13.496  10.630 -0.1147 -0.0668  0.3130
  124loPI   C1A 1975   5.860  13.558  10.359  0.3615  0.0932 -0.5037
  124loPI   C2A 1976   5.771  13.727   9.971  0.1231  0.0099 -0.2377
  124loPI   C3A 1977   5.792  13.703   9.489  0.2275  0.0637 -0.0614
  124loPI   C4A 1978   5.835  13.779   9.104  0.1582 -0.2145  0.0919
  124loPI   C5A 1979   5.599  13.662   8.711 -0.1577 -0.2236 -0.1676
  124loPI   C6A 1980   5.624  13.750   8.255  0.1504  0.1718 -0.2928
  124loPI   C1B 1981   5.312  13.700  10.216  0.3053 -0.1329 -0.5052
  124loPI   C2B 1982   5.308  13.742   9.689  0.2592 -0.2405 -0.4201
  124loPI   C3B 1983   5.199  13.696   9.266  0.0997 -0.3171  0.1348
  124loPI   C4B 1984   5.131  13.733   8.806  0.1393  0.1736 -0.0258
  125loPI    C1 1985  17.174   0.805  11.405  0.2255 -0.2243 -0.0380
  125loPI    C2 1986  16.996   0.978  11.719  0.2036 -0.3455  0.0168
  125loPI    C3 1987  16.947   0.587  11.652  0.2715 -0.3354 -0.0934
  125loPI   PO4 1988  17.142   0.961  11.207  0.0256 -0.3887  0.0853
  125loPI   GL1 1989  17.039   0.834  10.890 -0.3489  0.0907  0.0028
  125loPI   GL2 1990  17.113   1.066  10.676 -0.1289 -0.0079  0.1927
  125loPI   C1A 1991  17.239   0.635  10.486 -0.0337  0.0765 -0.0791
  125loPI   C2A 1992  17.317   0.605  10.002 -0.1331 -0.0555  0.0178
  125loPI   C3A 1993  17.274   0.694   9.533  0.1226  0.2658  0.0975
  125loPI   C4A 1994  17.258   0.552   9.119 -0.4239 -0.1029  0.4034
  125loPI   C5A 1995  17.231   0.600   8.681 -0.2575 -0.1318 -0.0655
  125loPI   C6A 1996  17.120   0.813   8.332 -0.1117 -0.0870 -0.0567
  125loPI   C1B 1997  16.989   1.050  10.298  0.3893 -0.1836  0.3089
  125loPI   C2B 1998  17.069   1.056   9.925  0.0203  0.0368  0.0645
  125loPI   C3B 1999  17.023   1.098   9.464 -0.2781 -0.0154  0.1245
  125loPI   C4B 2000  17.068   1.035   9.027 -0.1192 -0.0872 -0.2316
  126loPI    C1 2001   6.596   7.529  11.541 -0.2446 -0.0501 -0.4177
  126loPI    C2 2002   6.663   7.905  11.424  0.2734  0.0441  0.1294
  126loPI    C3 2003   6.475   7.834  11.769  0.3867 -0.1945  0.1439
  126loPI   PO4 2004   6.640   7.345  11.371  0.0750  0.0476  0.0976
  126loPI   GL1 2005   6.547   7.356  10.857 -0.1570 -0.2417 -0.0853
  126loPI   GL2 2006   6.544   6.994  10.711 -0.0237 -0.0081  0.1636
  126loPI   C1A 2007   6.290   7.339  10.516 -0.0747  0.0941 -0.1442
  126loPI   C2A 2008   6.294   7.391   9.968 -0.2959 -0.4246  0.0756
  126loPI   C3A 2009   6.248   7.249   9.561 -0.1977 -0.1387 -0.1543
  126loPI   C4A 2010   6.252   7.370   9.047  0.1524  0.1817  0.2830
  126loPI   C5A 2011   6.550   7.674   8.829  0.0369  0.6324  0.1170
  126loPI   C6A 2012   6.756   7.781   8.565 -0.1839  0.1748  0.1944
  126loPI   C1B 2013   6.513   6.972  10.233 -0.0038  0.2122 -0.0283
  126loPI   C2B 2014   6.510   6.950   9.869 -0.1415  0.0994  0.1312
  126loPI   C3B 2015   6.493   6.914   9.407  0.1110  0.1293  0.0627
  126loPI   C4B 2016   6.522   6.909   8.942  0.0519 -0.0935  0.0196
  127loPI    C1 2017   7.525  10.860  11.444  0.1428  0.2262 -0.1404
  127loPI    C2 2018   7.720  11.008  11.760  0.2082  0.0969 -0.1198
  127loPI    C3 2019   7.774  10.626  11.652  0.0072  0.0750 -0.1462
  127loPI   PO4 2020   7.524  10.945  11.197  0.1156  0.1917 -0.2583
  127loPI   GL1 2021   7.615  10.991  10.789  0.0382  0.1604  0.0643
  127loPI   GL2 2022   7.894  10.809  10.660  0.2625  0.0433  0.1355
  127loPI   C1A 2023   7.406  10.976  10.489  0.0914  0.5296 -0.2322
  127loPI   C2A 2024   7.290  10.914  10.093 -0.0840  0.1275  0.0746
  127loPI   C3A 2025   7.311  10.975   9.696 -0.2387 -0.0874 -0.1670
  127loPI   C4A 2026   7.333  10.958   9.248 -0.0216 -0.1058  0.0277
  127loPI   C5A 2027   7.379  11.083   8.832  0.1923 -0.1941 -0.0884
  127loPI   C6A 2028   7.298  11.351   8.436  0.2331  0.2775  0.0473
  127loPI   C1B 2029   7.868  10.936  10.273 -0.1318 -0.0995  0.1880
  127loPI   C2B 2030   7.751  10.871   9.889 -0.0948 -0.1314 -0.1566
  127loPI   C3B 2031   7.812  10.979   9.427  0.0672  0.5197 -0.4607
  127loPI   C4B 2032   7.800  10.991   9.093 -0.0343 -0.0845  0.1851
  128loPI    C1 2033  10.718  11.457  11.475 -0.1179  0.0678 -0.0181
  128loPI    C2 2034  10.479  11.598  11.763  0.1972  0.0449  0.2602
  128loPI    C3 2035  10.561  11.207  11.745  0.0512  0.0227  0.0398
  128loPI   PO4 2036  10.625  11.556  11.266 -0.1535  0.0018 -0.2289
  128loPI   GL1 2037  10.339  11.675  11.040  0.0697  0.2512 -0.1644
  128loPI   GL2 2038  10.289  11.931  10.822  0.0275 -0.0810 -0.0860
  128loPI   C1A 2039  10.196  11.433  10.754 -0.0097 -0.2083 -0.0362
  128loPI   C2A 2040  10.083  11.441  10.275  0.1407 -0.1289 -0.0435
  128loPI   C3A 2041  10.119  11.358   9.846 -0.0604  0.0023  0.2599
  128loPI   C4A 2042  10.031  11.484   9.457 -0.1710  0.0110 -0.0715
  128loPI   C5A 2043   9.977  11.472   9.052  0.0213 -0.0855 -0.0722
  128loPI   C6A 2044   9.900  11.799   8.795 -0.3543  0.1826  0.2441
  128loPI   C1B 2045  10.393  11.799  10.467 -0.2701  0.1584 -0.0492
  128loPI   C2B 2046  10.319  11.785  10.017 -0.1365  0.2071  0.2479
  128loPI   C3B 2047  10.373  11.861   9.564 -0.1302 -0.1465 -0.0923
  128loPI   C4B 2048  10.267  11.877   9.150 -0.2139  0.0736  0.2497
  129loPI    C1 2049   0.153   2.820  11.445 -0.1565  0.0650 -0.1677
  129loPI    C2 2050   0.255   2.453  11.567  0.0145  0.1598 -0.0208
  129loPI    C3 2051  -0.001   2.672  11.783  0.0525  0.1962 -0.0124
  129loPI   PO4 2052   0.419   2.978  11.258 -0.0651  0.1935 -0.1105
  129loPI   GL1 2053   0.363   3.208  10.911  0.1757 -0.3028  0.1338
  129loPI   GL2 2054   0.492   3.553  10.872  0.3335 -0.1394 -0.0834
  129loPI   C1A 2055   0.416   3.216  10.410  0.1072  0.2422  0.1559
  129loPI   C2A 2056   0.314   3.325  10.055 -0.1381  0.0659  0.1777
  129loPI   C3A 2057   0.382   3.331   9.630 -0.0638  0.0883  0.1293
  129loPI   C4A 2058   0.361   3.337   9.139  0.2047 -0.0424  0.2473
  129loPI   C5A 2059   0.346   3.147   8.678 -0.2897  0.0711  0.2506
  129loPI   C6A 2060   0.493   2.712   8.545  0.3835  0.3628  0.1718
  129loPI   C1B 2061   0.607   3.740  10.424 -0.0384 -0.2732  0.0428
  129loPI   C2B 2062   0.628   3.756  10.035  0.1449  0.1820  0.1288
  129loPI   C3B 2063   0.578   3.764   9.502 -0.0289  0.1362 -0.1736
  129loPI   C4B 2064   0.693   3.863   9.067  0.1833  0.3288  0.2183
  130loPI    C1 2065  15.194   9.365  11.571  0.1977 -0.0063 -0.0359
  130loPI    C2 2066  15.366   9.183  11.883  0.2260 -0.0230 -0.0611
  130loPI    C3 2067  15.369   9.582  11.858  0.0541 -0.0128  0.0580
  130loPI   PO4 2068  15.262   9.232  11.354  0.3184  0.0712 -0.0526
  130loPI   GL1 2069  15.350   9.454  10.943 -0.0005 -0.1976 -0.0683
  130loPI   GL2 2070  15.573   9.253  10.875  0.3205  0.2605  0.0887
  130loPI   C1A 2071  15.235   9.592  10.579 -0.2640  0.2224 -0.0019
  130loPI   C2A 2072  15.200   9.633  10.132 -0.0654  0.0514  0.0476
  130loPI   C3A 2073  15.240   9.658   9.706 -0.0181  0.1591  0.0511
  130loPI   C4A 2074  15.277   9.642   9.256  0.2079  0.0217  0.0773
  130loPI   C5A 2075  15.192   9.711   8.781  0.1129 -0.0244  0.0588
  130loPI   C6A 2076  14.817   9.834   8.548  0.0984  0.3859 -0.3647
  130loPI   C1B 2077  15.611   9.165  10.543 -0.1965  0.2248 -0.2398
  130loPI   C2B 2078  15.492   9.228  10.009  0.0869 -0.1009  0.0530
  130loPI   C3B 2079  15.492   9.172   9.488  0.3436 -0.0876 -0.2223
  130loPI   C4B 2080  15.462   9.204   9.103  0.0435  0.0934  0.1700
  131loPI    C1 2081  17.566   4.797  11.436 -0.0056  0.0047  0.2291
  131loPI    C2 2082  17.915   4.734  11.620  0.1599  0.0656 -0.0565
  131loPI    C3 2083  17.597   4.508  11.710  0.2285  0.1115  0.3176
  131loPI   PO4 2084  17.644   4.856  11.220  0.0614 -0.2866 -0.0382
  131loPI   GL1 2085  17.574   5.083  10.805  0.0438 -0.0593 -0.0201
  131loPI   GL2 2086  17.216   5.224  10.805  0.1952  0.0962  0.1853
  131loPI   C1A 2087  17.901   5.150  10.492  0.1631  0.3024  0.6967
  131loPI   C2A 2088  17.804   5.062  10.032 -0.1718 -0.1339  0.0301
  131loPI   C3A 2089  17.845   5.089   9.603  0.0143 -0.4130  0.0676
  131loPI   C4A 2090  17.758   5.104   9.116 -0.0589  0.0018  0.0618
  131loPI   C5A 2091  17.544   4.862   8.681 -0.3149 -0.0760 -0.0571
  131loPI   C6A 2092  17.336   4.645   8.324 -0.3949  0.2145  0.2436
  131loPI   C1B 2093  17.305   5.084  10.283  0.2505  0.0717  0.0377
  131loPI   C2B 2094  17.311   5.022   9.895  0.3193  0.5554  0.1699
  131loPI   C3B 2095  17.338   5.117   9.396  0.0993  0.0160 -0.1060
  131loPI   C4B 2096  17.260   5.174   8.952  0.0591 -0.0547 -0.1543
  132loPI    C1 2097  16.601  11.266  11.320  0.0448 -0.1882  0.1444
  132loPI    C2 2098  16.669  11.519  11.623 -0.1267 -0.1793  0.1766
  132loPI    C3 2099  16.892  11.189  11.584  0.2076  0.0572  0.0401
  132loPI   PO4 2100  16.592  11.404  11.129 -0.1363 -0.2615 -0.0165
  132loPI   GL1 2101  16.835  11.351  10.745 -0.2311 -0.2138 -0.1451
  132loPI   GL2 2102  17.003  11.070  10.611 -0.2332 -0.1218 -0.0884
  132loPI   C1A 2103  16.770  11.385  10.276 -0.3715 -0.0544 -0.3099
  132loPI   C2A 2104  16.762  11.399   9.826  0.3305 -0.2287  0.1156
  132loPI   C3A 2105  16.805  11.413   9.423 -0.3574 -0.0064  0.1372
  132loPI   C4A 2106  16.726  11.513   9.046 -0.0909  0.2838  0.1539
  132loPI   C5A 2107  16.541  11.815   8.628 -0.2830  0.1839  0.1292
  132loPI   C6A 2108  16.646  12.062   8.363 -0.0813  0.1399 -0.2768
  132loPI   C1B 2109  17.115  11.031  10.203  0.1927 -0.4642 -0.1668
  132loPI   C2B 2110  17.058  10.991   9.738 -0.2025 -0.0613 -0.3229
  132loPI   C3B 2111  17.062  10.959   9.343 -0.4163 -0.0729 -0.1406
  132loPI   C4B 2112  16.978  11.053   8.880  0.0999  0.1645 -0.1383
  133loPI    C1 2113  14.308   3.511  11.189  0.1583  0.0097  0.0140
  133loPI    C2 2114  14.251   3.863  11.371 -0.0169 -0.0630  0.1027
  133loPI    C3 2115  13.950   3.601  11.343  0.1237 -0.2237  0.0736
  133loPI   PO4 2116  14.406   3.614  10.944 -0.0551 -0.0697 -0.0009
  133loPI   GL1 2117  14.332   3.372  10.568  0.0478 -0.1514 -0.3302
  133loPI   GL2 2118  14.582   3.242  10.553 -0.2136 -0.2269  0.1375
  133loPI   C1A 2119  14.199   3.324  10.129  0.0049 -0.2234 -0.0960
  133loPI   C2A 2120  14.144   3.300   9.613  0.0079  0.1234  0.0422
  133loPI   C3A 2121  14.214   3.354   9.239  0.3181  0.4238 -0.1822
  133loPI   C4A 2122  14.228   3.322   8.764  0.3545  0.0531  0.2703
  133loPI   C5A 2123  13.826   3.203   8.401  0.1017 -0.0713 -0.1244
  133loPI   C6A 2124  13.684   3.271   7.940  0.1662 -0.1447 -0.0879
  133loPI   C1B 2125  14.640   3.474  10.233 -0.0871 -0.2832 -0.0023
  133loPI   C2B 2126  14.396   3.721   9.885 -0.0292 -0.0532  0.0720
  133loPI   C3B 2127  14.373   3.804   9.457  0.2471 -0.2286  0.3652
  133loPI   C4B 2128  14.399   3.895   9.014  0.0821 -0.0512  0.2283
  134loPI    C1 2129   9.006   6.614  11.335  0.0827 -0.0172  0.0292
  134loPI    C2 2130   9.000   6.907  11.607 -0.2107  0.0655 -0.0618
  134loPI    C3 2131   9.307   6.651  11.595  0.1029  0.4316 -0.0497
  134loPI   PO4 2132   8.945   6.714  11.128 -0.3038 -0.0655 -0.1599
  134loPI   GL1 2133   8.788   6.837  10.647  0.0869  0.1635  0.0191
  134loPI   GL2 2134   9.060   6.982  10.592  0.2175 -0.1446 -0.2487
  134loPI   C1A 2135   8.640   6.945  10.372 -0.0203  0.2253  0.1482
  134loPI   C2A 2136   8.546   6.952  10.006  0.0052  0.4151  0.3092
  134loPI   C3A 2137   8.552   6.934   9.555  0.2908  0.2105  0.0564
  134loPI   C4A 2138   8.577   6.912   9.129 -0.0831  0.2537  0.0538
  134loPI   C5A 2139   8.561   7.019   8.695  0.0851  0.1875  0.0169
  134loPI   C6A 2140   8.489   6.928   8.318  0.0903 -0.0350 -0.0057
  134loPI   C1B 2141   9.113   6.945  10.137 -0.0291 -0.0122  0.0346
  134loPI   C2B 2142   9.057   6.903   9.641 -0.2346 -0.3115  0.2584
  134loPI   C3B 2143   9.070   6.975   9.244 -0.0038 -0.0243  0.0753
  134loPI   C4B 2144   9.026   6.994   8.855  0.2559  0.0563  0.3064
  135loPI    C1 2145   8.223   4.884  11.101 -0.1839 -0.1444  0.0422
  135loPI    C2 2146   7.934   4.898  11.377  0.0073 -0.2719  0.2524
  135loPI    C3 2147   8.273   4.699  11.452  0.1334 -0.1600 -0.0080
  135loPI   PO4 2148   8.112   5.107  10.944 -0.0490 -0.0627 -0.0602
  135loPI   GL1 2149   7.944   4.966  10.601 -0.0269  0.0268 -0.0242
  135loPI   GL2 2150   8.256   5.123  10.406 -0.0751  0.4471 -0.1940
  135loPI   C1A 2151   7.622   5.075  10.243 -0.2078  0.0755 -0.0614
  135loPI   C2A 2152   7.574   5.123   9.895  0.2114 -0.1981  0.1030
  135loPI   C3A 2153   7.539   5.129   9.404 -0.1823  0.1883  0.0179
  135loPI   C4A 2154   7.571   5.168   9.048  0.0144 -0.1327  0.0186
  135loPI   C5A 2155   7.518   5.226   8.582 -0.2220 -0.0115  0.2144
  135loPI   C6A 2156   7.621   5.255   8.148 -0.2201 -0.1063  0.0743
  135loPI   C1B 2157   8.059   5.118  10.096 -0.1286  0.1208 -0.0531
  135loPI   C2B 2158   8.009   5.117   9.555  0.0185 -0.1180 -0.1168
  135loPI   C3B 2159   8.106   5.158   9.094 -0.1691  0.2753  0.2197
  135loPI   C4B 2160   8.079   5.258   8.708  0.0028 -0.0103 -0.2849
  136loPI    C1 2161   6.068  12.210  11.393 -0.0715  0.1173  0.2322
  136loPI    C2 2162   6.087  12.430  11.726  0.0123  0.2874  0.1162
  136loPI    C3 2163   6.007  12.039  11.749  0.0006  0.3015  0.3340
  136loPI   PO4 2164   5.914  12.332  11.119 -0.0550  0.0450  0.0020
  136loPI   GL1 2165   5.968  12.673  10.831 -0.0668 -0.2717 -0.2076
  136loPI   GL2 2166   6.270  12.753  10.898  0.0533 -0.0703 -0.1656
  136loPI   C1A 2167   5.802  12.703  10.388 -0.0822  0.1329 -0.0146
  136loPI   C2A 2168   5.746  12.743   9.932 -0.0359  0.0023  0.0212
  136loPI   C3A 2169   5.755  12.831   9.492 -0.4301 -0.0693 -0.2187
  136loPI   C4A 2170   5.800  12.815   8.997 -0.0482  0.3234  0.1518
  136loPI   C5A 2171   5.761  12.892   8.505  0.0990 -0.0464  0.0797
  136loPI   C6A 2172   5.839  13.192   8.271  0.1918  0.0038 -0.1353
  136loPI   C1B 2173   6.312  12.766  10.466  0.0133 -0.2841  0.1641
  136loPI   C2B 2174   6.309  12.765  10.058 -0.3491  0.3498  0.1146
  136loPI   C3B 2175   6.262  12.800   9.585  0.0017 -0.1998 -0.0271
  136loPI   C4B 2176   6.303  12.816   9.206 -0.0475 -0.1201  0.0602
  137loPI    C1 2177   7.096  14.387  11.750 -0.2345 -0.0199  0.0694
  137loPI    C2 2178   6.821  14.103  11.810 -0.0717 -0.1804  0.0648
  137loPI    C3 2179   7.210  14.013  11.836 -0.0185  0.0362  0.0331
  137loPI   PO4 2180   7.063  14.504  11.478  0.3250 -0.0186 -0.0173
  137loPI   GL1 2181   6.901  14.449  11.076 -0.0813  0.1688  0.0242
  137loPI   GL2 2182   7.073  14.758  11.023  0.0188 -0.0220 -0.1654
  137loPI   C1A 2183   6.829  14.595  10.645 -0.0260  0.2471 -0.2161
  137loPI   C2A 2184   6.776  14.515  10.212  0.0597 -0.2881 -0.1271
  137loPI   C3A 2185   6.810  14.581   9.830 -0.0417 -0.0068 -0.2579
  137loPI   C4A 2186   6.861  14.628   9.417 -0.2751  0.1051 -0.0335
  137loPI   C5A 2187   6.947  14.577   9.013  0.1252 -0.2705 -0.1505
  137loPI   C6A 2188   7.018  14.814   8.534  0.0177 -0.1173 -0.2429
  137loPI   C1B 2189   7.182  14.928  10.594  0.2828 -0.1220  0.0868
  137loPI   C2B 2190   7.105  14.925  10.196 -0.0218 -0.2017  0.3473
  137loPI   C3B 2191   7.068  15.037   9.707 -0.1442  0.2081  0.0360
  137loPI   C4B 2192   7.190  15.013   9.223 -0.0803 -0.3257  0.3213
  138loPI    C1 2193   8.755   9.097  11.353  0.0845 -0.1121 -0.1085
  138loPI    C2 2194   9.127   9.064  11.497  0.0362  0.1696  0.0895
  138loPI    C3 2195   8.824   9.153  11.743 -0.2072 -0.3067 -0.0260
  138loPI   PO4 2196   8.813   9.224  11.074 -0.1809 -0.1509 -0.5003
  138loPI   GL1 2197   8.565   9.507  10.931 -0.1540 -0.1154 -0.1223
  138loPI   GL2 2198   8.739   9.802  11.028  0.0655 -0.1428  0.2221
  138loPI   C1A 2199   8.622   9.612  10.434  0.1680  0.1612  0.1799
  138loPI   C2A 2200   8.598   9.530   9.952  0.0138 -0.1806 -0.1745
  138loPI   C3A 2201   8.616   9.601   9.544  0.0409 -0.0565 -0.2370
  138loPI   C4A 2202   8.574   9.656   9.146 -0.0299 -0.2065  0.3690
  138loPI   C5A 2203   8.598   9.798   8.763 -0.1147 -0.0665  0.0461
  138loPI   C6A 2204   8.882  10.157   8.685  0.0470 -0.0406  0.0875
  138loPI   C1B 2205   8.970   9.948  10.595 -0.1538  0.0444 -0.2580
  138loPI   C2B 2206   8.942  10.034  10.128  0.2049  0.3291  0.1681
  138loPI   C3B 2207   8.887  10.031   9.677  0.0871 -0.1259  0.1201
  138loPI   C4B 2208   8.859  10.096   9.293 -0.3492  0.1470  0.0578
  139loPI    C1 2209  10.721   5.137  10.939  0.0491  0.0586  0.4114
  139loPI    C2 2210  10.750   4.738  10.934  0.0920  0.0625  0.0547
  139loPI    C3 2211  10.399   4.912  11.018 -0.0294 -0.0584 -0.1898
  139loPI   PO4 2212  10.844   5.185  10.735  0.2298  0.1390  0.0515
  139loPI   GL1 2213  10.703   5.140  10.418  0.0428  0.1505  0.0474
  139loPI   GL2 2214  10.461   5.114  10.204  0.0806  0.0537  0.1587
  139loPI   C1A 2215  10.886   5.036   9.980 -0.1374 -0.0088 -0.2788
  139loPI   C2A 2216  11.113   5.140   9.463 -0.1634 -0.3281 -0.0519
  139loPI   C3A 2217  11.066   5.316   9.149 -0.0999 -0.3328  0.1884
  139loPI   C4A 2218  11.338   5.406   8.754 -0.0085 -0.1369  0.0553
  139loPI   C5A 2219  11.743   5.529   8.432  0.0161  0.1067 -0.3633
  139loPI   C6A 2220  12.093   5.828   8.397 -0.1058 -0.2935 -0.1426
  139loPI   C1B 2221  10.193   4.828  10.033 -0.0572 -0.0372  0.1944
  139loPI   C2B 2222  10.127   4.631   9.656 -0.2998  0.0505 -0.0846
  139loPI   C3B 2223  10.213   4.536   9.240 -0.0396  0.4329 -0.1179
  139loPI   C4B 2224  10.130   4.247   8.867 -0.2582  0.2913  0.0510
  140loPI    C1 2225  15.381   0.507  11.056 -0.0483 -0.1410 -0.1579
  140loPI    C2 2226  15.173   0.531  11.397 -0.1850 -0.0422 -0.2473
  140loPI    C3 2227  15.573   0.517  11.407 -0.1917 -0.1425 -0.0789
  140loPI   PO4 2228  15.183   0.530  10.823  0.2674 -0.1852 -0.0507
  140loPI   GL1 2229  15.162   0.642  10.438  0.1111  0.4056  0.1756
  140loPI   GL2 2230  14.980   0.362  10.378 -0.2585 -0.3959  0.1559
  140loPI   C1A 2231  15.239   0.721  10.028 -0.0281 -0.2237  0.0760
  140loPI   C2A 2232  15.245   0.703   9.592 -0.0857 -0.2436 -0.2266
  140loPI   C3A 2233  15.223   0.612   9.171 -0.2577 -0.0212 -0.3150
  140loPI   C4A 2234  15.234   0.467   8.664 -0.3034 -0.1895 -0.0709
  140loPI   C5A 2235  15.311   0.440   8.217 -0.1699  0.1988 -0.1358
  140loPI   C6A 2236  15.426   0.588   7.790 -0.1221  0.2591 -0.1259
  140loPI   C1B 2237  14.990   0.234   9.947  0.0689 -0.0180 -0.3698
  140loPI   C2B 2238  15.040   0.210   9.547  0.0875  0.1410 -0.1546
  140loPI   C3B 2239  14.952   0.190   9.111  0.5047 -0.2331  0.1537
  140loPI   C4B 2240  14.971   0.057   8.715 -0.1278  0.0777 -0.3584
  141loPI    C1 2241   4.974  16.251  11.453 -0.0481 -0.2084 -0.1768
  141loPI    C2 2242   5.371  16.275  11.414 -0.0404 -0.1209 -0.0483
  141loPI    C3 2243   5.155  16.607  11.470 -0.1404 -0.1600 -0.1971
  141loPI   PO4 2244   4.915  16.117  11.253 -0.1725  0.0464  0.0635
  141loPI   GL1 2245   4.740  15.978  10.799  0.0740 -0.1534  0.1521
  141loPI   GL2 2246   5.038  15.924  10.760 -0.0747  0.1366  0.4677
  141loPI   C1A 2247   4.761  15.925  10.322  0.1068  0.1265  0.3077
  141loPI   C2A 2248   4.580  15.939   9.948  0.1146 -0.0779 -0.0872
  141loPI   C3A 2249   4.489  15.958   9.440  0.1401 -0.4066  0.2217
  141loPI   C4A 2250   4.500  15.908   9.106  0.2691 -0.3556 -0.2382
  141loPI   C5A 2251   4.568  15.837   8.718  0.2574 -0.0030 -0.0871
  141loPI   C6A 2252   4.519  15.693   8.263  0.0836 -0.2147 -0.0704
  141loPI   C1B 2253   5.218  15.942  10.360 -0.0413  0.0825  0.0417
  141loPI   C2B 2254   5.111  15.920   9.997  0.2569 -0.2609  0.1598
  141loPI   C3B 2255   5.054  15.909   9.525 -0.0084 -0.2986  0.1067
  141loPI   C4B 2256   5.053  15.914   9.003 -0.0255  0.3501  0.0108
  142loPI    C1 2257  16.604   2.567  11.316  0.2814 -0.0442 -0.1650
  142loPI    C2 2258  16.511   2.655  11.695  0.0954 -0.2391 -0.1630
  142loPI    C3 2259  16.688   2.929  11.463  0.1310 -0.0896  0.0377
  142loPI   PO4 2260  16.455   2.559  11.168  0.0379  0.1083 -0.1153
  142loPI   GL1 2261  16.380   2.470  10.702 -0.0399 -0.1560 -0.1880
  142loPI   GL2 2262  16.296   2.870  10.744 -0.0095  0.0557  0.2387
  142loPI   C1A 2263  16.280   2.453  10.260 -0.0473 -0.0495  0.1636
  142loPI   C2A 2264  16.378   2.379   9.830  0.0131  0.2203  0.0440
  142loPI   C3A 2265  16.279   2.421   9.409  0.2769 -0.1964 -0.2031
  142loPI   C4A 2266  16.228   2.425   8.982  0.0684 -0.0672  0.0783
  142loPI   C5A 2267  16.507   2.645   8.590 -0.0801 -0.1181  0.1468
  142loPI   C6A 2268  16.697   2.965   8.373 -0.1531  0.1753  0.1126
  142loPI   C1B 2269  16.566   2.877  10.383 -0.0510 -0.1757 -0.1704
  142loPI   C2B 2270  16.579   2.843   9.990  0.0697  0.2465 -0.0373
  142loPI   C3B 2271  16.570   2.787   9.546  0.2914 -0.0280 -0.0205
  142loPI   C4B 2272  16.551   2.803   9.087 -0.2331 -0.0067 -0.0083
  143loPI    C1 2273  15.315   7.713  11.419  0.0812 -0.1742  0.0257
  143loPI    C2 2274  15.469   7.990  11.662  0.0401 -0.1193 -0.0106
  143loPI    C3 2275  15.318   7.652  11.814 -0.0369 -0.0604  0.0446
  143loPI   PO4 2276  15.256   7.841  11.195  0.0444 -0.0487 -0.3232
  143loPI   GL1 2277  15.360   7.642  10.816 -0.0488  0.0743 -0.0570
  143loPI   GL2 2278  15.461   7.403  10.605 -0.0915 -0.2508 -0.0437
  143loPI   C1A 2279  15.196   7.791  10.422 -0.1399  0.0492  0.0804
  143loPI   C2A 2280  15.279   7.833   9.971 -0.1714  0.0837 -0.2600
  143loPI   C3A 2281  15.248   7.816   9.592  0.3699  0.0620  0.1209
  143loPI   C4A 2282  15.128   7.915   9.097 -0.1327  0.1587  0.0997
  143loPI   C5A 2283  15.183   7.886   8.715  0.1902  0.0938  0.0917
  143loPI   C6A 2284  15.529   7.812   8.388 -0.1364 -0.0998 -0.2599
  143loPI   C1B 2285  15.419   7.413  10.184 -0.1444  0.0632  0.1428
  143loPI   C2B 2286  15.566   7.379   9.797  0.0683  0.0192 -0.0179
  143loPI   C3B 2287  15.526   7.394   9.364 -0.1651  0.2606  0.0706
  143loPI   C4B 2288  15.380   7.494   8.924  0.0631 -0.3984  0.1622
  144loPI    C1 2289  16.241   3.093  11.237  0.0573 -0.1614  0.0427
  144loPI    C2 2290  16.119   2.782  11.456 -0.2648  0.0573  0.1836
  144loPI    C3 2291  16.242   3.117  11.636  0.0276  0.0350  0.0323
  144loPI   PO4 2292  16.003   3.171  11.082  0.1116  0.2105  0.0526
  144loPI   GL1 2293  15.807   3.045  10.728  0.1899 -0.0750 -0.3886
  144loPI   GL2 2294  15.757   3.286  10.549  0.0015 -0.0877 -0.0078
  144loPI   C1A 2295  15.957   2.855  10.336 -0.0456  0.1211 -0.0168
  144loPI   C2A 2296  16.040   2.790   9.920  0.0682  0.1153  0.0996
  144loPI   C3A 2297  15.986   2.822   9.458 -0.1251  0.2473  0.1434
  144loPI   C4A 2298  16.063   2.872   9.108 -0.0578  0.1702  0.3092
  144loPI   C5A 2299  15.994   2.804   8.725  0.0386  0.0662  0.0653
  144loPI   C6A 2300  16.153   2.940   8.376  0.3511 -0.2254 -0.0734
  144loPI   C1B 2301  15.769   3.359  10.126  0.1585  0.4453  0.2517
  144loPI   C2B 2302  15.717   3.288   9.726 -0.1198  0.0335 -0.0520
  144loPI   C3B 2303  15.804   3.307   9.342 -0.0986 -0.5021  0.1518
  144loPI   C4B 2304  15.900   3.343   8.826 -0.0788  0.0168 -0.0097
  145loPI    C1 2305  13.517  10.991  11.395 -0.1210 -0.2737  0.0828
  145loPI    C2 2306  13.259  11.260  11.540 -0.1997 -0.2276 -0.1394
  145loPI    C3 2307  13.463  11.024  11.790 -0.2367 -0.0610  0.0506
  145loPI   PO4 2308  13.443  10.888  11.148  0.2625  0.1406 -0.0940
  145loPI   GL1 2309  13.280  10.817  10.755  0.0803 -0.2947 -0.2159
  145loPI   GL2 2310  13.170  10.602  10.586  0.0154 -0.1195  0.0811
  145loPI   C1A 2311  13.496  10.936  10.392 -0.0867  0.0908  0.0380
  145loPI   C2A 2312  13.471  11.016   9.979  0.0125  0.3979 -0.1157
  145loPI   C3A 2313  13.411  11.001   9.489  0.3184 -0.1211  0.0378
  145loPI   C4A 2314  13.425  11.045   9.025 -0.1990 -0.2188 -0.3191
  145loPI   C5A 2315  13.221  11.063   8.695  0.1166  0.0504 -0.0423
  145loPI   C6A 2316  13.084  11.264   8.288  0.2111  0.2427 -0.2610
  145loPI   C1B 2317  13.246  10.529  10.092 -0.2501  0.1889 -0.1070
  145loPI   C2B 2318  13.072  10.522   9.770  0.2686 -0.0894 -0.0900
  145loPI   C3B 2319  13.137  10.497   9.318  0.1811 -0.0034  0.2225
  145loPI   C4B 2320  13.158  10.550   8.879 -0.0978 -0.3601  0.0395
  146loPI    C1 2321   8.373   7.668  11.359  0.0430  0.0255  0.0206
  146loPI    C2 2322   8.440   7.823  10.997  0.1951  0.2364  0.1368
  146loPI    C3 2323   8.651   7.507  11.122 -0.0669 -0.0276 -0.0732
  146loPI   PO4 2324   8.102   7.727  11.370 -0.1324 -0.0614 -0.2029
  146loPI   GL1 2325   7.961   7.862  11.034 -0.1422 -0.0554  0.0682
  146loPI   GL2 2326   7.807   8.102  10.959 -0.1589  0.1835 -0.0286
  146loPI   C1A 2327   8.103   7.849  10.636  0.0588  0.2621 -0.2465
  146loPI   C2A 2328   8.114   7.754  10.286  0.1821 -0.0021  0.2790
  146loPI   C3A 2329   8.081   7.809   9.913 -0.2103 -0.2964  0.0121
  146loPI   C4A 2330   8.071   7.816   9.469 -0.0294 -0.1150 -0.5395
  146loPI   C5A 2331   8.024   7.830   9.058  0.0117  0.2083  0.0665
  146loPI   C6A 2332   8.076   7.756   8.607  0.0058 -0.2940 -0.0865
  146loPI   C1B 2333   7.806   8.259  10.574 -0.0903  0.0383  0.4852
  146loPI   C2B 2334   7.829   8.239  10.200  0.0850 -0.1120  0.2393
  146loPI   C3B 2335   7.835   8.260   9.785 -0.1314  0.1485 -0.0988
  146loPI   C4B 2336   7.829   8.266   9.340 -0.1224 -0.3342 -0.0343
  147loPI    C1 2337   8.703  17.485  11.562 -0.0610  0.2891 -0.1245
  147loPI    C2 2338   8.728  17.884  11.573  0.2047  0.2691  0.0682
  147loPI    C3 2339   8.896  17.665  11.863  0.1365  0.0134 -0.0831
  147loPI   PO4 2340   8.646  17.421  11.276 -0.3336  0.0865  0.1721
  147loPI   GL1 2341   8.580  17.127  10.973 -0.4149 -0.0363  0.0239
  147loPI   GL2 2342   8.395  17.209  10.824  0.4225  0.3200 -0.3350
  147loPI   C1A 2343   8.823  17.265  10.530 -0.0825  0.0586 -0.0839
  147loPI   C2A 2344   8.875  17.222  10.154  0.0461 -0.1623  0.0846
  147loPI   C3A 2345   8.861  17.323   9.756  0.3159 -0.0123  0.0289
  147loPI   C4A 2346   8.832  17.258   9.256  0.2046 -0.0598 -0.2201
  147loPI   C5A 2347   8.833  17.319   8.894 -0.4889 -0.0943 -0.0966
  147loPI   C6A 2348   8.694  17.396   8.478  0.1816 -0.1045  0.2210
  147loPI   C1B 2349   8.361  17.324  10.447  0.1625  0.1564 -0.0788
  147loPI   C2B 2350   8.397  17.222   9.959  0.0022 -0.1081 -0.1486
  147loPI   C3B 2351   8.354  17.257   9.510  0.0982 -0.2292  0.2588
  147loPI   C4B 2352   8.333  17.287   9.050  0.0946  0.1764  0.4315
  148loPI    C1 2353   5.362  11.609  11.308 -0.1100  0.0239 -0.0918
  148loPI    C2 2354   5.513  11.619  11.678  0.0104 -0.0252 -0.1391
  148loPI    C3 2355   5.138  11.741  11.612 -0.0203 -0.0409  0.0031
  148loPI   PO4 2356   5.428  11.467  11.207 -0.0874  0.0099  0.0390
  148loPI   GL1 2357   5.744  11.258  10.961 -0.1540 -0.0610  0.0825
  148loPI   GL2 2358   5.801  10.879  10.793 -0.1363 -0.3583  0.0915
  148loPI   C1A 2359   5.524  11.237  10.526 -0.0372 -0.2060  0.1064
  148loPI   C2A 2360   5.459  11.331  10.060 -0.0654 -0.0377 -0.1609
  148loPI   C3A 2361   5.474  11.436   9.641  0.0706 -0.0154  0.0486
  148loPI   C4A 2362   5.469  11.483   9.222 -0.1294  0.1983 -0.0959
  148loPI   C5A 2363   5.324  11.417   8.795  0.0943 -0.1982 -0.0946
  148loPI   C6A 2364   5.288  11.477   8.424  0.0156 -0.1460 -0.2505
  148loPI   C1B 2365   5.835  10.906  10.279  0.1110  0.1751 -0.0460
  148loPI   C2B 2366   5.694  10.986   9.844  0.1065  0.0085  0.1582
  148loPI   C3B 2367   5.810  11.042   9.429  0.1025  0.1048 -0.1512
  148loPI   C4B 2368   5.747  11.123   8.916  0.2014  0.1292  0.0903
  149loPI    C1 2369   5.648  11.073  11.431  0.0124 -0.0426 -0.2238
  149loPI    C2 2370   5.278  11.133  11.569  0.0517  0.0256 -0.1467
  149loPI    C3 2371   5.578  11.063  11.825  0.1047  0.0406 -0.2046
  149loPI   PO4 2372   5.625  10.825  11.231  0.0673 -0.1364 -0.2473
  149loPI   GL1 2373   5.315  10.595  10.901 -0.1141 -0.0400  0.2223
  149loPI   GL2 2374   5.448  10.471  10.679  0.3278  0.1645 -0.1060
  149loPI   C1A 2375   5.169  10.825  10.500  0.0711 -0.2950  0.0178
  149loPI   C2A 2376   5.230  10.859  10.047 -0.1124  0.1559  0.0462
  149loPI   C3A 2377   5.216  10.952   9.676 -0.0579 -0.0140 -0.1291
  149loPI   C4A 2378   5.219  11.010   9.135 -0.0022 -0.0085 -0.0869
  149loPI   C5A 2379   5.321  10.946   8.684 -0.3376  0.0237 -0.1185
  149loPI   C6A 2380   5.523  10.973   8.323  0.2405 -0.0782 -0.0559
  149loPI   C1B 2381   5.563  10.482  10.299  0.0248  0.1666  0.1438
  149loPI   C2B 2382   5.601  10.497   9.856 -0.1064 -0.0412 -0.3940
  149loPI   C3B 2383   5.555  10.400   9.483  0.2279 -0.0344 -0.3125
  149loPI   C4B 2384   5.518  10.624   9.153 -0.0330  0.1827  0.1663
  150loPI    C1 2385   4.281  14.360  11.503  0.0566 -0.1427  0.1888
  150loPI    C2 2386   3.953  14.185  11.650  0.0208 -0.1794  0.0662
  150loPI    C3 2387   3.982  14.584  11.645  0.0812 -0.1794  0.2995
  150loPI   PO4 2388   4.329  14.303  11.261  0.0536 -0.0365  0.1584
  150loPI   GL1 2389   4.301  14.393  10.881 -0.0311 -0.0098  0.1354
  150loPI   GL2 2390   4.112  14.170  10.773 -0.1065 -0.0090 -0.0046
  150loPI   C1A 2391   4.259  14.485  10.427 -0.1712  0.0470  0.0791
  150loPI   C2A 2392   4.194  14.607   9.954 -0.0610  0.1121 -0.0942
  150loPI   C3A 2393   4.353  14.652   9.567 -0.2717  0.2336  0.2229
  150loPI   C4A 2394   4.315  14.589   9.139  0.1079  0.0338 -0.1907
  150loPI   C5A 2395   4.222  14.694   8.766  0.1059  0.2237  0.0826
  150loPI   C6A 2396   4.403  14.727   8.406 -0.1655 -0.2567  0.2703
  150loPI   C1B 2397   3.941  14.119  10.357 -0.0561  0.3405  0.2614
  150loPI   C2B 2398   3.975  14.102  10.013  0.3044  0.3339 -0.0604
  150loPI   C3B 2399   4.009  14.183   9.626 -0.1747 -0.3708  0.1897
  150loPI   C4B 2400   4.022  14.054   9.188  0.1177 -0.0043 -0.3525
  151loPI    C1 2401   7.046  17.113  11.169  0.1128  0.0211  0.2801
  151loPI    C2 2402   6.939  16.848  11.449 -0.0287  0.1250  0.3253
  151loPI    C3 2403   6.821  17.229  11.479 -0.0955  0.1240  0.0931
  151loPI   PO4 2404   7.021  17.016  10.977  0.0062 -0.2037 -0.0198
  151loPI   GL1 2405   7.165  16.916  10.548  0.1314  0.1550 -0.1863
  151loPI   GL2 2406   7.353  17.089  10.509  0.1485  0.2378  0.0224
  151loPI   C1A 2407   7.129  16.818  10.120  0.0620 -0.1084  0.1849
  151loPI   C2A 2408   7.112  16.807   9.610  0.0064 -0.0745  0.0053
  151loPI   C3A 2409   6.980  16.926   9.200 -0.0574  0.0670  0.0714
  151loPI   C4A 2410   7.071  16.806   8.816  0.1141  0.1750 -0.0549
  151loPI   C5A 2411   6.993  16.900   8.442 -0.2046 -0.1231 -0.0052
  151loPI   C6A 2412   6.661  17.119   8.170  0.0637  0.0085  0.0739
  151loPI   C1B 2413   7.410  17.243  10.094  0.0741 -0.1729 -0.0437
  151loPI   C2B 2414   7.333  17.296   9.627 -0.1034  0.0420 -0.0387
  151loPI   C3B 2415   7.346  17.349   9.153  0.0694 -0.1687  0.2086
  151loPI   C4B 2416   7.273  17.267   8.702  0.2191  0.2684 -0.1839
  152loPI    C1 2417   0.421   2.000  11.370  0.1287  0.0750  0.0810
  152loPI    C2 2418   0.199   1.943  11.699  0.0680  0.1902  0.0607
  152loPI    C3 2419   0.563   1.778  11.671 -0.0301 -0.0322  0.0780
  152loPI   PO4 2420   0.183   1.946  11.132 -0.3175 -0.0948 -0.3337
  152loPI   GL1 2421   0.307   1.725  10.814 -0.2235 -0.3608 -0.1548
  152loPI   GL2 2422   0.148   1.786  10.636  0.1165 -0.0516  0.0898
  152loPI   C1A 2423   0.559   1.816  10.445 -0.2861  0.1258 -0.0260
  152loPI   C2A 2424   0.645   1.898   9.986  0.0165 -0.1208  0.1273
  152loPI   C3A 2425   0.616   1.876   9.555  0.1664 -0.1527 -0.0486
  152loPI   C4A 2426   0.644   1.940   9.168  0.0692 -0.0213 -0.0777
  152loPI   C5A 2427   0.670   1.747   8.732  0.0688  0.0057  0.2932
  152loPI   C6A 2428   0.470   1.644   8.232  0.0893  0.0741 -0.0249
  152loPI   C1B 2429   0.099   1.858  10.314 -0.0376  0.1614  0.3126
  152loPI   C2B 2430   0.142   1.930   9.917 -0.2831 -0.1440  0.0062
  152loPI   C3B 2431   0.152   1.955   9.413  0.1044  0.2829 -0.0776
  152loPI   C4B 2432   0.164   1.939   8.977  0.0527 -0.0387  0.2279
  153loPI    C1 2433  14.612   1.610  11.145  0.1271 -0.0092  0.1212
  153loPI    C2 2434  14.583   1.519  11.533 -0.1798  0.0317  0.1100
  153loPI    C3 2435  14.256   1.622  11.327 -0.0437 -0.1379 -0.1965
  153loPI   PO4 2436  14.794   1.765  11.042 -0.0502 -0.1048  0.1754
  153loPI   GL1 2437  14.750   1.959  10.799  0.2998 -0.2071  0.2024
  153loPI   GL2 2438  14.931   2.124  10.642 -0.1508  0.0778 -0.1858
  153loPI   C1A 2439  14.438   2.008  10.489  0.0074 -0.0511 -0.0110
  153loPI   C2A 2440  14.439   1.969  10.051  0.0234  0.1421 -0.0710
  153loPI   C3A 2441  14.425   1.980   9.647 -0.1269  0.0072  0.1604
  153loPI   C4A 2442  14.522   1.952   9.181 -0.0450 -0.0591  0.1169
  153loPI   C5A 2443  14.603   1.907   8.828  0.1427 -0.1094 -0.2052
  153loPI   C6A 2444  14.812   1.935   8.505  0.2390  0.0379  0.2525
  153loPI   C1B 2445  14.959   2.043  10.248 -0.0228 -0.0860  0.2405
  153loPI   C2B 2446  14.959   2.079   9.811 -0.1216  0.3783  0.2066
  153loPI   C3B 2447  15.011   2.031   9.361  0.1979  0.3973 -0.0771
  153loPI   C4B 2448  15.021   2.206   8.936 -0.1981  0.2904 -0.2865
  154loPI    C1 2449   0.394  15.878  11.683  0.0068  0.3844  0.1282
  154loPI    C2 2450   0.189  15.676  11.961  0.0762  0.0965 -0.0257
  154loPI    C3 2451   0.564  15.794  12.035  0.1087 -0.0149 -0.0107
  154loPI   PO4 2452   0.364  15.787  11.461  0.0739  0.0681  0.0222
  154loPI   GL1 2453   0.201  15.706  11.026  0.0763  0.1977  0.0198
  154loPI   GL2 2454   0.044  15.592  10.747  0.2093  0.2216 -0.0279
  154loPI   C1A 2455   0.354  15.892  10.583 -0.0058 -0.0275  0.1258
  154loPI   C2A 2456   0.441  15.950  10.217  0.0480  0.0764  0.1693
  154loPI   C3A 2457   0.349  15.912   9.829  0.1500 -0.0899 -0.2177
  154loPI   C4A 2458   0.291  15.888   9.346  0.0010  0.0082  0.2657
  154loPI   C5A 2459   0.530  15.914   8.957  0.2977 -0.4110  0.1355
  154loPI   C6A 2460   0.905  16.147   8.931 -0.2147  0.2385 -0.0814
  154loPI   C1B 2461   0.013  15.467  10.399 -0.2603 -0.0397 -0.0153
  154loPI   C2B 2462   0.104  15.389   9.980 -0.0435 -0.2731  0.0356
  154loPI   C3B 2463   0.044  15.438   9.577 -0.0394  0.4311 -0.0360
  154loPI   C4B 2464   0.050  15.364   9.097 -0.1964  0.0116  0.0229
  155loPI    C1 2465   6.303   9.635  11.410  0.0617 -0.0228 -0.0487
  155loPI    C2 2466   6.624   9.789  11.593 -0.0964  0.1152  0.1171
  155loPI    C3 2467   6.447   9.462  11.741 -0.1837  0.1874  0.1727
  155loPI   PO4 2468   6.373   9.620  11.177  0.3322 -0.2312 -0.0659
  155loPI   GL1 2469   6.445   9.298  10.833  0.2384  0.0268 -0.1305
  155loPI   GL2 2470   6.642   9.541  10.696  0.0159  0.1304  0.0782
  155loPI   C1A 2471   6.264   9.099  10.511 -0.0176 -0.0483  0.1851
  155loPI   C2A 2472   6.271   9.090  10.037  0.0160  0.0585  0.4539
  155loPI   C3A 2473   6.288   9.102   9.568 -0.2606  0.0002  0.1899
  155loPI   C4A 2474   6.342   9.220   9.093 -0.0195  0.4456  0.0923
  155loPI   C5A 2475   6.019   9.235   8.756  0.2262  0.1161 -0.1954
  155loPI   C6A 2476   5.679   9.259   8.542  0.1230 -0.0384  0.1191
  155loPI   C1B 2477   6.537   9.605  10.237  0.0555 -0.3012  0.3059
  155loPI   C2B 2478   6.481   9.525   9.797  0.0139 -0.1881  0.0230
  155loPI   C3B 2479   6.623   9.563   9.368 -0.0890 -0.3643 -0.2691
  155loPI   C4B 2480   6.634   9.581   8.929 -0.2678 -0.1525 -0.0703
  156loPI    C1 2481  10.234  15.722  11.409 -0.3617 -0.0417  0.2350
  156loPI    C2 2482  10.460  16.033  11.521 -0.1191 -0.1253 -0.0088
  156loPI    C3 2483  10.364  15.748  11.786 -0.0841 -0.0010  0.1386
  156loPI   PO4 2484  10.360  15.660  11.194  0.4297  0.2819 -0.2314
  156loPI   GL1 2485  10.034  15.593  10.854 -0.0932 -0.0964  0.1034
  156loPI   GL2 2486  10.279  15.880  10.736  0.2256  0.3065  0.0550
  156loPI   C1A 2487   9.902  15.440  10.531  0.1295 -0.0383 -0.0278
  156loPI   C2A 2488   9.963  15.369  10.172 -0.0545 -0.0259 -0.0540
  156loPI   C3A 2489   9.917  15.466   9.706  0.1583  0.0763 -0.1608
  156loPI   C4A 2490   9.892  15.474   9.228  0.0796 -0.1511  0.1008
  156loPI   C5A 2491   9.957  15.390   8.767 -0.0713  0.0415  0.3373
  156loPI   C6A 2492   9.931  15.439   8.438 -0.0942  0.0779  0.2019
  156loPI   C1B 2493  10.150  15.830  10.298 -0.2511  0.1531  0.0689
  156loPI   C2B 2494  10.158  15.930   9.888  0.0053 -0.0001  0.0802
  156loPI   C3B 2495  10.155  15.953   9.386  0.1393  0.1152 -0.2003
  156loPI   C4B 2496  10.221  15.899   8.938 -0.1437 -0.0711 -0.0831
  157loPI    C1 2497  14.746   2.198  11.341 -0.0776  0.1295 -0.1576
  157loPI    C2 2498  14.732   2.489  11.614 -0.1155  0.0297 -0.0523
  157loPI    C3 2499  14.413   2.255  11.556  0.0146 -0.1832  0.0763
  157loPI   PO4 2500  14.777   2.382  11.087 -0.1722  0.0302  0.3806
  157loPI   GL1 2501  14.632   2.478  10.808  0.0214  0.3312 -0.1498
  157loPI   GL2 2502  14.757   2.768  10.648 -0.2942  0.3402 -0.0877
  157loPI   C1A 2503  14.697   2.420  10.358 -0.1708  0.2427 -0.0002
  157loPI   C2A 2504  14.716   2.511   9.936 -0.3036 -0.3521  0.1633
  157loPI   C3A 2505  14.585   2.593   9.531  0.0289  0.0099  0.0079
  157loPI   C4A 2506  14.649   2.436   9.176  0.3007 -0.0983  0.1748
  157loPI   C5A 2507  14.801   2.577   8.708 -0.2375 -0.1170  0.0799
  157loPI   C6A 2508  15.051   2.832   8.410  0.1350  0.1670  0.2786
  157loPI   C1B 2509  14.917   2.940  10.205  0.1328 -0.0069 -0.2504
  157loPI   C2B 2510  15.018   2.859   9.764  0.0640 -0.0529  0.1071
  157loPI   C3B 2511  14.948   2.961   9.392 -0.0666  0.3109  0.2152
  157loPI   C4B 2512  14.796   2.913   9.089  0.0106 -0.0972 -0.0508
  158loPI    C1 2513  12.348   2.310  10.943  0.0524 -0.0704 -0.0070
  158loPI    C2 2514  12.330   1.992  11.184 -0.0076 -0.0492  0.0171
  158loPI    C3 2515  12.180   2.342  11.305  0.1286  0.0082  0.0216
  158loPI   PO4 2516  12.153   2.249  10.722 -0.1229 -0.0570 -0.2338
  158loPI   GL1 2517  12.268   2.539  10.391  0.2079 -0.0590  0.1864
  158loPI   GL2 2518  12.111   2.818  10.176 -0.0289  0.1786 -0.1402
  158loPI   C1A 2519  12.521   2.366  10.060  0.1066  0.0678  0.0587
  158loPI   C2A 2520  12.625   2.456   9.634 -0.1882 -0.0286 -0.0420
  158loPI   C3A 2521  12.779   2.526   9.221 -0.0724 -0.1305  0.0142
  158loPI   C4A 2522  12.875   2.913   9.136  0.1291  0.1902  0.1438
  158loPI   C5A 2523  12.900   3.233   8.813 -0.1982  0.0321  0.0335
  158loPI   C6A 2524  12.867   3.398   8.314 -0.1130 -0.0354 -0.1507
  158loPI   C1B 2525  12.480   2.887   9.894 -0.2163  0.0369 -0.0340
  158loPI   C2B 2526  12.578   3.260   9.736 -0.0274  0.0050 -0.5296
  158loPI   C3B 2527  12.977   3.365   9.456  0.2394  0.0515  0.2207
  158loPI   C4B 2528  13.303   3.366   9.179 -0.0285  0.0544 -0.0957
  159loPI    C1 2529   2.560  12.087  11.131  0.0363  0.0921  0.1335
  159loPI    C2 2530   2.688  12.226  11.484 -0.2281  0.3300  0.1391
  159loPI    C3 2531   2.342  12.027  11.461  0.0507 -0.1660  0.0979
  159loPI   PO4 2532   2.846  12.136  11.018 -0.1858 -0.1387  0.0681
  159loPI   GL1 2533   3.009  12.305  10.693 -0.0707  0.1447 -0.1289
  159loPI   GL2 2534   3.081  12.580  10.541  0.0098  0.2719 -0.0214
  159loPI   C1A 2535   2.864  12.171  10.285 -0.1284 -0.0641 -0.2348
  159loPI   C2A 2536   2.934  12.207   9.873  0.0599  0.0220  0.2020
  159loPI   C3A 2537   2.895  12.326   9.433  0.1557 -0.2838 -0.1366
  159loPI   C4A 2538   2.931  12.339   8.999  0.1440  0.2202  0.0838
  159loPI   C5A 2539   3.068  12.359   8.507  0.1298 -0.2143 -0.1702
  159loPI   C6A 2540   2.925  12.338   8.101 -0.0119  0.0582 -0.0805
  159loPI   C1B 2541   3.178  12.631  10.146 -0.1406 -0.2578 -0.1867
  159loPI   C2B 2542   3.162  12.706   9.750  0.1549  0.0945 -0.1227
  159loPI   C3B 2543   3.083  12.780   9.367 -0.0936 -0.0645  0.1268
  159loPI   C4B 2544   3.159  12.834   8.934 -0.0651  0.2108 -0.0370
  160loPI    C1 2545   3.935   5.295  11.678  0.3113  0.2107 -0.1615
  160loPI    C2 2546   3.768   5.541  11.946  0.2124  0.1557 -0.1725
  160loPI    C3 2547   4.018   5.254  12.067  0.1588  0.1235 -0.1372
  160loPI   PO4 2548   4.028   5.316  11.522  0.1193  0.1181  0.1396
  160loPI   GL1 2549   4.138   5.507  11.009 -0.0191 -0.1946 -0.0042
  160loPI   GL2 2550   4.431   5.557  10.902 -0.4880 -0.1075  0.1847
  160loPI   C1A 2551   3.778   5.473  10.729 -0.1942 -0.0247  0.3223
  160loPI   C2A 2552   3.750   5.464  10.221 -0.0112  0.3337 -0.0470
  160loPI   C3A 2553   3.795   5.482   9.748  0.0378 -0.0469  0.0785
  160loPI   C4A 2554   3.700   5.474   9.291  0.3020  0.0586  0.1070
  160loPI   C5A 2555   3.834   5.397   8.840  0.2337 -0.0891  0.1063
  160loPI   C6A 2556   3.850   5.655   8.353  0.1229 -0.2887 -0.0157
  160loPI   C1B 2557   4.381   5.550  10.452 -0.2313 -0.0491  0.1627
  160loPI   C2B 2558   4.270   5.533   9.984 -0.1083  0.1000 -0.0351
  160loPI   C3B 2559   4.246   5.571   9.548  0.0019  0.0574 -0.2790
  160loPI   C4B 2560   4.173   5.477   9.159  0.1720 -0.0625  0.3140
  161loPI    C1 2561  16.351   3.602  11.043 -0.0719 -0.0984 -0.0623
  161loPI    C2 2562  16.750   3.620  11.065 -0.0809  0.1142 -0.0519
  161loPI    C3 2563  16.540   3.479  11.374 -0.0121 -0.0432 -0.0755
  161loPI   PO4 2564  16.329   3.403  10.760 -0.0836 -0.1703  0.1915
  161loPI   GL1 2565  16.273   3.506  10.456  0.0553  0.3074  0.3034
  161loPI   GL2 2566  16.074   3.705  10.443  0.1110 -0.0977 -0.1807
  161loPI   C1A 2567  16.275   3.224  10.143 -0.2021  0.0002 -0.3260
  161loPI   C2A 2568  16.268   3.214   9.713 -0.1317  0.3178 -0.0317
  161loPI   C3A 2569  16.353   3.293   9.247 -0.0073  0.3827 -0.0725
  161loPI   C4A 2570  16.375   3.150   8.843 -0.1570  0.0231  0.2347
  161loPI   C5A 2571  16.393   3.379   8.488 -0.1165  0.4018 -0.2095
  161loPI   C6A 2572  16.203   3.508   8.158  0.1090 -0.4503 -0.0654
  161loPI   C1B 2573  16.122   3.700   9.997  0.0067  0.2472 -0.1541
  161loPI   C2B 2574  16.003   3.709   9.582 -0.0021  0.2360  0.2762
  161loPI   C3B 2575  16.072   3.841   9.126 -0.1758 -0.0209  0.1336
  161loPI   C4B 2576  16.033   3.807   8.607 -0.0948 -0.0273  0.0142
  162loPI    C1 2577   2.001  16.354  11.419  0.0953 -0.1216 -0.0618
  162loPI    C2 2578   2.268  16.606  11.578  0.1865 -0.1291 -0.2021
  162loPI    C3 2579   2.271  16.219  11.680 -0.0990 -0.0341  0.1890
  162loPI   PO4 2580   2.092  16.315  11.151 -0.0011  0.1211  0.4935
  162loPI   GL1 2581   2.272  16.360  10.720 -0.1068 -0.3746 -0.2185
  162loPI   GL2 2582   2.001  16.650  10.720 -0.1019  0.1059  0.2664
  162loPI   C1A 2583   2.210  16.274  10.216 -0.0049 -0.2194  0.2346
  162loPI   C2A 2584   2.211  16.342   9.688 -0.0339 -0.3042  0.1374
  162loPI   C3A 2585   2.103  16.366   9.313  0.1575  0.1259 -0.1295
  162loPI   C4A 2586   1.993  16.229   8.945 -0.0443 -0.0830 -0.0480
  162loPI   C5A 2587   2.136  16.267   8.542 -0.2674 -0.2586  0.1159
  162loPI   C6A 2588   2.331  16.185   8.138 -0.2369 -0.0904  0.2095
  162loPI   C1B 2589   1.988  16.689  10.268  0.0810  0.1898 -0.0035
  162loPI   C2B 2590   1.899  16.785   9.815 -0.0787  0.2455 -0.0868
  162loPI   C3B 2591   1.932  16.842   9.354 -0.0332  0.0390  0.1693
  162loPI   C4B 2592   1.858  16.688   8.920  0.0052  0.0087 -0.1149
  163loPI    C1 2593  17.651  13.285  11.231  0.1469  0.1156  0.0776
  163loPI    C2 2594  17.347  13.245  11.488 -0.0225  0.4177 -0.0700
  163loPI    C3 2595  17.677  13.441  11.599  0.0902  0.1576  0.0640
  163loPI   PO4 2596  17.492  13.180  11.020 -0.0067 -0.2677  0.4462
  163loPI   GL1 2597  17.247  13.210  10.732  0.0840  0.1782  0.1644
  163loPI   GL2 2598  16.954  13.268  10.510  0.2968  0.1646 -0.0751
  163loPI   C1A 2599  17.356  13.197  10.258 -0.3144 -0.1741  0.0611
  163loPI   C2A 2600  17.287  13.205   9.917  0.1321 -0.0765  0.1773
  163loPI   C3A 2601  17.251  13.155   9.412 -0.1359  0.3679  0.2016
  163loPI   C4A 2602  17.274  13.183   8.982  0.4488 -0.4638 -0.0990
  163loPI   C5A 2603  17.522  13.425   8.560  0.0899  0.2167  0.2522
  163loPI   C6A 2604  17.471  13.819   8.462 -0.1454  0.0943  0.2503
  163loPI   C1B 2605  16.787  13.164  10.081 -0.1420 -0.0614  0.0243
  163loPI   C2B 2606  16.755  13.203   9.617  0.1446 -0.2193 -0.3226
  163loPI   C3B 2607  16.804  13.186   9.139 -0.0539 -0.0951  0.0357
  163loPI   C4B 2608  16.784  13.180   8.696  0.0133 -0.1606 -0.1771
  164loPI    C1 2609   4.120  16.564  11.373 -0.0087 -0.3157  0.0381
  164loPI    C2 2610   4.149  16.857  11.644 -0.0655 -0.1895 -0.0911
  164loPI    C3 2611   4.164  16.475  11.761 -0.0246 -0.1360  0.0821
  164loPI   PO4 2612   3.947  16.749  11.178  0.1349  0.1911  0.1115
  164loPI   GL1 2613   3.877  16.859  10.802 -0.2021 -0.1851 -0.2108
  164loPI   GL2 2614   4.230  16.751  10.729 -0.2986 -0.1257  0.2321
  164loPI   C1A 2615   3.951  16.838  10.324  0.0801  0.1541 -0.1356
  164loPI   C2A 2616   3.980  16.726   9.874  0.2930  0.0098  0.1145
  164loPI   C3A 2617   3.977  16.806   9.443 -0.1480 -0.1333  0.0191
  164loPI   C4A 2618   3.975  16.833   8.979 -0.0007 -0.3280  0.4076
  164loPI   C5A 2619   4.391  16.902   8.617  0.0286 -0.1392  0.2654
  164loPI   C6A 2620   4.784  16.582   8.698  0.1009  0.0201  0.1227
  164loPI   C1B 2621   4.418  16.769  10.272  0.0817  0.2630 -0.1887
  164loPI   C2B 2622   4.561  16.737   9.836 -0.0199 -0.1807 -0.0101
  164loPI   C3B 2623   4.460  16.793   9.448 -0.1334 -0.2402 -0.0031
  164loPI   C4B 2624   4.531  16.811   9.083 -0.3894  0.2614 -0.0883
  165loPI    C1 2625  13.028  10.797  11.574 -0.0607  0.0349 -0.1133
  165loPI    C2 2626  13.304  10.510  11.540 -0.3369 -0.2455 -0.0301
  165loPI    C3 2627  13.176  10.622  11.902 -0.2969 -0.0805 -0.0664
  165loPI   PO4 2628  12.906  10.761  11.331  0.0288  0.5342  0.0742
  165loPI   GL1 2629  12.745  10.847  10.899 -0.5432  0.3566 -0.1915
  165loPI   GL2 2630  12.733  10.562  10.875  0.0902  0.1802  0.2749
  165loPI   C1A 2631  12.891  11.007  10.479 -0.1973  0.1195 -0.0240
  165loPI   C2A 2632  12.958  10.971  10.047  0.2198 -0.0226 -0.2109
  165loPI   C3A 2633  12.851  11.013   9.626  0.2832  0.1204  0.3069
  165loPI   C4A 2634  12.935  10.909   9.165  0.1515 -0.1230 -0.0872
  165loPI   C5A 2635  12.725  11.042   8.827  0.2924 -0.2951  0.3507
  165loPI   C6A 2636  12.282  11.147   8.851 -0.0153  0.2044  0.0263
  165loPI   C1B 2637  12.596  10.537  10.432  0.2066  0.1095  0.0089
  165loPI   C2B 2638  12.650  10.559  10.017 -0.0865  0.1044 -0.1398
  165loPI   C3B 2639  12.654  10.487   9.564 -0.1086  0.1857  0.1670
  165loPI   C4B 2640  12.609  10.573   9.060 -0.1884  0.0588 -0.0987
  166loPI    C1 2641   5.233  14.358  11.553  0.2131  0.1811 -0.0353
  166loPI    C2 2642   5.192  14.637  11.837  0.3032  0.0712  0.0866
  166loPI    C3 2643   5.289  14.262  11.937 -0.2116 -0.1041 -0.0380
  166loPI   PO4 2644   5.239  14.438  11.249 -0.0261 -0.1906 -0.0249
  166loPI   GL1 2645   5.460  14.646  11.014  0.3093 -0.1766 -0.3122
  166loPI   GL2 2646   5.516  15.035  11.072  0.0815 -0.3162  0.1780
  166loPI   C1A 2647   5.305  14.584  10.551  0.2155  0.0601  0.1058
  166loPI   C2A 2648   5.238  14.588  10.081 -0.0542  0.0594  0.2294
  166loPI   C3A 2649   5.355  14.567   9.657 -0.3830 -0.2191  0.1058
  166loPI   C4A 2650   5.397  14.549   9.156 -0.1133  0.0868 -0.0854
  166loPI   C5A 2651   5.225  14.673   8.677  0.2323  0.0641 -0.0324
  166loPI   C6A 2652   4.859  14.912   8.523  0.1301  0.1236  0.3611
  166loPI   C1B 2653   5.566  14.990  10.645 -0.0656  0.2958  0.1541
  166loPI   C2B 2654   5.554  14.966  10.206 -0.0302 -0.0646  0.1745
  166loPI   C3B 2655   5.586  15.044   9.738 -0.0382 -0.0033 -0.1532
  166loPI   C4B 2656   5.564  15.040   9.341 -0.2055 -0.1095 -0.2815
  167loPI    C1 2657   1.453  14.404  11.466 -0.0712  0.1060  0.1387
  167loPI    C2 2658   1.189  14.214  11.699 -0.0408 -0.0767  0.0260
  167loPI    C3 2659   1.582  14.159  11.755 -0.0297  0.0250  0.0516
  167loPI   PO4 2660   1.368  14.368  11.228 -0.2225 -0.0139  0.0217
  167loPI   GL1 2661   1.412  14.474  10.833 -0.1192  0.2578 -0.2161
  167loPI   GL2 2662   1.097  14.621  10.859 -0.0365 -0.0665 -0.0847
  167loPI   C1A 2663   1.603  14.519  10.389  0.2222  0.1740 -0.2278
  167loPI   C2A 2664   1.599  14.534   9.917 -0.0141 -0.3268  0.0651
  167loPI   C3A 2665   1.605  14.578   9.466 -0.0734 -0.0134 -0.0253
  167loPI   C4A 2666   1.656  14.400   9.027  0.1955  0.0910 -0.1602
  167loPI   C5A 2667   1.809  14.422   8.588 -0.2280 -0.1952  0.1529
  167loPI   C6A 2668   1.717  14.563   8.118 -0.1541  0.0617  0.1137
  167loPI   C1B 2669   1.101  14.586  10.418  0.0620 -0.1604 -0.0477
  167loPI   C2B 2670   1.144  14.532  10.017 -0.1484 -0.3064  0.0376
  167loPI   C3B 2671   1.086  14.524   9.583 -0.0147 -0.2959 -0.1313
  167loPI   C4B 2672   1.170  14.529   9.200 -0.3193  0.1327  0.3246
  168loPI    C1 2673   0.131   4.294  11.597  0.0831  0.0726 -0.1348
  168loPI    C2 2674   0.458   4.093  11.708  0.0274 -0.1514 -0.3670
  168loPI    C3 2675   0.145   4.117  11.956  0.1451 -0.1015 -0.2218
  168loPI   PO4 2676   0.273   4.361  11.377  0.1090 -0.0209  0.1765
  168loPI   GL1 2677   0.096   4.571  11.090  0.0954  0.3508  0.1746
  168loPI   GL2 2678   0.085   4.266  10.925 -0.2262 -0.0489 -0.1268
  168loPI   C1A 2679   0.097   4.759  10.691  0.0892  0.1317  0.0186
  168loPI   C2A 2680   0.069   4.675  10.289 -0.3071  0.1089  0.2223
  168loPI   C3A 2681   0.055   4.651   9.755 -0.2293 -0.0099 -0.1118
  168loPI   C4A 2682   0.035   4.655   9.323  0.3807 -0.0433  0.0578
  168loPI   C5A 2683  -0.011   4.640   8.832 -0.3023  0.1878 -0.1535
  168loPI   C6A 2684   0.096   4.995   8.692  0.2451 -0.0161  0.3251
  168loPI   C1B 2685  -0.097   4.285  10.532  0.2993  0.2029 -0.1019
  168loPI   C2B 2686  -0.176   4.207  10.066  0.3481  0.0511  0.1461
  168loPI   C3B 2687  -0.116   4.230   9.551 -0.1053  0.0552  0.3260
  168loPI   C4B 2688  -0.127   4.213   9.057  0.1113 -0.3881 -0.0794
  169loPI    C1 2689  15.668  15.555  11.574  0.2383  0.0131 -0.0101
  169loPI    C2 2690  15.372  15.690  11.807  0.1731 -0.0590 -0.0503
  169loPI    C3 2691  15.750  15.698  11.938  0.1717  0.1703 -0.0561
  169loPI   PO4 2692  15.562  15.337  11.444  0.0309 -0.3152 -0.0201
  169loPI   GL1 2693  15.494  15.330  11.112  0.0555  0.1412 -0.0129
  169loPI   GL2 2694  15.698  14.997  11.047  0.3039  0.1796  0.1936
  169loPI   C1A 2695  15.461  15.508  10.771  0.0673  0.2132 -0.0877
  169loPI   C2A 2696  15.541  15.476  10.389  0.0834  0.0786 -0.0009
  169loPI   C3A 2697  15.538  15.475   9.982 -0.1231 -0.1376 -0.0087
  169loPI   C4A 2698  15.543  15.453   9.527  0.0514  0.1228 -0.0359
  169loPI   C5A 2699  15.656  15.537   9.096 -0.1849  0.0887 -0.4949
  169loPI   C6A 2700  15.862  15.817   8.854  0.0087  0.2756 -0.0390
  169loPI   C1B 2701  15.735  15.085  10.629 -0.0371  0.2233 -0.0698
  169loPI   C2B 2702  15.806  15.085  10.174  0.0353  0.2167 -0.0341
  169loPI   C3B 2703  15.742  14.991   9.694  0.0425 -0.0053 -0.1600
  169loPI   C4B 2704  15.759  15.024   9.233 -0.1259  0.0973 -0.1817
  170loPI    C1 2705   9.610  18.035  11.284  0.0973 -0.0173 -0.2865
  170loPI    C2 2706   9.656  17.750  11.561  0.0606 -0.0319 -0.2956
  170loPI    C3 2707   9.917  18.052  11.539 -0.0462  0.0759 -0.1177
  170loPI   PO4 2708   9.547  17.904  11.129  0.0280 -0.1426 -0.1206
  170loPI   GL1 2709   9.507  17.796  10.740 -0.1922  0.0064 -0.0686
  170loPI   GL2 2710   9.485  18.058  10.529 -0.2310  0.1242  0.2328
  170loPI   C1A 2711   9.557  17.735  10.198  0.3620  0.0150  0.3289
  170loPI   C2A 2712   9.619  17.694   9.681  0.0431  0.3858 -0.2030
  170loPI   C3A 2713   9.664  17.670   9.174 -0.3421 -0.1818 -0.1142
  170loPI   C4A 2714   9.468  17.996   8.903 -0.0747  0.0849 -0.0423
  170loPI   C5A 2715   9.438  18.387   8.798  0.0149 -0.0905  0.0087
  170loPI   C6A 2716   9.168  18.440   8.410  0.0703  0.1142  0.1980
  170loPI   C1B 2717   9.356  18.261  10.193 -0.2193 -0.1549  0.3182
  170loPI   C2B 2718   9.353  18.182   9.802  0.0161 -0.0153  0.1359
  170loPI   C3B 2719   9.442  18.194   9.374 -0.0819  0.0940 -0.0921
  170loPI   C4B 2720   9.862  18.235   9.067 -0.0446  0.0128 -0.1143
  171loPI    C1 2721   6.641  16.263  11.220 -0.1483  0.1226 -0.1619
  171loPI    C2 2722   6.519  16.360  11.588  0.4089 -0.1779  0.1154
  171loPI    C3 2723   6.306  16.103  11.368  0.1147 -0.0585  0.2564
  171loPI   PO4 2724   6.707  16.490  11.145 -0.1030  0.2546 -0.2557
  171loPI   GL1 2725   6.703  16.612  10.736 -0.3051  0.0803  0.1731
  171loPI   GL2 2726   6.498  16.337  10.686 -0.0399 -0.4559  0.0290
  171loPI   C1A 2727   6.647  16.716  10.338  0.0825 -0.0852  0.0746
  171loPI   C2A 2728   6.670  16.799  10.008 -0.0753 -0.0750 -0.0117
  171loPI   C3A 2729   6.603  16.857   9.592  0.0940 -0.0560  0.1620
  171loPI   C4A 2730   6.501  16.905   9.140 -0.1921 -0.1817 -0.3605
  171loPI   C5A 2731   6.452  17.075   8.700 -0.1623  0.0096 -0.2250
  171loPI   C6A 2732   6.789  17.399   8.576 -0.1800 -0.1571  0.2126
  171loPI   C1B 2733   6.379  16.293  10.196 -0.2862 -0.2419 -0.0927
  171loPI   C2B 2734   6.377  16.425   9.769 -0.0859  0.1199 -0.1190
  171loPI   C3B 2735   6.382  16.424   9.328  0.0871 -0.0566 -0.0130
  171loPI   C4B 2736   6.193  16.449   8.911 -0.0180  0.0803 -0.1806
  172loPI    C1 2737  11.939   9.035  11.565  0.0310 -0.1293 -0.0785
  172loPI    C2 2738  12.067   8.661  11.625  0.1978 -0.0480  0.0804
  172loPI    C3 2739  11.684   8.755  11.693  0.1436 -0.2010 -0.0098
  172loPI   PO4 2740  11.971   9.124  11.279  0.2192  0.0267 -0.5164
  172loPI   GL1 2741  11.915   9.138  10.866  0.0852  0.0174  0.1001
  172loPI   GL2 2742  12.045   8.876  10.858  0.1655  0.1715  0.0453
  172loPI   C1A 2743  11.951   9.159  10.416  0.1431 -0.2427  0.1013
  172loPI   C2A 2744  11.928   9.158  10.033 -0.1326  0.1481 -0.2052
  172loPI   C3A 2745  11.966   9.211   9.596  0.0339  0.2485 -0.1171
  172loPI   C4A 2746  11.947   9.297   9.153 -0.3268  0.3673  0.1435
  172loPI   C5A 2747  11.884   9.186   8.782 -0.0406  0.3935  0.1462
  172loPI   C6A 2748  12.017   9.357   8.466  0.0667 -0.4394 -0.0230
  172loPI   C1B 2749  12.234   8.759  10.537  0.2874  0.2322  0.0586
  172loPI   C2B 2750  12.189   8.708  10.071  0.2574 -0.0492  0.1986
  172loPI   C3B 2751  12.122   8.758   9.643 -0.2183  0.0258 -0.1504
  172loPI   C4B 2752  12.165   8.797   9.083  0.1152  0.3341 -0.1033
  173loPI    C1 2753   1.877   0.299  11.172  0.0227 -0.0773  0.1563
  173loPI    C2 2754   1.596   0.082  11.356 -0.2619  0.1348 -0.0199
  173loPI    C3 2755   1.678   0.453  11.483 -0.1022  0.0956 -0.0067
  173loPI   PO4 2756   2.034   0.127  11.089  0.1320 -0.2811 -0.1688
  173loPI   GL1 2757   2.230   0.150  10.691 -0.1098  0.0099 -0.0041
  173loPI   GL2 2758   2.502   0.051  10.783 -0.4750 -0.3587  0.4047
  173loPI   C1A 2759   2.250   0.098  10.265  0.2264 -0.1815 -0.1859
  173loPI   C2A 2760   2.158   0.174   9.827  0.3034 -0.2967 -0.2491
  173loPI   C3A 2761   2.235   0.159   9.402 -0.2113  0.0102  0.1567
  173loPI   C4A 2762   2.190   0.255   9.054 -0.0238 -0.0586 -0.0688
  173loPI   C5A 2763   2.422   0.182   8.664 -0.2518 -0.1107  0.0029
  173loPI   C6A 2764   2.760   0.362   8.542 -0.0497  0.0349  0.0723
  173loPI   C1B 2765   2.671  -0.001  10.420 -0.1526  0.3064  0.0438
  173loPI   C2B 2766   2.695   0.035   9.995  0.1757  0.1645  0.1742
  173loPI   C3B 2767   2.732   0.124   9.544 -0.3121  0.2805  0.0596
  173loPI   C4B 2768   2.720   0.228   9.099  0.2468 -0.1173 -0.5078
  174loPI    C1 2769   0.947  11.943  11.422 -0.3321 -0.1346 -0.3014
  174loPI    C2 2770   0.601  11.910  11.621 -0.2558 -0.0992 -0.1610
  174loPI    C3 2771   0.936  11.759  11.778 -0.1259  0.2578 -0.0858
  174loPI   PO4 2772   0.935  12.028  11.064 -0.4720 -0.2989 -0.1672
  174loPI   GL1 2773   0.824  12.351  10.820 -0.0101  0.2866  0.1677
  174loPI   GL2 2774   0.698  12.552  10.992  0.0781  0.1615 -0.0730
  174loPI   C1A 2775   0.911  12.308  10.412  0.1470 -0.1557  0.0594
  174loPI   C2A 2776   0.924  12.339  10.002  0.2167  0.3858 -0.2202
  174loPI   C3A 2777   0.855  12.413   9.613 -0.1709 -0.0354  0.2826
  174loPI   C4A 2778   0.861  12.363   9.190 -0.0817  0.1409  0.0200
  174loPI   C5A 2779   0.857  12.674   8.876 -0.1655  0.2224 -0.0642
  174loPI   C6A 2780   1.228  12.677   8.623 -0.0039 -0.1697  0.1856
  174loPI   C1B 2781   0.730  12.772  10.561  0.2118  0.0802  0.0433
  174loPI   C2B 2782   0.712  12.784  10.145  0.1998  0.2001 -0.1060
  174loPI   C3B 2783   0.672  12.832   9.697 -0.1462  0.0760 -0.0398
  174loPI   C4B 2784   0.566  12.757   9.326 -0.0319  0.0132  0.0457
  175loPI    C1 2785   0.260   8.109  11.406 -0.0484  0.1311  0.2898
  175loPI    C2 2786   0.077   8.346  11.671 -0.0200 -0.0341  0.4591
  175loPI    C3 2787   0.435   8.189  11.757  0.0719  0.0553  0.2479
  175loPI   PO4 2788   0.084   8.047  11.246  0.1998 -0.3053  0.0967
  175loPI   GL1 2789   0.235   7.782  10.988 -0.1861 -0.0403  0.0232
  175loPI   GL2 2790   0.228   7.467  10.848  0.0710  0.0948 -0.0952
  175loPI   C1A 2791   0.371   7.868  10.547 -0.0262  0.4527  0.0099
  175loPI   C2A 2792   0.338   7.838  10.145 -0.4319 -0.4186 -0.2036
  175loPI   C3A 2793   0.329   7.677   9.699 -0.2028  0.0018 -0.1503
  175loPI   C4A 2794   0.334   7.790   9.334  0.3389  0.1785  0.0969
  175loPI   C5A 2795   0.159   7.771   8.933 -0.0939  0.1567 -0.0004
  175loPI   C6A 2796  -0.269   7.926   8.821 -0.0437 -0.1885 -0.0606
  175loPI   C1B 2797   0.096   7.352  10.522 -0.4808  0.2462 -0.0700
  175loPI   C2B 2798   0.082   7.384  10.100  0.1329 -0.1713  0.0730
  175loPI   C3B 2799   0.020   7.308   9.656 -0.1085 -0.1338  0.0254
  175loPI   C4B 2800   0.098   7.305   9.234  0.0128  0.1485  0.0174
  176loPI    C1 2801   7.644   5.299  11.128  0.0030 -0.1364  0.0171
  176loPI    C2 2802   7.561   5.214  11.510  0.2128 -0.1463  0.0620
  176loPI    C3 2803   7.341   5.483  11.312 -0.0671 -0.3383  0.1062
  176loPI   PO4 2804   7.608   5.071  11.025 -0.1042  0.2765 -0.1140
  176loPI   GL1 2805   7.450   4.867  10.688  0.2257 -0.1049  0.0682
  176loPI   GL2 2806   7.411   4.668  10.440  0.0140  0.0882  0.1192
  176loPI   C1A 2807   7.148   5.015  10.240  0.0494  0.0510 -0.3087
  176loPI   C2A 2808   7.022   5.174   9.765  0.2419 -0.0207 -0.0940
  176loPI   C3A 2809   7.035   5.152   9.291 -0.1932  0.3257 -0.0761
  176loPI   C4A 2810   6.999   5.211   8.847 -0.1469 -0.0773 -0.1608
  176loPI   C5A 2811   6.813   5.453   8.556  0.4092 -0.1003  0.0534
  176loPI   C6A 2812   6.345   5.623   8.595 -0.1534 -0.1665 -0.0404
  176loPI   C1B 2813   7.297   4.643   9.983  0.0090  0.2682  0.2543
  176loPI   C2B 2814   7.279   4.711   9.539  0.2902  0.4014  0.3501
  176loPI   C3B 2815   7.282   4.689   9.134 -0.2906  0.1672  0.1750
  176loPI   C4B 2816   7.128   4.734   8.669  0.3287  0.1032 -0.0619
  177loPI    C1 2817  10.576   3.994  10.869 -0.2872 -0.0950 -0.2906
  177loPI    C2 2818  10.516   3.620  11.000 -0.2967  0.0452  0.1222
  177loPI    C3 2819  10.258   3.910  11.098 -0.1531  0.2108  0.0163
  177loPI   PO4 2820  10.817   3.918  10.635  0.2171  0.2337  0.1748
  177loPI   GL1 2821  10.858   4.137  10.382  0.1410  0.0127 -0.2649
  177loPI   GL2 2822  10.684   4.395  10.543 -0.0185  0.3127 -0.1139
  177loPI   C1A 2823  10.945   4.163   9.973  0.4408  0.1200 -0.2845
  177loPI   C2A 2824  10.808   3.780   9.597 -0.1523 -0.2470  0.1446
  177loPI   C3A 2825  10.728   3.564   9.239 -0.1238 -0.1136 -0.3524
  177loPI   C4A 2826  10.935   3.518   8.909  0.0634 -0.0189  0.2062
  177loPI   C5A 2827  11.183   3.498   8.644 -0.0272 -0.1557  0.1718
  177loPI   C6A 2828  11.348   3.278   8.342 -0.2002 -0.0862 -0.0652
  177loPI   C1B 2829  10.716   4.579  10.138  0.1814  0.0459 -0.1329
  177loPI   C2B 2830  10.641   4.667   9.661 -0.1435  0.0094 -0.3375
  177loPI   C3B 2831  10.672   4.905   9.291 -0.1029  0.4197 -0.0375
  177loPI   C4B 2832  10.692   5.009   8.849  0.1604  0.1010 -0.0729
  178loPI    C1 2833   1.101   8.950  11.815  0.0965 -0.0530 -0.1255
  178loPI    C2 2834   0.977   9.288  11.989  0.0606 -0.0722 -0.1136
  178loPI    C3 2835   0.892   8.935  12.156  0.2336 -0.0806 -0.0420
  178loPI   PO4 2836   1.062   9.040  11.556 -0.2338 -0.1924  0.0250
  178loPI   GL1 2837   1.278   8.787  11.197  0.0078  0.0729 -0.2627
  178loPI   GL2 2838   0.969   8.745  11.088 -0.0865  0.0746 -0.0110
  178loPI   C1A 2839   1.250   8.718  10.700 -0.3185  0.0146 -0.1099
  178loPI   C2A 2840   1.377   8.761  10.309  0.3226 -0.0754 -0.2464
  178loPI   C3A 2841   1.375   8.748   9.870  0.1604  0.0478 -0.0434
  178loPI   C4A 2842   1.388   8.813   9.503 -0.4704  0.5182  0.0602
  178loPI   C5A 2843   1.375   8.667   9.019 -0.1133 -0.0786  0.1155
  178loPI   C6A 2844   1.013   8.913   8.771  0.1344 -0.1979 -0.1922
  178loPI   C1B 2845   0.727   8.772  10.680 -0.0609 -0.2284 -0.0073
  178loPI   C2B 2846   0.805   8.826  10.288  0.0003  0.0845 -0.1775
  178loPI   C3B 2847   0.933   8.823   9.769  0.4280 -0.5233 -0.0184
  178loPI   C4B 2848   0.903   8.694   9.404  0.1501  0.0316 -0.1471
  179loPI    C1 2849  12.665  15.155  11.517  0.0952 -0.0487  0.0723
  179loPI    C2 2850  12.299  15.295  11.597  0.0706 -0.2088  0.2471
  179loPI    C3 2851  12.609  15.404  11.825  0.1409 -0.0396  0.0732
  179loPI   PO4 2852  12.750  15.162  11.214 -0.0880 -0.2417 -0.1012
  179loPI   GL1 2853  12.828  14.813  10.938  0.0811 -0.3180  0.4450
  179loPI   GL2 2854  12.580  14.890  10.741  0.0543  0.1371  0.1120
  179loPI   C1A 2855  13.001  14.601  10.537  0.2564  0.1624 -0.0632
  179loPI   C2A 2856  12.940  14.642  10.084 -0.2070  0.1814  0.4654
  179loPI   C3A 2857  12.981  14.653   9.660  0.0115 -0.2845  0.0252
  179loPI   C4A 2858  13.050  14.505   9.256  0.2352 -0.2078 -0.0199
  179loPI   C5A 2859  13.034  14.557   8.771 -0.0088 -0.0281 -0.1136
  179loPI   C6A 2860  13.311  14.713   8.394 -0.1483 -0.1029 -0.2152
  179loPI   C1B 2861  12.693  15.032  10.377  0.1196  0.3110  0.0200
  179loPI   C2B 2862  12.706  15.097   9.944 -0.2628  0.0759 -0.2340
  179loPI   C3B 2863  12.789  15.040   9.433  0.1136 -0.2654  0.3054
  179loPI   C4B 2864  12.770  14.951   8.995  0.1857 -0.1417  0.0868
  180loPI    C1 2865  15.051  15.359  11.583 -0.0357  0.2159 -0.1991
  180loPI    C2 2866  15.254  15.155  11.860 -0.0123  0.1730 -0.2477
  180loPI    C3 2867  14.865  15.230  11.913  0.0122  0.2414 -0.1621
  180loPI   PO4 2868  15.081  15.289  11.379  0.2566 -0.0795 -0.2642
  180loPI   GL1 2869  15.012  15.483  10.961 -0.1358 -0.1780 -0.0416
  180loPI   GL2 2870  14.744  15.254  10.968  0.0506 -0.2284  0.3922
  180loPI   C1A 2871  15.005  15.515  10.512  0.0778  0.0215  0.1219
  180loPI   C2A 2872  15.028  15.552  10.051  0.0029  0.2210 -0.2132
  180loPI   C3A 2873  15.077  15.475   9.698 -0.0915  0.1921 -0.0468
  180loPI   C4A 2874  15.089  15.485   9.248 -0.2953 -0.3838  0.1175
  180loPI   C5A 2875  15.283  15.315   8.792  0.0655  0.2251 -0.1832
  180loPI   C6A 2876  15.501  15.200   8.437  0.0948 -0.0502  0.1523
  180loPI   C1B 2877  14.709  15.111  10.612 -0.0718  0.0993  0.0651
  180loPI   C2B 2878  14.777  15.088  10.210  0.0688 -0.0430  0.0479
  180loPI   C3B 2879  14.762  15.049   9.729  0.0632 -0.2140 -0.0324
  180loPI   C4B 2880  14.800  14.999   9.279  0.1677 -0.4630  0.4693
  181loPI    C1 2881   1.185   9.847  11.564  0.1371 -0.1546 -0.0692
  181loPI    C2 2882   0.795   9.852  11.655  0.0925  0.0812 -0.2633
  181loPI    C3 2883   1.023  10.172  11.733  0.2107  0.0078 -0.3056
  181loPI   PO4 2884   1.197   9.755  11.314 -0.1447  0.1102 -0.2110
  181loPI   GL1 2885   1.278   9.707  10.953 -0.0689 -0.1761  0.2491
  181loPI   GL2 2886   1.060   9.951  10.889  0.0051 -0.2961 -0.0623
  181loPI   C1A 2887   1.384   9.620  10.534  0.2358  0.1313 -0.0160
  181loPI   C2A 2888   1.370   9.536  10.114  0.0698  0.0603  0.0665
  181loPI   C3A 2889   1.384   9.733   9.673  0.0183 -0.1787  0.0945
  181loPI   C4A 2890   1.398   9.726   9.195 -0.2076 -0.0071 -0.1740
  181loPI   C5A 2891   1.423   9.915   8.799  0.0098  0.3423  0.1323
  181loPI   C6A 2892   1.753   9.933   8.402 -0.0806  0.0952  0.0427
  181loPI   C1B 2893   1.093   9.986  10.382 -0.0435  0.1291 -0.1177
  181loPI   C2B 2894   1.178  10.085   9.942 -0.0859 -0.1759 -0.0427
  181loPI   C3B 2895   1.137  10.136   9.560 -0.0989 -0.0278  0.1268
  181loPI   C4B 2896   1.135  10.180   9.120 -0.0329  0.1460  0.1697
  182loPI    C1 2897  11.711   5.696  10.886 -0.0738 -0.1187  0.0698
  182loPI    C2 2898  12.109   5.708  10.917 -0.0684 -0.4488  0.1611
  182loPI    C3 2899  11.885   5.672  11.246 -0.1944  0.1046  0.1453
  182loPI   PO4 2900  11.700   5.783  10.586 -0.0001  0.1934  0.1296
  182loPI   GL1 2901  11.580   5.788  10.197  0.1559  0.0121  0.0570
  182loPI   GL2 2902  11.346   5.474  10.280 -0.1502 -0.0390  0.1795
  182loPI   C1A 2903  11.383   5.881   9.857 -0.0085  0.1180  0.0034
  182loPI   C2A 2904  11.141   5.873   9.454 -0.0062  0.0559  0.1727
  182loPI   C3A 2905  11.012   5.866   9.007 -0.1726 -0.1278  0.1783
  182loPI   C4A 2906  11.358   5.872   8.756 -0.1570 -0.0427  0.1134
  182loPI   C5A 2907  11.685   6.140   8.621  0.1398 -0.2741 -0.1312
  182loPI   C6A 2908  11.625   6.609   8.556  0.2171 -0.0208  0.2287
  182loPI   C1B 2909  10.962   5.492   9.996 -0.1230  0.0669  0.1612
  182loPI   C2B 2910  10.777   5.438   9.652 -0.0046 -0.0908 -0.1838
  182loPI   C3B 2911  10.579   5.432   9.222 -0.0211  0.2435  0.2692
  182loPI   C4B 2912  10.811   5.540   8.737 -0.0909 -0.0240 -0.0497
  183loPI    C1 2913  14.963   5.373  11.333 -0.0914 -0.1385  0.0691
  183loPI    C2 2914  15.271   5.446  11.578  0.0025 -0.2228 -0.0227
  183loPI    C3 2915  14.902   5.402  11.727 -0.0358  0.2864  0.0510
  183loPI   PO4 2916  15.056   5.481  11.127 -0.1316  0.1008  0.2364
  183loPI   GL1 2917  15.255   5.408  10.722  0.3042  0.2321  0.4330
  183loPI   GL2 2918  15.461   5.317  10.843 -0.3571 -0.0171 -0.0198
  183loPI   C1A 2919  15.418   5.532  10.363 -0.1028  0.2897  0.0351
  183loPI   C2A 2920  15.412   5.547   9.919 -0.0541 -0.1114 -0.0333
  183loPI   C3A 2921  15.464   5.562   9.493  0.2181 -0.0264  0.0424
  183loPI   C4A 2922  15.572   5.756   9.112  0.0349 -0.1089 -0.2136
  183loPI   C5A 2923  15.582   5.477   8.801  0.3849 -0.0240  0.0499
  183loPI   C6A 2924  15.885   5.225   8.669  0.0263 -0.0677  0.2101
  183loPI   C1B 2925  15.742   5.110  10.529  0.0440 -0.0139  0.3429
  183loPI   C2B 2926  15.716   5.011  10.112  0.2659 -0.0258  0.1943
  183loPI   C3B 2927  15.758   5.173   9.673  0.0220  0.1138  0.1339
  183loPI   C4B 2928  15.673   5.183   9.210  0.0241  0.0894 -0.1960
  184loPI    C1 2929  10.185  12.241  11.316  0.0833 -0.0909 -0.2501
  184loPI    C2 2930  10.238  11.874  11.466  0.2340  0.1257  0.2500
  184loPI    C3 2931   9.939  12.102  11.600 -0.2619 -0.0376 -0.5171
  184loPI   PO4 2932  10.159  12.235  11.136 -0.3053 -0.0805  0.0239
  184loPI   GL1 2933  10.105  12.387  10.783  0.0346 -0.3681 -0.3077
  184loPI   GL2 2934  10.254  12.626  10.699 -0.0714 -0.3276 -0.2148
  184loPI   C1A 2935  10.105  12.253  10.359 -0.1775 -0.2818  0.0769
  184loPI   C2A 2936  10.070  12.265   9.892  0.0411  0.1885  0.0185
  184loPI   C3A 2937  10.111  12.318   9.458  0.1589  0.0503 -0.1152
  184loPI   C4A 2938   9.951  12.322   9.032  0.0988  0.2556  0.1668
  184loPI   C5A 2939   9.763  12.261   8.657  0.2186 -0.1249 -0.1023
  184loPI   C6A 2940   9.568  12.288   8.345  0.4433 -0.1207 -0.1323
  184loPI   C1B 2941  10.409  12.758  10.314 -0.0472  0.2687  0.2872
  184loPI   C2B 2942  10.313  12.709   9.911 -0.0167  0.4358  0.1239
  184loPI   C3B 2943  10.353  12.850   9.502 -0.1529 -0.1134 -0.0633
  184loPI   C4B 2944  10.286  12.731   9.150  0.0084  0.0341  0.1991
  185loPI    C1 2945  13.527   6.346  11.007  0.0059 -0.3312 -0.0096
  185loPI    C2 2946  13.337   6.696  11.048  0.0384 -0.3279  0.1174
  185loPI    C3 2947  13.650   6.609  11.282  0.3198 -0.2506 -0.2224
  185loPI   PO4 2948  13.626   6.337  10.732 -0.1884  0.1068  0.1350
  185loPI   GL1 2949  13.687   6.551  10.349 -0.0074 -0.2195  0.2762
  185loPI   GL2 2950  13.578   6.780  10.249 -0.2462 -0.2230  0.2005
  185loPI   C1A 2951  13.937   6.534   9.959  0.0167 -0.2255 -0.0043
  185loPI   C2A 2952  13.993   6.410   9.579 -0.1578  0.0758  0.2311
  185loPI   C3A 2953  13.778   6.035   9.359 -0.2233 -0.1509  0.2238
  185loPI   C4A 2954  13.551   5.795   9.077 -0.2334  0.0268  0.1244
  185loPI   C5A 2955  13.465   5.567   8.725 -0.0694 -0.2166  0.0139
  185loPI   C6A 2956  13.005   5.564   8.576 -0.0718  0.1407 -0.0452
  185loPI   C1B 2957  13.694   6.926   9.799 -0.1667 -0.0695  0.0131
  185loPI   C2B 2958  13.778   6.960   9.426  0.0680  0.0308  0.2468
  185loPI   C3B 2959  13.687   6.927   9.068 -0.1116  0.0916  0.0029
  185loPI   C4B 2960  13.649   6.830   8.607  0.1418  0.3352 -0.0307
  186loPI    C1 2961   1.576   5.026  11.533 -0.1677 -0.0122  0.0704
  186loPI    C2 2962   1.791   5.247  11.787 -0.0572  0.0242 -0.0536
  186loPI    C3 2963   1.868   4.856  11.748 -0.1804 -0.0149  0.0855
  186loPI   PO4 2964   1.595   4.981  11.277  0.1364 -0.2465  0.1947
  186loPI   GL1 2965   1.491   4.798  10.933 -0.1947  0.0635  0.0519
  186loPI   GL2 2966   1.209   4.539  10.807  0.1652  0.1247 -0.1553
  186loPI   C1A 2967   1.435   5.010  10.562  0.2886  0.0548 -0.1463
  186loPI   C2A 2968   1.352   5.196  10.237  0.1515 -0.0341 -0.1423
  186loPI   C3A 2969   1.403   5.055   9.756 -0.1766  0.3067  0.1771
  186loPI   C4A 2970   1.454   5.034   9.248  0.1454  0.0050  0.0043
  186loPI   C5A 2971   1.271   5.148   8.798  0.0283 -0.0515  0.1924
  186loPI   C6A 2972   1.563   4.898   8.437 -0.0647  0.1618 -0.2194
  186loPI   C1B 2973   1.197   4.608  10.413  0.1133  0.2618  0.1791
  186loPI   C2B 2974   1.099   4.756  10.025 -0.0298 -0.1367  0.0210
  186loPI   C3B 2975   1.152   4.587   9.626  0.3572 -0.1343  0.0694
  186loPI   C4B 2976   1.025   4.682   9.168 -0.0087  0.0458 -0.2282
  187loPI    C1 2977  12.648  12.062  11.257  0.2607 -0.0883  0.0750
  187loPI    C2 2978  12.710  12.281  11.586 -0.0963  0.0094  0.0815
  187loPI    C3 2979  12.543  11.918  11.615  0.1034 -0.0886  0.0293
  187loPI   PO4 2980  12.688  12.226  11.059 -0.0104 -0.1167  0.1099
  187loPI   GL1 2981  13.000  12.309  10.704  0.3044  0.1513  0.2563
  187loPI   GL2 2982  12.658  12.256  10.461 -0.1180 -0.0445 -0.2136
  187loPI   C1A 2983  13.154  12.274  10.336 -0.0967 -0.0274  0.1202
  187loPI   C2A 2984  13.151  12.361   9.900  0.1001  0.3995  0.1286
  187loPI   C3A 2985  13.131  12.243   9.440 -0.0472 -0.2171 -0.1656
  187loPI   C4A 2986  13.229  12.329   9.075 -0.0624 -0.2353  0.1145
  187loPI   C5A 2987  13.089  12.405   8.626 -0.0402  0.3879  0.2445
  187loPI   C6A 2988  13.053  12.355   8.324 -0.1456 -0.2238 -0.0749
  187loPI   C1B 2989  12.665  12.394  10.073  0.1723  0.0495 -0.2264
  187loPI   C2B 2990  12.661  12.286   9.600  0.0577 -0.0534 -0.1571
  187loPI   C3B 2991  12.672  12.413   9.128 -0.2063 -0.0178  0.0192
  187loPI   C4B 2992  12.551  12.414   8.674 -0.2229 -0.3534 -0.3689
  188loPI    C1 2993   8.336   4.316  11.124 -0.2442  0.3133  0.0532
  188loPI    C2 2994   8.635   4.582  11.125  0.0215  0.0256 -0.2668
  188loPI    C3 2995   8.660   4.252  11.350 -0.1297  0.0794 -0.1703
  188loPI   PO4 2996   8.215   4.370  11.036 -0.0926 -0.0478 -0.1642
  188loPI   GL1 2997   8.318   4.576  10.680 -0.3391 -0.1232 -0.0016
  188loPI   GL2 2998   8.017   4.451  10.551 -0.1404 -0.1628  0.0276
  188loPI   C1A 2999   8.315   4.648  10.234  0.1086 -0.1185  0.0281
  188loPI   C2A 3000   8.293   4.734   9.873  0.2543 -0.1854  0.3289
  188loPI   C3A 3001   8.380   4.627   9.426  0.0871  0.0943  0.0920
  188loPI   C4A 3002   8.329   4.728   9.000 -0.2457  0.3103 -0.1495
  188loPI   C5A 3003   8.246   4.627   8.557 -0.2584  0.0290 -0.0640
  188loPI   C6A 3004   8.076   4.535   8.131 -0.3388 -0.1216  0.1636
  188loPI   C1B 3005   7.845   4.642  10.168  0.0597  0.0344 -0.0747
  188loPI   C2B 3006   7.782   4.640   9.704 -0.1317 -0.0750  0.0011
  188loPI   C3B 3007   7.797   4.712   9.224 -0.0184  0.2100  0.2090
  188loPI   C4B 3008   7.833   4.817   8.841  0.0948  0.2717 -0.0844
  189loPI    C1 3009  12.817   8.383  11.474 -0.0086 -0.1004  0.1842
  189loPI    C2 3010  12.497   8.492  11.688 -0.1990 -0.2266 -0.0309
  189loPI    C3 3011  12.794   8.288  11.862 -0.1419  0.0602  0.2166
  189loPI   PO4 3012  12.737   8.446  11.190 -0.1403 -0.0279  0.1657
  189loPI   GL1 3013  12.589   8.612  10.794 -0.1293  0.1584  0.0278
  189loPI   GL2 3014  12.885   8.449  10.688  0.1519  0.0439 -0.3057
  189loPI   C1A 3015  12.713   8.766  10.375 -0.0525  0.1232 -0.1463
  189loPI   C2A 3016  12.737   8.770   9.947  0.1046  0.0744  0.1231
  189loPI   C3A 3017  12.615   8.757   9.458 -0.2868 -0.1409  0.0771
  189loPI   C4A 3018  12.678   8.796   9.034 -0.1272  0.0938 -0.0688
  189loPI   C5A 3019  12.808   8.870   8.563 -0.0423  0.3708  0.0096
  189loPI   C6A 3020  12.585   8.684   8.236 -0.0083 -0.1930  0.1149
  189loPI   C1B 3021  12.993   8.328  10.312  0.3768 -0.1641 -0.0408
  189loPI   C2B 3022  13.019   8.298   9.828 -0.1563  0.1063 -0.0958
  189loPI   C3B 3023  12.893   8.348   9.438  0.1752  0.1900 -0.0225
  189loPI   C4B 3024  13.032   8.243   9.148  0.1462  0.0317 -0.1065
  190loPI    C1 3025  12.774   7.759  11.250  0.3777 -0.0057 -0.0058
  190loPI    C2 3026  12.519   7.978  11.467  0.0740 -0.1681 -0.1911
  190loPI    C3 3027  12.827   7.795  11.645  0.0078 -0.0479  0.0518
  190loPI   PO4 3028  12.804   7.927  11.073  0.3571 -0.3617  0.0665
  190loPI   GL1 3029  12.505   8.112  10.619 -0.0814 -0.1167 -0.1769
  190loPI   GL2 3030  12.571   7.821  10.544  0.0044 -0.0501  0.1796
  190loPI   C1A 3031  12.495   8.346  10.239  0.1097 -0.1155  0.1163
  190loPI   C2A 3032  12.440   8.327   9.826 -0.1057 -0.0939 -0.0168
  190loPI   C3A 3033  12.366   8.325   9.390 -0.0784  0.4825 -0.0214
  190loPI   C4A 3034  12.496   8.356   8.998  0.1594 -0.0065 -0.3922
  190loPI   C5A 3035  12.817   8.415   8.736 -0.0129 -0.1177 -0.1349
  190loPI   C6A 3036  13.141   8.103   8.607  0.0588  0.2780 -0.0595
  190loPI   C1B 3037  12.628   7.860  10.094 -0.1128 -0.1590 -0.0736
  190loPI   C2B 3038  12.674   7.886   9.604  0.0542  0.0610  0.0988
  190loPI   C3B 3039  12.733   7.852   9.164  0.2161  0.0632 -0.0798
  190loPI   C4B 3040  12.788   7.771   8.729  0.5691  0.0381 -0.1939
  191loPI    C1 3041  15.501   6.447  11.484  0.1793  0.0393  0.1333
  191loPI    C2 3042  15.125   6.383  11.604  0.0520 -0.0989 -0.3206
  191loPI    C3 3043  15.425   6.364  11.868 -0.2742  0.2056  0.0851
  191loPI   PO4 3044  15.407   6.479  11.088 -0.1703 -0.3062  0.2039
  191loPI   GL1 3045  15.763   6.450  10.775  0.1927 -0.2478  0.2447
  191loPI   GL2 3046  15.692   6.130  10.762 -0.1212  0.0472  0.0807
  191loPI   C1A 3047  15.992   6.381  10.409 -0.1714  0.2625  0.3354
  191loPI   C2A 3048  16.016   6.441   9.989  0.2148  0.2496 -0.1369
  191loPI   C3A 3049  16.059   6.512   9.589  0.0248 -0.1834  0.0145
  191loPI   C4A 3050  16.103   6.583   9.117  0.3909 -0.1314  0.0831
  191loPI   C5A 3051  16.034   6.775   8.613  0.1808  0.0706 -0.3148
  191loPI   C6A 3052  15.974   7.024   8.194 -0.1242  0.1234  0.1173
  191loPI   C1B 3053  15.677   6.025  10.271 -0.1237 -0.0495  0.1782
  191loPI   C2B 3054  15.599   5.975   9.834  0.0858 -0.2508 -0.1788
  191loPI   C3B 3055  15.723   6.106   9.460 -0.1106  0.2665  0.1335
  191loPI   C4B 3056  15.817   6.189   9.096 -0.0310 -0.2263  0.0194
  192loPI    C1 3057   5.559   1.704  11.341 -0.0126 -0.0035 -0.1189
  192loPI    C2 3058   5.373   1.815  11.678 -0.0125  0.0808 -0.1466
  192loPI    C3 3059   5.744   1.944  11.603  0.0619 -0.0961 -0.0863
  192loPI   PO4 3060   5.437   1.732  11.160  0.2369  0.3467  0.1834
  192loPI   GL1 3061   5.172   1.706  10.841  0.1687 -0.2201  0.1844
  192loPI   GL2 3062   4.903   1.670  10.830  0.0272 -0.3049  0.2934
  192loPI   C1A 3063   5.292   1.919  10.560  0.3215 -0.1047  0.0008
  192loPI   C2A 3064   5.211   1.904  10.148  0.0085 -0.2437  0.0465
  192loPI   C3A 3065   5.253   1.992   9.743 -0.0405 -0.1906  0.0881
  192loPI   C4A 3066   5.135   2.036   9.344 -0.2620  0.2429 -0.0201
  192loPI   C5A 3067   5.207   1.908   8.975 -0.0490 -0.0182 -0.2895
  192loPI   C6A 3068   5.247   1.553   8.759 -0.0167  0.3061  0.1166
  192loPI   C1B 3069   4.947   1.521  10.370  0.1156 -0.1197  0.0911
  192loPI   C2B 3070   4.966   1.543   9.946  0.1533  0.0238 -0.1339
  192loPI   C3B 3071   4.951   1.538   9.558 -0.2677 -0.1988 -0.0634
  192loPI   C4B 3072   4.952   1.485   9.160  0.0592 -0.1653  0.0051
  193loPI    C1 3073  11.197  12.122  11.613 -0.2574 -0.1932 -0.1678
  193loPI    C2 3074  10.868  11.897  11.634 -0.0194 -0.5217  0.1892
  193loPI    C3 3075  11.042  12.027  11.970 -0.0873  0.1118 -0.0080
  193loPI   PO4 3076  11.166  12.231  11.408  0.1937  0.1478 -0.0514
  193loPI   GL1 3077  11.132  12.221  11.009 -0.2691  0.0461 -0.1818
  193loPI   GL2 3078  11.314  12.485  10.912 -0.1069 -0.1052  0.1524
  193loPI   C1A 3079  11.117  12.216  10.535  0.2786 -0.0327 -0.0093
  193loPI   C2A 3080  11.114  12.252  10.056 -0.3085  0.1629 -0.2194
  193loPI   C3A 3081  11.154  12.345   9.614  0.0872  0.1960  0.0600
  193loPI   C4A 3082  11.125  12.293   9.153  0.1544 -0.1107  0.3999
  193loPI   C5A 3083  10.943  12.241   8.777 -0.1268 -0.1505  0.1922
  193loPI   C6A 3084  10.912  12.310   8.256  0.0197  0.3135 -0.1863
  193loPI   C1B 3085  11.377  12.688  10.533  0.2310  0.0559  0.1054
  193loPI   C2B 3086  11.426  12.817  10.066 -0.1872 -0.1883  0.3490
  193loPI   C3B 3087  11.380  12.778   9.590  0.1316 -0.0455 -0.3100
  193loPI   C4B 3088  11.308  12.757   9.181 -0.1775 -0.0059  0.0203
  194loPI    C1 3089  14.995  12.521  11.553 -0.2023  0.1182 -0.1276
  194loPI    C2 3090  15.222  12.227  11.702 -0.1795  0.0574 -0.2804
  194loPI    C3 3091  14.884  12.333  11.889 -0.0573  0.1078 -0.0851
  194loPI   PO4 3092  14.989  12.498  11.285  0.4739  0.0544 -0.1038
  194loPI   GL1 3093  15.244  12.620  10.963 -0.1937 -0.0632  0.1832
  194loPI   GL2 3094  15.113  12.364  10.831  0.1631  0.3559 -0.0167
  194loPI   C1A 3095  15.364  12.824  10.630 -0.2074 -0.0005 -0.0123
  194loPI   C2A 3096  15.452  12.807  10.196 -0.3946  0.0231  0.0195
  194loPI   C3A 3097  15.462  12.816   9.752  0.1856 -0.1597  0.4117
  194loPI   C4A 3098  15.559  12.736   9.395  0.0270 -0.2762 -0.0280
  194loPI   C5A 3099  15.588  12.725   9.010  0.0141 -0.0315  0.2037
  194loPI   C6A 3100  15.533  12.470   8.597 -0.2777 -0.1353 -0.1091
  194loPI   C1B 3101  15.153  12.335  10.433  0.0899 -0.0454 -0.2275
  194loPI   C2B 3102  15.173  12.348  10.051 -0.1773  0.1556 -0.0687
  194loPI   C3B 3103  15.218  12.303   9.631 -0.3921  0.1293 -0.3697
  194loPI   C4B 3104  15.257  12.306   9.230 -0.1916  0.0263 -0.0524
  195loPI    C1 3105  11.065  13.449  11.452  0.0486  0.2693  0.1425
  195loPI    C2 3106  10.996  13.806  11.285 -0.0463  0.2152  0.0643
  195loPI    C3 3107  10.953  13.758  11.680  0.2046  0.3504  0.1103
  195loPI   PO4 3108  10.957  13.271  11.187  0.2637 -0.0651  0.2624
  195loPI   GL1 3109  10.823  13.500  10.754 -0.0227  0.1090 -0.0911
  195loPI   GL2 3110  11.053  13.710  10.761 -0.0682  0.2583  0.1077
  195loPI   C1A 3111  10.522  13.617  10.531  0.1545  0.2125 -0.1515
  195loPI   C2A 3112  10.449  13.681  10.134 -0.1472 -0.1719  0.0914
  195loPI   C3A 3113  10.379  13.737   9.766 -0.0967  0.0345 -0.0692
  195loPI   C4A 3114  10.446  13.673   9.298  0.1654  0.0713 -0.1518
  195loPI   C5A 3115  10.366  13.550   8.933  0.2214  0.2775  0.1752
  195loPI   C6A 3116  10.185  13.375   8.546 -0.2013  0.1450  0.0003
  195loPI   C1B 3117  11.008  13.621  10.321 -0.2858 -0.0634  0.0847
  195loPI   C2B 3118  10.938  13.608   9.894  0.1266  0.4433 -0.0230
  195loPI   C3B 3119  10.910  13.707   9.468  0.2627 -0.1864  0.2478
  195loPI   C4B 3120  10.873  13.598   8.991  0.0828 -0.0230  0.1368
  196loPI    C1 3121  16.212   5.911  11.335  0.0257  0.0443 -0.2059
  196loPI    C2 3122  16.306   5.686  11.651 -0.0284  0.2451 -0.0449
  196loPI    C3 3123  15.930   5.692  11.514  0.0348  0.0085 -0.2354
  196loPI   PO4 3124  16.455   5.889  11.224 -0.0457  0.2391 -0.3633
  196loPI   GL1 3125  16.641   5.757  10.909 -0.0800 -0.0861  0.3652
  196loPI   GL2 3126  16.916   5.608  10.701 -0.0697 -0.0825 -0.1745
  196loPI   C1A 3127  16.746   5.986  10.441 -0.0932  0.4647 -0.0580
  196loPI   C2A 3128  16.806   6.008   9.995 -0.1161  0.0146 -0.0338
  196loPI   C3A 3129  16.795   6.018   9.580  0.1582  0.1230 -0.0762
  196loPI   C4A 3130  16.830   6.081   9.197 -0.0075  0.0285  0.3183
  196loPI   C5A 3131  17.192   6.173   8.857 -0.2427 -0.0857 -0.0219
  196loPI   C6A 3132  17.451   6.406   8.604 -0.0067 -0.1095  0.1411
  196loPI   C1B 3133  16.956   5.559  10.306  0.0599  0.3533  0.0981
  196loPI   C2B 3134  17.075   5.576   9.914 -0.2320  0.6353 -0.0314
  196loPI   C3B 3135  17.072   5.571   9.468  0.0780 -0.2727 -0.0812
  196loPI   C4B 3136  17.068   5.712   9.021 -0.2031  0.2237 -0.1065
  197loPI    C1 3137   3.614  11.727  11.543  0.0911 -0.2429  0.0719
  197loPI    C2 3138   3.285  11.659  11.760 -0.0369  0.4246  0.1063
  197loPI    C3 3139   3.646  11.610  11.924 -0.1143 -0.0825  0.1404
  197loPI   PO4 3140   3.520  11.589  11.301 -0.2227 -0.2548 -0.1561
  197loPI   GL1 3141   3.508  11.588  10.856  0.0855  0.1881 -0.0190
  197loPI   GL2 3142   3.768  11.700  10.738  0.2689  0.0226  0.3908
  197loPI   C1A 3143   3.425  11.410  10.487 -0.0529 -0.1196 -0.1582
  197loPI   C2A 3144   3.381  11.309  10.099  0.1623 -0.0024  0.2336
  197loPI   C3A 3145   3.472  11.436   9.688 -0.1906  0.1202  0.2744
  197loPI   C4A 3146   3.397  11.498   9.205 -0.1646  0.3404  0.0318
  197loPI   C5A 3147   3.474  11.441   8.763 -0.1195  0.0248 -0.0656
  197loPI   C6A 3148   3.669  11.179   8.417 -0.0990  0.1920 -0.0214
  197loPI   C1B 3149   3.677  11.719  10.180 -0.2436  0.0218 -0.0736
  197loPI   C2B 3150   3.714  11.842   9.799  0.1806  0.2179 -0.0554
  197loPI   C3B 3151   3.683  11.936   9.367  0.0974  0.2489 -0.0702
  197loPI   C4B 3152   3.661  11.965   8.951  0.1552 -0.4580  0.0943
  198loPI    C1 3153   6.780  15.919  11.555 -0.1031  0.2332  0.2099
  198loPI    C2 3154   6.502  15.877  11.839 -0.1815 -0.1818  0.0797
  198loPI    C3 3155   6.869  15.730  11.896 -0.0712  0.1068  0.1323
  198loPI   PO4 3156   6.742  15.709  11.306 -0.0588 -0.1408  0.2729
  198loPI   GL1 3157   6.478  15.816  10.981 -0.1007 -0.1258 -0.0246
  198loPI   GL2 3158   6.253  15.618  11.037  0.4618  0.0340  0.3306
  198loPI   C1A 3159   6.622  15.824  10.552  0.1268  0.0098  0.1596
  198loPI   C2A 3160   6.661  15.848  10.170 -0.0653 -0.2677  0.2231
  198loPI   C3A 3161   6.570  15.980   9.797 -0.5240  0.0844 -0.1136
  198loPI   C4A 3162   6.626  15.928   9.399 -0.0815  0.3415 -0.1552
  198loPI   C5A 3163   6.479  16.038   8.985 -0.1268  0.2006 -0.0598
  198loPI   C6A 3164   6.359  16.084   8.574  0.1720 -0.2153 -0.2958
  198loPI   C1B 3165   6.164  15.661  10.591  0.1910 -0.2485 -0.0201
  198loPI   C2B 3166   6.125  15.847  10.195  0.0454  0.1333 -0.0653
  198loPI   C3B 3167   6.093  15.973   9.753 -0.1266  0.1202 -0.2881
  198loPI   C4B 3168   6.054  15.966   9.285 -0.0264 -0.0466 -0.0065
  199loPI    C1 3169   4.420   4.545  11.744 -0.1466 -0.1674  0.0639
  199loPI    C2 3170   4.061   4.699  11.656 -0.0639  0.1608  0.2845
  199loPI    C3 3171   4.282   4.860  11.949  0.1179 -0.2519  0.3809
  199loPI   PO4 3172   4.527   4.564  11.456 -0.0617 -0.4226 -0.0282
  199loPI   GL1 3173   4.155   4.565  11.139  0.1512 -0.1839  0.2606
  199loPI   GL2 3174   4.363   4.544  10.974 -0.1683  0.3535 -0.3188
  199loPI   C1A 3175   3.870   4.654  10.792 -0.0277  0.3967 -0.0161
  199loPI   C2A 3176   3.776   4.690  10.371  0.0153  0.2294  0.0111
  199loPI   C3A 3177   3.798   4.665   9.960  0.2613 -0.2675  0.1440
  199loPI   C4A 3178   3.742   4.642   9.524  0.3706  0.0090 -0.0291
  199loPI   C5A 3179   3.676   4.612   9.166 -0.1353 -0.2180 -0.2470
  199loPI   C6A 3180   3.503   4.666   8.772 -0.3110 -0.0722 -0.2062
  199loPI   C1B 3181   4.383   4.656  10.569  0.1230  0.0801  0.0677
  199loPI   C2B 3182   4.232   4.679  10.188 -0.1710  0.0267 -0.2367
  199loPI   C3B 3183   4.281   4.620   9.765  0.0290  0.0386 -0.2426
  199loPI   C4B 3184   4.308   4.691   9.286  0.0249  0.0202 -0.0912
  200loPI    C1 3185  10.162  17.642  11.295  0.1062 -0.0447 -0.0458
  200loPI    C2 3186  10.333  17.457  10.984 -0.0001 -0.1531 -0.0403
  200loPI    C3 3187  10.428  17.349  11.357 -0.1991 -0.3252 -0.0378
  200loPI   PO4 3188   9.988  17.779  11.064 -0.0839  0.1574  0.0357
  200loPI   GL1 3189   9.904  17.548  10.683 -0.0902 -0.1184  0.1778
  200loPI   GL2 3190   9.974  17.808  10.489 -0.1581 -0.0294  0.3534
  200loPI   C1A 3191   9.885  17.371  10.299 -0.0055  0.4222 -0.0821
  200loPI   C2A 3192   9.933  17.206   9.872  0.2057 -0.3250 -0.2727
  200loPI   C3A 3193   9.857  17.237   9.401 -0.6827 -0.2946 -0.2420
  200loPI   C4A 3194   9.928  17.283   8.880 -0.0843 -0.0605  0.2661
  200loPI   C5A 3195  10.085  17.394   8.481  0.0510  0.3020 -0.1367
  200loPI   C6A 3196  10.486  17.333   8.191  0.0912 -0.2718 -0.1822
  200loPI   C1B 3197  10.114  17.803  10.045  0.0443  0.2674 -0.3948
  200loPI   C2B 3198  10.072  17.736   9.652  0.3266  0.1977  0.0943
  200loPI   C3B 3199  10.135  17.936   9.228 -0.4497  0.2572  0.0438
  200loPI   C4B 3200  10.016  17.818   8.804  0.1468  0.0862 -0.5404
  201loPI    C1 3201  11.508  13.280  11.566  0.2931  0.0177  0.0628
  201loPI    C2 3202  11.684  13.086  11.869 -0.0610 -0.2538  0.1023
  201loPI    C3 3203  11.339  13.279  11.929  0.1151  0.1094 -0.0189
  201loPI   PO4 3204  11.434  13.091  11.428  0.3713  0.1207 -0.0252
  201loPI   GL1 3205  11.431  13.012  10.918 -0.1111  0.1691 -0.2536
  201loPI   GL2 3206  11.222  13.196  10.804 -0.1578  0.0384  0.0095
  201loPI   C1A 3207  11.677  13.221  10.539  0.0100 -0.1384  0.2159
  201loPI   C2A 3208  11.684  13.243  10.115  0.0607  0.2969 -0.2461
  201loPI   C3A 3209  11.684  13.198   9.736 -0.0653  0.1571  0.2302
  201loPI   C4A 3210  11.625  13.242   9.313 -0.1269  0.2602 -0.1878
  201loPI   C5A 3211  11.666  13.306   8.856 -0.2641  0.1175  0.0518
  201loPI   C6A 3212  11.634  13.617   8.545  0.0667  0.1852  0.0095
  201loPI   C1B 3213  11.158  13.100  10.394 -0.1114  0.3616 -0.0509
  201loPI   C2B 3214  11.198  13.201   9.937  0.0383 -0.1907 -0.1793
  201loPI   C3B 3215  11.146  13.212   9.464 -0.0213  0.1162  0.0335
  201loPI   C4B 3216  11.190  13.217   8.958 -0.0868  0.1929 -0.2096
  202loPI    C1 3217   8.585   7.049  11.311  0.1526  0.0753  0.0097
  202loPI    C2 3218   8.504   6.676  11.431  0.0338  0.0114 -0.2619
  202loPI    C3 3219   8.362   6.987  11.637  0.0172 -0.0937 -0.1130
  202loPI   PO4 3220   8.559   7.038  11.023 -0.2518  0.0379 -0.2433
  202loPI   GL1 3221   8.663   7.337  10.672 -0.4021 -0.0905 -0.0963
  202loPI   GL2 3222   8.362   7.428  10.728  0.0338 -0.0049 -0.0088
  202loPI   C1A 3223   8.919   7.377  10.328  0.2615 -0.1867 -0.0256
  202loPI   C2A 3224   8.853   7.343   9.956  0.3065  0.0130 -0.2311
  202loPI   C3A 3225   8.808   7.370   9.480  0.0211  0.2116  0.0279
  202loPI   C4A 3226   8.798   7.394   9.103 -0.0160 -0.1169  0.0033
  202loPI   C5A 3227   8.792   7.415   8.719  0.4802 -0.1189  0.0209
  202loPI   C6A 3228   8.587   7.459   8.521 -0.1013  0.1350  0.0908
  202loPI   C1B 3229   8.417   7.409  10.282  0.2821  0.2440  0.0337
  202loPI   C2B 3230   8.329   7.357   9.764 -0.1212 -0.1614  0.2568
  202loPI   C3B 3231   8.267   7.323   9.314 -0.2425 -0.0170 -0.0601
  202loPI   C4B 3232   8.288   7.392   8.948  0.0563 -0.4116  0.1297
  203loPI    C1 3233  16.600   8.625  11.067 -0.1490 -0.1649 -0.0037
  203loPI    C2 3234  16.658   8.839  11.400  0.2399 -0.1270 -0.0916
  203loPI    C3 3235  16.922   8.557  11.294  0.0587 -0.2185 -0.3080
  203loPI   PO4 3236  16.347   8.645  11.061 -0.1860  0.0306 -0.1952
  203loPI   GL1 3237  16.158   8.748  10.728  0.3163  0.2324  0.2498
  203loPI   GL2 3238  16.087   9.142  10.673  0.0794  0.0865  0.0114
  203loPI   C1A 3239  16.277   8.714  10.317  0.3539  0.0082 -0.2592
  203loPI   C2A 3240  16.265   8.691   9.839 -0.0681 -0.1143 -0.3677
  203loPI   C3A 3241  16.256   8.730   9.452  0.1526 -0.1231  0.0112
  203loPI   C4A 3242  16.328   8.755   8.987  0.4040  0.0063 -0.0616
  203loPI   C5A 3243  16.264   8.772   8.521 -0.1853 -0.3147  0.1259
  203loPI   C6A 3244  16.119   9.096   8.256  0.0840  0.1902  0.0215
  203loPI   C1B 3245  16.000   9.191  10.184  0.1188  0.1538 -0.2557
  203loPI   C2B 3246  16.015   9.195   9.672 -0.1040 -0.2033 -0.1245
  203loPI   C3B 3247  16.085   9.132   9.184 -0.0073  0.1318  0.2738
  203loPI   C4B 3248  16.018   9.210   8.742  0.2246 -0.0341 -0.2032
  204loPI    C1 3249  16.766   4.672  11.578 -0.0851  0.0390  0.2905
  204loPI    C2 3250  17.134   4.761  11.705  0.0305 -0.0502  0.0258
  204loPI    C3 3251  16.841   4.699  11.970  0.1518  0.2394  0.2340
  204loPI   PO4 3252  16.769   4.576  11.361  0.1454 -0.1417  0.0226
  204loPI   GL1 3253  16.788   4.518  10.888  0.1522  0.1454 -0.0177
  204loPI   GL2 3254  16.732   4.385  10.607 -0.0990  0.0535 -0.2019
  204loPI   C1A 3255  17.061   4.741  10.603 -0.0552  0.0206  0.1337
  204loPI   C2A 3256  17.067   4.658  10.158 -0.0170  0.2266  0.4091
  204loPI   C3A 3257  16.992   4.590   9.643  0.0987  0.0318 -0.0591
  204loPI   C4A 3258  17.001   4.684   9.256 -0.1132 -0.4302 -0.0799
  204loPI   C5A 3259  17.081   4.675   8.836 -0.1681 -0.1878  0.2104
  204loPI   C6A 3260  16.745   4.498   8.511  0.1998 -0.1428  0.1060
  204loPI   C1B 3261  16.790   4.237  10.225  0.1560  0.0906 -0.2930
  204loPI   C2B 3262  16.796   4.125   9.809  0.0920  0.1955 -0.2537
  204loPI   C3B 3263  16.784   4.229   9.296 -0.2425  0.2966 -0.1157
  204loPI   C4B 3264  16.888   4.181   8.848  0.2823 -0.1199  0.2238
  205loPI    C1 3265  10.809  14.893  11.536  0.1613 -0.2110  0.0216
  205loPI    C2 3266  10.902  14.624  11.817 -0.0719 -0.1978  0.1135
  205loPI    C3 3267  10.921  15.015  11.900  0.0531 -0.1894  0.0479
  205loPI   PO4 3268  10.879  14.789  11.266 -0.0746  0.3026 -0.0828
  205loPI   GL1 3269  10.645  14.563  10.935 -0.2138 -0.0418  0.1083
  205loPI   GL2 3270  10.673  14.911  10.820  0.1814 -0.2220  0.0982
  205loPI   C1A 3271  10.484  14.574  10.503 -0.0824  0.3412  0.1428
  205loPI   C2A 3272  10.421  14.610  10.111 -0.2435  0.0765  0.1102
  205loPI   C3A 3273  10.423  14.659   9.605  0.0934  0.2098 -0.0325
  205loPI   C4A 3274  10.432  14.589   9.226  0.0518 -0.0809  0.4286
  205loPI   C5A 3275  10.273  14.539   8.866  0.3735 -0.0076  0.0940
  205loPI   C6A 3276  10.461  14.469   8.509 -0.0613  0.3340 -0.2552
  205loPI   C1B 3277  10.755  14.995  10.273 -0.0557 -0.0234  0.0742
  205loPI   C2B 3278  10.726  14.960   9.809 -0.3365  0.2296 -0.4356
  205loPI   C3B 3279  10.610  15.025   9.387  0.0057 -0.2970  0.3362
  205loPI   C4B 3280  10.596  15.021   8.935  0.2672  0.2271 -0.1751
  206loPI    C1 3281   6.507   5.046  11.539  0.0077 -0.0737 -0.0875
  206loPI    C2 3282   6.391   4.845  11.865 -0.0731 -0.0522 -0.1028
  206loPI    C3 3283   6.703   5.095  11.884 -0.0827 -0.0449 -0.0401
  206loPI   PO4 3284   6.536   4.865  11.339 -0.1750 -0.0043 -0.3066
  206loPI   GL1 3285   6.611   4.969  10.929 -0.0108  0.1430 -0.0688
  206loPI   GL2 3286   6.776   4.626  10.846  0.0619 -0.2266  0.3302
  206loPI   C1A 3287   6.474   5.076  10.541 -0.2912 -0.3343 -0.1494
  206loPI   C2A 3288   6.600   5.108  10.046 -0.0664  0.2013 -0.3880
  206loPI   C3A 3289   6.480   5.211   9.604 -0.1170 -0.1207 -0.0447
  206loPI   C4A 3290   6.523   5.118   9.201  0.1459  0.3163 -0.1625
  206loPI   C5A 3291   6.477   5.093   8.780  0.1478 -0.3352  0.2054
  206loPI   C6A 3292   6.681   4.925   8.443 -0.4761  0.1533 -0.0878
  206loPI   C1B 3293   6.800   4.643  10.349 -0.2898  0.2234  0.1535
  206loPI   C2B 3294   6.797   4.646   9.913  0.0055 -0.2456 -0.2461
  206loPI   C3B 3295   6.761   4.670   9.454 -0.1933  0.0137 -0.3641
  206loPI   C4B 3296   6.764   4.711   9.020  0.0664 -0.0224 -0.0458
  207loPI    C1 3297  12.315  13.316  11.245  0.0421  0.0636 -0.0870
  207loPI    C2 3298  12.361  13.281  11.641  0.1827 -0.1184 -0.1179
  207loPI    C3 3299  12.002  13.369  11.488  0.1267 -0.0527  0.0492
  207loPI   PO4 3300  12.315  13.065  11.130  0.0022  0.1942 -0.1269
  207loPI   GL1 3301  12.318  13.063  10.736 -0.0481  0.2957  0.1065
  207loPI   GL2 3302  12.400  12.685  10.726  0.0328  0.0415  0.0695
  207loPI   C1A 3303  12.206  13.275  10.374  0.1503  0.3065  0.2582
  207loPI   C2A 3304  12.172  13.261   9.946  0.0918  0.2055  0.2184
  207loPI   C3A 3305  12.257  13.281   9.557 -0.2633  0.0584  0.2853
  207loPI   C4A 3306  12.188  13.196   9.044  0.3806  0.0763  0.0804
  207loPI   C5A 3307  12.180  13.023   8.604  0.1574 -0.4100 -0.0773
  207loPI   C6A 3308  12.413  12.830   8.405 -0.1544 -0.1557  0.1345
  207loPI   C1B 3309  12.404  12.834  10.218 -0.1772 -0.0338 -0.1082
  207loPI   C2B 3310  12.422  12.821   9.811 -0.1336 -0.0856 -0.0123
  207loPI   C3B 3311  12.426  12.724   9.458 -0.2310  0.1740 -0.0786
  207loPI   C4B 3312  12.375  12.777   9.016  0.0160 -0.0693  0.0043
  208loPI    C1 3313  16.730   5.515  11.441 -0.1213  0.0450  0.1372
  208loPI    C2 3314  16.734   5.179  11.657 -0.3993 -0.0293  0.0318
  208loPI    C3 3315  16.704   5.533  11.839  0.1771 -0.0371  0.1630
  208loPI   PO4 3316  16.783   5.391  11.205 -0.1256  0.0827 -0.0119
  208loPI   GL1 3317  16.589   5.243  10.889 -0.0951  0.0548 -0.0808
  208loPI   GL2 3318  16.720   5.028  10.876  0.1406 -0.2212  0.0652
  208loPI   C1A 3319  16.493   5.466  10.529  0.1010 -0.0876 -0.0893
  208loPI   C2A 3320  16.492   5.551  10.216  0.0661 -0.1139  0.2207
  208loPI   C3A 3321  16.454   5.553   9.857 -0.2228  0.0894 -0.2801
  208loPI   C4A 3322  16.547   5.544   9.437  0.1451 -0.0989  0.0670
  208loPI   C5A 3323  16.550   5.653   8.936  0.2438  0.3213  0.1022
  208loPI   C6A 3324  16.730   6.018   8.727 -0.0717  0.2190  0.0794
  208loPI   C1B 3325  16.697   5.020  10.458  0.2296  0.1932 -0.0382
  208loPI   C2B 3326  16.739   5.183  10.019 -0.0323  0.0705  0.3619
  208loPI   C3B 3327  16.837   5.084   9.663 -0.0048 -0.1840  0.0676
  208loPI   C4B 3328  16.780   5.117   9.196 -0.1570 -0.2001 -0.1154
  209loPI    C1 3329  17.114   2.725  11.430 -0.1819 -0.2346 -0.1884
  209loPI    C2 3330  17.007   2.403  11.642 -0.0065 -0.0813  0.1411
  209loPI    C3 3331  17.031   2.760  11.820  0.4854 -0.0098 -0.0544
  209loPI   PO4 3332  17.007   2.624  11.108  0.1538  0.0102 -0.0585
  209loPI   GL1 3333  16.801   2.696  10.782  0.1532 -0.0586 -0.0296
  209loPI   GL2 3334  17.076   2.806  10.657 -0.3437 -0.0308  0.1761
  209loPI   C1A 3335  16.800   2.462  10.400  0.0015 -0.0098 -0.1716
  209loPI   C2A 3336  16.872   2.389   9.958  0.1325 -0.1045  0.0619
  209loPI   C3A 3337  16.819   2.361   9.556 -0.0527  0.1249 -0.3184
  209loPI   C4A 3338  16.735   2.400   9.020  0.0832  0.0072 -0.2678
  209loPI   C5A 3339  16.979   2.552   8.656  0.1661 -0.2849  0.0315
  209loPI   C6A 3340  17.063   2.631   8.274 -0.1992  0.0284  0.1065
  209loPI   C1B 3341  17.041   2.931  10.212 -0.2907  0.2103 -0.1026
  209loPI   C2B 3342  17.095   2.825   9.831  0.1976  0.0887  0.0563
  209loPI   C3B 3343  17.095   2.837   9.418 -0.3432  0.0578  0.3619
  209loPI   C4B 3344  17.089   2.874   9.022  0.1276  0.0802 -0.0189
  210loPI    C1 3345   3.595   4.931  11.746 -0.2643 -0.0010  0.0021
  210loPI    C2 3346   3.504   5.117  12.088 -0.0118 -0.0298  0.0870
  210loPI    C3 3347   3.736   4.791  12.093  0.2100  0.1208 -0.1337
  210loPI   PO4 3348   3.430   4.919  11.635 -0.0903 -0.3847 -0.0277
  210loPI   GL1 3349   3.249   5.097  11.238 -0.1760 -0.1170 -0.4599
  210loPI   GL2 3350   2.990   5.154  11.062  0.1072  0.0244  0.1135
  210loPI   C1A 3351   3.574   5.057  10.875  0.3367  0.1998  0.0809
  210loPI   C2A 3352   3.511   5.085  10.456  0.3118 -0.2393 -0.2735
  210loPI   C3A 3353   3.487   5.060   9.950  0.1282 -0.0924  0.1437
  210loPI   C4A 3354   3.521   5.072   9.527 -0.0000 -0.1546  0.0468
  210loPI   C5A 3355   3.448   5.072   9.138 -0.3821  0.0029 -0.0732
  210loPI   C6A 3356   3.218   5.134   8.716  0.0332  0.1462 -0.1070
  210loPI   C1B 3357   3.007   5.050  10.683  0.0524  0.2873 -0.0463
  210loPI   C2B 3358   3.001   5.078  10.262  0.3931  0.2067 -0.0503
  210loPI   C3B 3359   2.984   5.011   9.858 -0.3540 -0.2768 -0.1619
  210loPI   C4B 3360   3.011   5.042   9.448  0.1914  0.0624  0.1715
  211loPI    C1 3361  13.308   2.955  11.198  0.0320  0.0447 -0.0673
  211loPI    C2 3362  13.128   3.274  11.358  0.0118  0.0986 -0.1963
  211loPI    C3 3363  13.525   3.272  11.310  0.0492 -0.0251  0.0993
  211loPI   PO4 3364  13.091   2.918  10.986  0.0059  0.3530 -0.0328
  211loPI   GL1 3365  13.117   2.771  10.471 -0.1091  0.1128 -0.0766
  211loPI   GL2 3366  12.797   2.693  10.357  0.0362 -0.2578 -0.0066
  211loPI   C1A 3367  13.427   2.865  10.089  0.1427 -0.0699  0.0727
  211loPI   C2A 3368  13.634   2.542   9.880 -0.0796  0.1476 -0.0555
  211loPI   C3A 3369  13.662   2.463   9.415 -0.1149  0.1854  0.3779
  211loPI   C4A 3370  13.733   2.621   9.066  0.3400  0.3493  0.0288
  211loPI   C5A 3371  13.852   3.019   8.862  0.2088  0.0984  0.0438
  211loPI   C6A 3372  13.627   3.439   8.844  0.0650 -0.2079  0.1189
  211loPI   C1B 3373  13.010   2.550  10.004 -0.1868 -0.0006  0.2874
  211loPI   C2B 3374  13.168   2.467   9.572  0.2583  0.0867 -0.1179
  211loPI   C3B 3375  13.248   2.466   9.058  0.0017  0.2894  0.2329
  211loPI   C4B 3376  13.058   2.642   8.773  0.4283 -0.3135 -0.4130
  212loPI    C1 3377  14.491   5.377  11.345  0.2322 -0.1320  0.1048
  212loPI    C2 3378  14.490   5.689  11.595  0.0437 -0.0408 -0.0075
  212loPI    C3 3379  14.392   5.325  11.729  0.0568 -0.0136  0.0767
  212loPI   PO4 3380  14.545   5.494  11.017  0.0719  0.0512 -0.5052
  212loPI   GL1 3381  14.653   5.370  10.647 -0.0917 -0.0635 -0.3291
  212loPI   GL2 3382  14.407   5.395  10.377 -0.1188  0.1242 -0.3540
  212loPI   C1A 3383  14.921   5.383  10.344  0.0371 -0.1861  0.0278
  212loPI   C2A 3384  14.873   5.485   9.901 -0.0217  0.0382  0.1705
  212loPI   C3A 3385  14.980   5.621   9.595 -0.0529 -0.0775 -0.0730
  212loPI   C4A 3386  14.859   5.580   9.254 -0.1539 -0.2666 -0.1115
  212loPI   C5A 3387  15.076   5.701   8.888  0.3096  0.0464  0.1783
  212loPI   C6A 3388  15.288   5.780   8.535 -0.0316  0.1739 -0.1099
  212loPI   C1B 3389  14.363   5.516   9.970 -0.0853 -0.0501  0.0243
  212loPI   C2B 3390  14.471   5.566   9.535  0.2178  0.0893  0.1877
  212loPI   C3B 3391  14.383   5.671   9.103 -0.1127 -0.1361  0.3473
  212loPI   C4B 3392  14.345   5.701   8.720 -0.1223  0.3102 -0.1666
  213loPI    C1 3393  13.974  12.396  11.564 -0.1522 -0.0579 -0.2019
  213loPI    C2 3394  13.823  12.702  11.772 -0.2216 -0.1036 -0.1847
  213loPI    C3 3395  13.874  12.347  11.948  0.1490 -0.0202 -0.1165
  213loPI   PO4 3396  13.928  12.523  11.328 -0.2726 -0.0417  0.0464
  213loPI   GL1 3397  13.986  12.756  10.900  0.1621 -0.2111 -0.3179
  213loPI   GL2 3398  13.711  13.001  10.843 -0.3397 -0.0906 -0.4269
  213loPI   C1A 3399  13.883  12.765  10.444 -0.0327  0.0429  0.2382
  213loPI   C2A 3400  13.930  12.729  10.018  0.2073 -0.3680  0.2405
  213loPI   C3A 3401  13.938  12.791   9.553  0.2817  0.2872  0.0321
  213loPI   C4A 3402  13.960  12.781   9.123 -0.1677  0.2261 -0.1904
  213loPI   C5A 3403  14.239  13.048   8.876  0.0069  0.4125 -0.0628
  213loPI   C6A 3404  14.495  13.457   8.853  0.0780 -0.0939  0.1020
  213loPI   C1B 3405  13.708  13.183  10.387  0.2678 -0.1011  0.2324
  213loPI   C2B 3406  13.715  13.298   9.915  0.2252  0.3357  0.1415
  213loPI   C3B 3407  13.698  13.247   9.392 -0.0017 -0.0628 -0.0167
  213loPI   C4B 3408  13.730  13.253   8.971  0.0063  0.2382  0.1206
  214loPI    C1 3409   5.958  11.472  11.428 -0.2719  0.0714 -0.0758
  214loPI    C2 3410   6.061  11.180  11.681  0.0571  0.2748  0.0333
  214loPI    C3 3411   5.969  11.543  11.822 -0.0648  0.3051 -0.1206
  214loPI   PO4 3412   6.218  11.481  11.270  0.0115 -0.0541  0.0170
  214loPI   GL1 3413   6.347  11.535  10.825  0.0561 -0.0664  0.0309
  214loPI   GL2 3414   6.057  11.465  10.619  0.3719  0.0858  0.0400
  214loPI   C1A 3415   6.634  11.415  10.503  0.0248 -0.2511 -0.4155
  214loPI   C2A 3416   6.525  11.388  10.079  0.2665  0.0257 -0.2882
  214loPI   C3A 3417   6.583  11.450   9.588  0.3203 -0.1966  0.0066
  214loPI   C4A 3418   6.613  11.446   9.106 -0.0265 -0.0387  0.1866
  214loPI   C5A 3419   6.740  11.501   8.641  0.1275 -0.0398 -0.0303
  214loPI   C6A 3420   6.860  11.597   8.248  0.2158 -0.1429 -0.0289
  214loPI   C1B 3421   5.993  11.413  10.171  0.1034  0.2257 -0.0736
  214loPI   C2B 3422   5.936  11.398   9.834  0.5011  0.0098  0.1305
  214loPI   C3B 3423   6.006  11.471   9.491 -0.0416 -0.1923  0.2426
  214loPI   C4B 3424   6.082  11.463   9.022 -0.1603 -0.2442 -0.0710
  215loPI    C1 3425   3.367  13.986  11.444 -0.0036  0.0831  0.1854
  215loPI    C2 3426   3.530  13.749  11.722 -0.0778 -0.2879 -0.0808
  215loPI    C3 3427   3.197  13.954  11.805  0.0923 -0.1239  0.2133
  215loPI   PO4 3428   3.548  14.027  11.250  0.2132 -0.2734  0.0289
  215loPI   GL1 3429   3.627  14.051  10.861  0.1251  0.1359  0.1771
  215loPI   GL2 3430   3.686  13.797  10.730  0.0275  0.1334 -0.1334
  215loPI   C1A 3431   3.444  14.056  10.382 -0.1946 -0.1994 -0.0473
  215loPI   C2A 3432   3.454  14.020   9.889 -0.1288 -0.4305  0.1886
  215loPI   C3A 3433   3.465  14.140   9.391 -0.2252  0.0625  0.1198
  215loPI   C4A 3434   3.375  14.175   9.008 -0.4023  0.1627  0.4657
  215loPI   C5A 3435   3.237  14.115   8.515  0.0025  0.1444  0.0373
  215loPI   C6A 3436   3.166  13.849   8.115 -0.0457  0.1616 -0.1854
  215loPI   C1B 3437   3.801  13.629  10.318  0.1425  0.0069  0.3760
  215loPI   C2B 3438   3.760  13.655   9.917  0.0115  0.0204 -0.1009
  215loPI   C3B 3439   3.627  13.655   9.567  0.0746 -0.4827  0.0320
  215loPI   C4B 3440   3.721  13.641   9.124 -0.0675 -0.1897  0.2758
  216loPI    C1 3441  17.920   3.209  11.522 -0.2486 -0.1118  0.0035
  216loPI    C2 3442  17.736   3.562  11.481 -0.1076 -0.0368  0.0113
  216loPI    C3 3443  17.715   3.366  11.828 -0.1782 -0.0315  0.0101
  216loPI   PO4 3444  17.915   3.177  11.211  0.1742  0.0882 -0.2006
  216loPI   GL1 3445  18.021   2.779  10.933 -0.1540 -0.0009 -0.2132
  216loPI   GL2 3446  17.699   3.028  10.825  0.0220 -0.0571 -0.1413
  216loPI   C1A 3447  18.080   2.778  10.555  0.0342 -0.0931 -0.0988
  216loPI   C2A 3448  18.076   2.782  10.122 -0.1539  0.2770  0.0178
  216loPI   C3A 3449  18.153   2.913   9.677  0.3280  0.0391  0.0647
  216loPI   C4A 3450  18.096   2.891   9.154  0.1488  0.0597  0.0608
  216loPI   C5A 3451  17.945   2.857   8.739 -0.0228 -0.1888  0.1034
  216loPI   C6A 3452  17.854   3.088   8.339 -0.1674  0.0081  0.2407
  216loPI   C1B 3453  17.594   2.787  10.468 -0.2782  0.3203  0.3200
  216loPI   C2B 3454  17.591   2.851  10.091 -0.0232  0.3157 -0.1232
  216loPI   C3B 3455  17.639   2.917   9.635  0.5677 -0.4529  0.0728
  216loPI   C4B 3456  17.592   2.839   9.129 -0.1148 -0.0421  0.1470
  217loPI    C1 3457  10.416  -0.037  10.995 -0.1447 -0.1020  0.3118
  217loPI    C2 3458  10.216   0.262  11.170 -0.0246  0.0428  0.2049
  217loPI    C3 3459  10.613   0.240  11.206 -0.0139 -0.0028  0.0635
  217loPI   PO4 3460  10.350  -0.026  10.739  0.3439 -0.1226 -0.0979
  217loPI   GL1 3461  10.486  -0.178  10.383 -0.3496  0.2340  0.2146
  217loPI   GL2 3462  10.433   0.176  10.299 -0.1997 -0.0086  0.0749
  217loPI   C1A 3463  10.567  -0.333   9.994 -0.1702  0.5127  0.2753
  217loPI   C2A 3464  10.631  -0.257   9.503  0.0844  0.0968 -0.1668
  217loPI   C3A 3465  10.657  -0.255   9.085  0.2133  0.0490  0.1600
  217loPI   C4A 3466  10.557   0.010   8.848 -0.0318  0.1746 -0.1899
  217loPI   C5A 3467  10.381   0.429   8.776  0.0130 -0.2338  0.2835
  217loPI   C6A 3468  10.382   0.862   8.830 -0.1477 -0.1976 -0.0457
  217loPI   C1B 3469  10.739   0.127   9.937 -0.3490  0.0561 -0.2004
  217loPI   C2B 3470  11.003   0.169   9.604 -0.1133 -0.1422 -0.0794
  217loPI   C3B 3471  11.483   0.150   9.425  0.4604 -0.4359  0.0302
  217loPI   C4B 3472  11.961   0.204   9.440  0.1842  0.1752  0.1219
  218loPI    C1 3473  13.249   2.457  11.208 -0.0098  0.1496 -0.0852
  218loPI    C2 3474  13.357   2.131  11.414 -0.0579  0.1738 -0.0213
  218loPI    C3 3475  13.512   2.488  11.507  0.0613  0.1561 -0.1481
  218loPI   PO4 3476  13.247   2.424  10.862 -0.0719  0.0754  0.1342
  218loPI   GL1 3477  13.051   2.250  10.440 -0.1371 -0.0698  0.1573
  218loPI   GL2 3478  13.190   1.984  10.471  0.1064 -0.0110 -0.0548
  218loPI   C1A 3479  12.912   1.978  10.008  0.0363 -0.2276 -0.0747
  218loPI   C2A 3480  12.970   2.045   9.603  0.1420  0.1083  0.0396
  218loPI   C3A 3481  13.026   2.064   9.146  0.3689  0.3165 -0.1315
  218loPI   C4A 3482  13.096   2.089   8.629  0.0051 -0.2137  0.1599
  218loPI   C5A 3483  13.367   2.040   8.355 -0.2068 -0.0762 -0.0406
  218loPI   C6A 3484  13.704   2.256   8.079 -0.0299  0.1807  0.0232
  218loPI   C1B 3485  13.363   2.154  10.086 -0.0439 -0.3960 -0.0508
  218loPI   C2B 3486  13.463   2.100   9.734  0.0564  0.0559 -0.1353
  218loPI   C3B 3487  13.478   1.992   9.311 -0.1397  0.2842 -0.1112
  218loPI   C4B 3488  13.547   2.025   8.819 -0.1020 -0.1929  0.3339
  219loPI    C1 3489   4.483  13.683  11.663  0.0832 -0.1210  0.2966
  219loPI    C2 3490   4.095  13.627  11.739  0.0489 -0.1502  0.1058
  219loPI    C3 3491   4.337  13.767  12.025 -0.0822 -0.2257  0.2552
  219loPI   PO4 3492   4.454  13.870  11.467  0.0324  0.1334  0.1146
  219loPI   GL1 3493   4.487  13.893  11.001 -0.0527  0.0409  0.0334
  219loPI   GL2 3494   4.313  13.654  10.980 -0.1420  0.0429 -0.0256
  219loPI   C1A 3495   4.556  14.016  10.660  0.2490  0.2566 -0.0972
  219loPI   C2A 3496   4.458  14.014  10.251 -0.3415 -0.0321 -0.0698
  219loPI   C3A 3497   4.540  14.142   9.826  0.2774 -0.1635  0.0191
  219loPI   C4A 3498   4.587  14.176   9.332  0.1998 -0.2115 -0.1177
  219loPI   C5A 3499   4.499  14.155   8.909 -0.1684 -0.1718  0.0381
  219loPI   C6A 3500   4.673  13.890   8.632 -0.0365 -0.1550  0.1419
  219loPI   C1B 3501   4.210  13.735  10.602  0.1464  0.6153  0.0269
  219loPI   C2B 3502   4.253  13.544  10.145  0.1664  0.1065 -0.0612
  219loPI   C3B 3503   4.235  13.647   9.708 -0.0285 -0.2719 -0.0687
  219loPI   C4B 3504   4.185  13.600   9.392 -0.0880  0.1467 -0.5996
  220loPI    C1 3505   4.207  15.607  11.553  0.3345  0.0202 -0.1495
  220loPI    C2 3506   4.432  15.432  11.833  0.2851  0.1425 -0.0327
  220loPI    C3 3507   4.262  15.787  11.906 -0.0011  0.0203 -0.0941
  220loPI   PO4 3508   4.340  15.555  11.348 -0.1446  0.0925  0.0499
  220loPI   GL1 3509   4.380  15.626  10.815  0.2861 -0.1930 -0.0143
  220loPI   GL2 3510   4.083  15.809  10.728 -0.0689 -0.4411  0.2753
  220loPI   C1A 3511   4.363  15.563  10.365  0.1081  0.4887  0.1945
  220loPI   C2A 3512   4.356  15.386  10.028  0.2932 -0.0251 -0.0781
  220loPI   C3A 3513   4.221  15.439   9.669 -0.0016  0.0260  0.3213
  220loPI   C4A 3514   4.294  15.499   9.246  0.1718  0.1215  0.1785
  220loPI   C5A 3515   4.188  15.542   8.755 -0.0738  0.0465 -0.0015
  220loPI   C6A 3516   4.442  15.264   8.520 -0.2245  0.2303 -0.3007
  220loPI   C1B 3517   4.075  15.919  10.328  0.3487 -0.1834  0.4419
  220loPI   C2B 3518   4.060  15.863   9.941  0.0757  0.0061  0.2092
  220loPI   C3B 3519   4.042  15.880   9.554  0.1565 -0.3927  0.2290
  220loPI   C4B 3520   3.944  15.954   9.127  0.2327  0.0516 -0.1804
  221loPI    C1 3521  13.831  14.238  11.641  0.2299  0.0994 -0.2199
  221loPI    C2 3522  14.159  14.463  11.685  0.1363  0.1874  0.0433
  221loPI    C3 3523  13.913  14.405  11.995 -0.0240  0.0064 -0.1153
  221loPI   PO4 3524  13.735  14.209  11.405 -0.1023 -0.2334  0.0180
  221loPI   GL1 3525  13.911  14.037  11.004  0.1079 -0.2134  0.0443
  221loPI   GL2 3526  14.269  13.849  11.017 -0.3140 -0.0981 -0.1384
  221loPI   C1A 3527  13.672  14.158  10.681 -0.0093  0.1235 -0.1608
  221loPI   C2A 3528  13.676  14.161  10.341  0.2625  0.2870 -0.2062
  221loPI   C3A 3529  13.683  14.157   9.904  0.1900 -0.2224  0.0360
  221loPI   C4A 3530  13.791  14.105   9.519  0.0148  0.0387 -0.3551
  221loPI   C5A 3531  13.746  14.092   9.034  0.2566  0.1845 -0.1514
  221loPI   C6A 3532  13.599  14.310   8.742  0.1458  0.0108  0.0414
  221loPI   C1B 3533  14.424  13.770  10.669  0.0815  0.0789 -0.1459
  221loPI   C2B 3534  14.496  13.710  10.186 -0.1736 -0.1864  0.0998
  221loPI   C3B 3535  14.497  13.678   9.702  0.0513 -0.5262  0.0288
  221loPI   C4B 3536  14.546  13.650   9.321  0.3025  0.1828 -0.0676
  222loPI    C1 3537  14.648   6.401  11.279  0.0768 -0.2603 -0.0336
  222loPI    C2 3538  14.660   6.200  11.625 -0.0770 -0.2098  0.0018
  222loPI    C3 3539  14.660   6.600  11.626  0.1681 -0.2080 -0.0666
  222loPI   PO4 3540  14.892   6.290  11.167  0.1921  0.0173 -0.0313
  222loPI   GL1 3541  15.041   6.383  10.816  0.0363  0.3245 -0.0285
  222loPI   GL2 3542  14.718   6.346  10.681  0.1219  0.2867  0.0205
  222loPI   C1A 3543  15.372   6.359  10.418  0.5386  0.2224 -0.0871
  222loPI   C2A 3544  15.460   6.406  10.053 -0.1805  0.1617  0.1440
  222loPI   C3A 3545  15.528   6.472   9.718 -0.0501  0.1410 -0.0816
  222loPI   C4A 3546  15.579   6.583   9.256 -0.2845  0.1008  0.0210
  222loPI   C5A 3547  15.562   6.608   8.816  0.2014  0.0470  0.0319
  222loPI   C6A 3548  15.471   6.362   8.423  0.1463  0.2264  0.0305
  222loPI   C1B 3549  14.867   6.428  10.253  0.2422  0.1467 -0.0687
  222loPI   C2B 3550  15.035   6.502   9.855  0.2955  0.0698  0.0577
  222loPI   C3B 3551  15.053   6.528   9.369 -0.2139  0.1129 -0.2031
  222loPI   C4B 3552  15.024   6.568   9.018  0.0247 -0.2750  0.4466
  223loPI    C1 3553  13.109   1.827  11.042 -0.1413  0.0838  0.3623
  223loPI    C2 3554  12.859   2.106  10.902  0.0147  0.0458 -0.0042
  223loPI    C3 3555  12.754   1.720  10.890 -0.0020  0.0483  0.0553
  223loPI   PO4 3556  13.346   1.865  10.903  0.1763 -0.0949 -0.1588
  223loPI   GL1 3557  13.694   1.874  10.623  0.0954 -0.3333  0.0513
  223loPI   GL2 3558  13.952   2.031  10.593 -0.0525  0.0937 -0.1379
  223loPI   C1A 3559  13.539   1.648  10.247 -0.4448 -0.2914 -0.2043
  223loPI   C2A 3560  13.723   1.557   9.915 -0.1741  0.0279  0.1780
  223loPI   C3A 3561  13.711   1.548   9.442 -0.0176  0.0959 -0.0232
  223loPI   C4A 3562  13.676   1.486   8.996  0.0042  0.0338  0.0698
  223loPI   C5A 3563  13.723   1.536   8.686  0.1152 -0.0261  0.2305
  223loPI   C6A 3564  13.729   1.134   8.385  0.2032 -0.1269 -0.4428
  223loPI   C1B 3565  13.826   2.031  10.142  0.2813 -0.0760  0.0788
  223loPI   C2B 3566  13.934   1.989   9.754 -0.1173 -0.2547  0.0907
  223loPI   C3B 3567  13.982   1.944   9.262 -0.3865  0.2389 -0.2496
  223loPI   C4B 3568  14.099   1.975   8.854 -0.1786  0.2302 -0.1308
  224loPI    C1 3569  17.375  12.200  11.409 -0.0407 -0.1725  0.1581
  224loPI    C2 3570  17.681  12.013  11.586  0.2560  0.2712  0.1300
  224loPI    C3 3571  17.397  12.185  11.808  0.1651  0.0851  0.1594
  224loPI   PO4 3572  17.333  11.998  11.183  0.0550 -0.0404  0.0402
  224loPI   GL1 3573  17.279  11.973  10.864 -0.3541 -0.0472 -0.1058
  224loPI   GL2 3574  17.131  12.230  10.749  0.5300  0.0296 -0.1462
  224loPI   C1A 3575  17.544  11.877  10.489 -0.1671  0.2867  0.1573
  224loPI   C2A 3576  17.606  11.862  10.051 -0.4984 -0.1277  0.1105
  224loPI   C3A 3577  17.597  11.991   9.651 -0.0940  0.1174  0.1490
  224loPI   C4A 3578  17.569  11.861   9.281  0.0739  0.0209 -0.0768
  224loPI   C5A 3579  17.544  11.931   8.865  0.1782 -0.1254  0.0795
  224loPI   C6A 3580  17.682  12.045   8.481 -0.0007  0.3528  0.2066
  224loPI   C1B 3581  17.256  12.272  10.425  0.0707 -0.2332  0.1883
  224loPI   C2B 3582  17.350  12.341   9.971 -0.1034  0.2576 -0.1721
  224loPI   C3B 3583  17.275  12.318   9.448  0.3509  0.1638  0.1858
  224loPI   C4B 3584  17.341  12.341   9.007 -0.1160  0.0468 -0.0264
  225loPI    C1 3585  15.893  13.111  11.413 -0.1145 -0.1146  0.1237
  225loPI    C2 3586  16.236  13.127  11.207 -0.1214 -0.0639  0.1161
  225loPI    C3 3587  16.236  13.004  11.588 -0.0942 -0.0617  0.1167
  225loPI   PO4 3588  15.679  13.044  11.262  0.1465  0.0199 -0.0776
  225loPI   GL1 3589  15.796  12.911  10.863  0.0534 -0.4093 -0.0574
  225loPI   GL2 3590  15.886  13.332  10.901  0.0280  0.1748 -0.1468
  225loPI   C1A 3591  15.904  12.798  10.489 -0.1391 -0.0105 -0.0569
  225loPI   C2A 3592  15.969  12.830  10.093  0.0680  0.2216 -0.1132
  225loPI   C3A 3593  16.097  12.724   9.696  0.1046  0.2340 -0.0734
  225loPI   C4A 3594  16.074  12.710   9.267 -0.3367  0.1923 -0.1058
  225loPI   C5A 3595  16.135  12.736   8.841 -0.1471  0.1500 -0.0480
  225loPI   C6A 3596  16.488  12.592   8.538  0.0935 -0.0949  0.0003
  225loPI   C1B 3597  15.685  13.241  10.496 -0.0408  0.0688  0.1823
  225loPI   C2B 3598  15.773  13.266  10.022  0.2444 -0.1539  0.2636
  225loPI   C3B 3599  15.718  13.238   9.625  0.1786 -0.0529  0.1727
  225loPI   C4B 3600  15.751  13.134   9.215 -0.0353 -0.0241  0.1029
  226loPI    C1 3601   2.536  13.065  11.333 -0.1374  0.0349 -0.1366
  226loPI    C2 3602   2.725  13.211  11.654  0.0163 -0.1254 -0.1528
  226loPI    C3 3603   2.648  12.819  11.627 -0.2533 -0.0728 -0.1814
  226loPI   PO4 3604   2.650  13.074  11.130  0.2355 -0.0620 -0.2697
  226loPI   GL1 3605   2.851  12.852  10.812  0.1841  0.1510 -0.1303
  226loPI   GL2 3606   3.031  13.100  10.769 -0.1618  0.1547 -0.2718
  226loPI   C1A 3607   2.580  12.628  10.517  0.1647  0.4210  0.2498
  226loPI   C2A 3608   2.646  12.695  10.080 -0.2028 -0.2667 -0.0573
  226loPI   C3A 3609   2.606  12.746   9.623 -0.0700 -0.1862  0.1927
  226loPI   C4A 3610   2.622  12.801   9.176  0.0251 -0.0850  0.0443
  226loPI   C5A 3611   2.673  12.748   8.797 -0.0004 -0.0219  0.1292
  226loPI   C6A 3612   2.447  12.527   8.442  0.0308 -0.1528 -0.1408
  226loPI   C1B 3613   2.979  13.059  10.337  0.1013  0.1797  0.0386
  226loPI   C2B 3614   2.889  13.225   9.867  0.0007  0.1945  0.0997
  226loPI   C3B 3615   2.856  13.218   9.482 -0.2694 -0.1059  0.0803
  226loPI   C4B 3616   2.920  13.239   8.960  0.1032 -0.1093  0.0830
  227loPI    C1 3617   7.660   7.468  11.662  0.0212 -0.2248  0.2765
  227loPI    C2 3618   7.821   7.767  11.874  0.1373 -0.3188  0.3217
  227loPI    C3 3619   7.423   7.724  11.857  0.1008  0.0960 -0.0367
  227loPI   PO4 3620   7.724   7.421  11.382 -0.4089  0.1066 -0.0521
  227loPI   GL1 3621   7.687   7.400  11.000  0.2501 -0.0283 -0.2433
  227loPI   GL2 3622   7.461   7.707  11.043 -0.0009 -0.0330 -0.0572
  227loPI   C1A 3623   7.904   7.345  10.544 -0.0719  0.0023  0.1131
  227loPI   C2A 3624   7.841   7.392  10.054 -0.0731  0.0343 -0.2591
  227loPI   C3A 3625   7.865   7.348   9.666 -0.0068  0.2143 -0.0270
  227loPI   C4A 3626   7.756   7.446   9.229  0.0048  0.5053 -0.2424
  227loPI   C5A 3627   7.769   7.384   8.815 -0.1311  0.2267  0.3785
  227loPI   C6A 3628   7.497   7.083   8.552 -0.3608  0.0464  0.1784
  227loPI   C1B 3629   7.553   7.791  10.616  0.0593  0.2191  0.2665
  227loPI   C2B 3630   7.632   7.799  10.179 -0.1027 -0.1673  0.1308
  227loPI   C3B 3631   7.631   7.821   9.670  0.1181  0.2765 -0.3830
  227loPI   C4B 3632   7.505   7.877   9.217  0.0038 -0.3203  0.3410
  228loPI    C1 3633   9.492  13.436  11.405 -0.0541  0.1400  0.0219
  228loPI    C2 3634   9.141  13.601  11.506 -0.0982  0.1590 -0.1587
  228loPI    C3 3635   9.462  13.654  11.739 -0.2349  0.0694  0.0531
  228loPI   PO4 3636   9.613  13.518  11.241  0.2517  0.0037 -0.0541
  228loPI   GL1 3637   9.526  13.628  10.826 -0.0913  0.2831  0.0459
  228loPI   GL2 3638   9.286  13.818  10.980 -0.0443 -0.0959 -0.1027
  228loPI   C1A 3639   9.420  13.692  10.364  0.1649 -0.1152 -0.2575
  228loPI   C2A 3640   9.401  13.615  10.015  0.1461 -0.2502  0.1602
  228loPI   C3A 3641   9.436  13.753   9.612 -0.1933 -0.4234  0.2819
  228loPI   C4A 3642   9.473  13.690   9.168 -0.1854  0.3773 -0.0027
  228loPI   C5A 3643   9.375  13.514   8.772  0.0335  0.2964  0.0250
  228loPI   C6A 3644   9.313  13.695   8.363  0.0928  0.0339  0.0840
  228loPI   C1B 3645   9.174  14.011  10.636 -0.2085 -0.0299  0.0068
  228loPI   C2B 3646   9.164  14.086  10.148  0.0868 -0.2486  0.0301
  228loPI   C3B 3647   9.130  14.151   9.706  0.0774 -0.0703  0.0738
  228loPI   C4B 3648   9.149  14.237   9.364  0.0360 -0.1337 -0.6456
  229loPI    C1 3649   1.344   3.001  11.582  0.2097  0.0424  0.2768
  229loPI    C2 3650   1.670   3.203  11.469  0.0874  0.1659  0.1394
  229loPI    C3 3651   1.483   3.298  11.810  0.3663 -0.1039  0.3742
  229loPI   PO4 3652   1.231   3.005  11.365 -0.1064  0.1993  0.1905
  229loPI   GL1 3653   1.275   3.092  10.939 -0.0155 -0.0696 -0.0185
  229loPI   GL2 3654   1.664   3.089  10.920 -0.0039 -0.0785  0.3277
  229loPI   C1A 3655   1.342   3.152  10.487 -0.0507  0.1571  0.1766
  229loPI   C2A 3656   1.446   3.288  10.051  0.2697 -0.1048 -0.2165
  229loPI   C3A 3657   1.322   3.283   9.612 -0.0380 -0.1135  0.0269
  229loPI   C4A 3658   1.374   3.343   9.152 -0.1939 -0.0916 -0.1209
  229loPI   C5A 3659   1.262   3.448   8.662 -0.0693 -0.0551 -0.0209
  229loPI   C6A 3660   1.557   3.556   8.350  0.0356 -0.1482 -0.3253
  229loPI   C1B 3661   1.888   3.130  10.585 -0.1637 -0.0775  0.0070
  229loPI   C2B 3662   1.983   3.224  10.161  0.0139 -0.3697 -0.0106
  229loPI   C3B 3663   1.828   3.244   9.715  0.0641 -0.1108  0.1537
  229loPI   C4B 3664   1.874   3.257   9.259  0.0700  0.0014 -0.0208
  230loPI    C1 3665   7.727   8.393  11.362  0.0932  0.1490  0.0992
  230loPI    C2 3666   7.525   8.441  11.704 -0.0723 -0.0358  0.0291
  230loPI    C3 3667   7.884   8.264  11.706 -0.2525 -0.4098  0.0586
  230loPI   PO4 3668   7.518   8.353  11.206 -0.0275 -0.1471 -0.3301
  230loPI   GL1 3669   7.321   8.362  10.858  0.2002 -0.0181 -0.1177
  230loPI   GL2 3670   7.075   8.127  10.750 -0.0284  0.1413 -0.1399
  230loPI   C1A 3671   7.351   8.266  10.378 -0.0847  0.3132  0.1622
  230loPI   C2A 3672   7.307   8.205   9.940  0.0616  0.1264  0.3502
  230loPI   C3A 3673   7.283   8.282   9.471  0.2502 -0.3726  0.2147
  230loPI   C4A 3674   7.283   8.386   9.002  0.1068  0.0383  0.0738
  230loPI   C5A 3675   7.607   8.254   8.773  0.1675 -0.1430  0.2746
  230loPI   C6A 3676   7.779   8.343   8.486 -0.0914 -0.1142 -0.0345
  230loPI   C1B 3677   6.870   8.144  10.353 -0.1325  0.1111  0.1524
  230loPI   C2B 3678   6.831   8.269   9.942 -0.1006  0.0798  0.0039
  230loPI   C3B 3679   6.738   8.248   9.495 -0.2550 -0.1158 -0.0255
  230loPI   C4B 3680   6.655   8.142   9.036 -0.1963 -0.1831  0.1589
  231loPI    C1 3681   5.257   8.966  11.415  0.0116 -0.1395 -0.3377
  231loPI    C2 3682   5.649   8.978  11.338  0.0965  0.1584  0.1067
  231loPI    C3 3683   5.514   9.057  11.707 -0.3612 -0.2674  0.0417
  231loPI   PO4 3684   5.164   8.833  11.200 -0.0269 -0.0691 -0.0371
  231loPI   GL1 3685   4.755   8.734  10.991  0.0044  0.2858  0.2560
  231loPI   GL2 3686   4.860   8.994  10.795 -0.1243  0.0251 -0.3011
  231loPI   C1A 3687   4.672   8.600  10.607  0.0054 -0.0688 -0.0912
  231loPI   C2A 3688   4.498   8.580  10.226  0.0686 -0.1478  0.0474
  231loPI   C3A 3689   4.518   8.633   9.859 -0.1038 -0.1059 -0.0690
  231loPI   C4A 3690   4.509   8.707   9.363 -0.2362  0.0852  0.1443
  231loPI   C5A 3691   4.263   8.950   8.976  0.2203 -0.1853  0.1931
  231loPI   C6A 3692   3.936   9.070   8.679  0.1700  0.0563 -0.0428
  231loPI   C1B 3693   4.789   9.066  10.385  0.2034 -0.1371  0.1914
  231loPI   C2B 3694   4.671   9.181  10.033  0.0404  0.1171  0.2512
  231loPI   C3B 3695   4.644   9.093   9.543 -0.2506 -0.1044 -0.2168
  231loPI   C4B 3696   4.681   9.123   9.187 -0.3749  0.2334 -0.0150
  232loPI    C1 3697  15.040   1.448  11.360  0.0341 -0.0356  0.0364
  232loPI    C2 3698  15.070   1.838  11.445  0.1657 -0.0504  0.0598
  232loPI    C3 3699  15.068   1.569  11.741  0.0399 -0.0661  0.0455
  232loPI   PO4 3700  15.246   1.445  11.166  0.1239 -0.1221 -0.0426
  232loPI   GL1 3701  15.346   1.643  10.780  0.0209 -0.1598 -0.2966
  232loPI   GL2 3702  15.356   1.955  10.570 -0.0160 -0.0194 -0.1335
  232loPI   C1A 3703  15.316   1.582  10.289  0.0347 -0.1276  0.4833
  232loPI   C2A 3704  15.211   1.589   9.911 -0.0875  0.0520 -0.3934
  232loPI   C3A 3705  15.244   1.555   9.603  0.0180  0.0383 -0.0216
  232loPI   C4A 3706  15.161   1.508   9.134 -0.1060  0.0629  0.0627
  232loPI   C5A 3707  15.135   1.361   8.705  0.0496  0.3261 -0.2223
  232loPI   C6A 3708  15.058   1.219   8.277 -0.0085 -0.1510  0.1322
  232loPI   C1B 3709  15.465   2.000  10.121  0.4349 -0.0632 -0.0758
  232loPI   C2B 3710  15.461   1.990   9.680 -0.0281 -0.0572  0.0086
  232loPI   C3B 3711  15.463   1.958   9.228  0.0262  0.1631 -0.0368
  232loPI   C4B 3712  15.426   2.034   8.749 -0.3015  0.0911 -0.2436
  233loPI    C1 3713  15.673   2.352  11.020  0.1962 -0.2479 -0.1752
  233loPI    C2 3714  15.970   2.609  10.946 -0.0380 -0.0074 -0.2985
  233loPI    C3 3715  15.683   2.706  11.206  0.0642 -0.2976 -0.0724
  233loPI   PO4 3716  15.757   2.106  10.961 -0.0311  0.0094 -0.1260
  233loPI   GL1 3717  15.923   2.090  10.591 -0.0411 -0.2883 -0.3573
  233loPI   GL2 3718  15.744   2.300  10.453 -0.0139  0.1682  0.1659
  233loPI   C1A 3719  15.969   2.031  10.099 -0.0692 -0.4014  0.0413
  233loPI   C2A 3720  16.014   2.000   9.604 -0.4617  0.0686 -0.1318
  233loPI   C3A 3721  15.952   1.930   9.217  0.0457  0.2317  0.2720
  233loPI   C4A 3722  15.961   1.857   8.748  0.0995  0.3063 -0.2249
  233loPI   C5A 3723  15.897   1.710   8.309  0.2784 -0.0501  0.0060
  233loPI   C6A 3724  16.132   1.438   8.206  0.2810  0.2215 -0.1538
  233loPI   C1B 3725  15.704   2.410  10.023  0.0075 -0.3652  0.1870
  233loPI   C2B 3726  15.731   2.434   9.677  0.2206  0.0880 -0.1573
  233loPI   C3B 3727  15.718   2.397   9.223 -0.2675 -0.1962  0.0661
  233loPI   C4B 3728  15.783   2.377   8.752 -0.2745 -0.0277  0.2930
  234loPI    C1 3729  12.053  11.928  11.601 -0.1576 -0.4234  0.1337
  234loPI    C2 3730  11.675  12.050  11.648 -0.0257  0.1341 -0.1633
  234loPI    C3 3731  11.924  12.045  11.961 -0.1910  0.0747 -0.0315
  234loPI   PO4 3732  12.149  12.031  11.304  0.1277 -0.0840  0.0170
  234loPI   GL1 3733  12.084  11.901  10.885  0.1042 -0.0717  0.0921
  234loPI   GL2 3734  12.250  12.182  10.738  0.1256  0.2110 -0.2119
  234loPI   C1A 3735  11.854  11.826  10.446  0.1517  0.1061 -0.2323
  234loPI   C2A 3736  11.860  11.812  10.017 -0.0958  0.0749  0.0372
  234loPI   C3A 3737  11.897  11.884   9.615  0.0405 -0.3114 -0.0690
  234loPI   C4A 3738  11.819  11.940   9.212  0.0170 -0.0027 -0.0361
  234loPI   C5A 3739  11.717  11.963   8.766 -0.0506 -0.1061 -0.1584
  234loPI   C6A 3740  11.842  12.317   8.430  0.1154  0.0272  0.0128
  234loPI   C1B 3741  12.142  12.349  10.227 -0.2935 -0.3142  0.0400
  234loPI   C2B 3742  12.148  12.370   9.761 -0.0901 -0.0042  0.0123
  234loPI   C3B 3743  12.186  12.317   9.291  0.3702 -0.0946 -0.0688
  234loPI   C4B 3744  12.070  12.448   8.832  0.1348 -0.0102  0.1922
  235loPI    C1 3745   7.593  17.023  11.239  0.1767 -0.1357 -0.0178
  235loPI    C2 3746   7.467  16.711  11.456  0.0226 -0.0848 -0.0328
  235loPI    C3 3747   7.386  17.084  11.576 -0.2422 -0.0589 -0.2818
  235loPI   PO4 3748   7.542  16.873  10.939  0.0634  0.0224 -0.0578
  235loPI   GL1 3749   7.833  16.760  10.643 -0.3372  0.0177  0.1780
  235loPI   GL2 3750   7.900  17.051  10.648  0.3156  0.2263  0.1404
  235loPI   C1A 3751   7.689  16.816  10.232 -0.1741  0.3235  0.0146
  235loPI   C2A 3752   7.629  16.877   9.775  0.1603  0.2505 -0.2552
  235loPI   C3A 3753   7.564  16.867   9.353  0.1671 -0.3206 -0.1125
  235loPI   C4A 3754   7.637  16.826   8.923 -0.0805  0.2223  0.0378
  235loPI   C5A 3755   7.494  16.722   8.535 -0.1508  0.2076 -0.1969
  235loPI   C6A 3756   7.383  16.976   8.053 -0.1944  0.0273 -0.1836
  235loPI   C1B 3757   7.895  17.282  10.277 -0.1102 -0.1000  0.1290
  235loPI   C2B 3758   7.846  17.313   9.829 -0.1968  0.0551 -0.1874
  235loPI   C3B 3759   7.826  17.268   9.409 -0.3899  0.1816  0.1521
  235loPI   C4B 3760   7.814  17.291   8.963  0.2319 -0.0764  0.2155
  236loPI    C1 3761  13.932   8.515  11.321  0.1058  0.0795  0.0056
  236loPI    C2 3762  13.605   8.399  11.521  0.0150  0.0221 -0.1740
  236loPI    C3 3763  13.954   8.212  11.581  0.0389  0.1468  0.0904
  236loPI   PO4 3764  13.724   8.570  11.043 -0.2477  0.2286 -0.2335
  236loPI   GL1 3765  13.405   8.460  10.746 -0.1922  0.0840  0.1086
  236loPI   GL2 3766  13.321   8.254  10.829  0.0664  0.1944 -0.0343
  236loPI   C1A 3767  13.692   8.635  10.392  0.0934  0.0130 -0.1965
  236loPI   C2A 3768  13.765   8.747  10.050  0.1782  0.0642 -0.2588
  236loPI   C3A 3769  13.668   8.789   9.647  0.3998 -0.0819  0.0915
  236loPI   C4A 3770  13.632   8.784   9.340 -0.1895 -0.1727 -0.2984
  236loPI   C5A 3771  13.657   8.767   8.885 -0.0140  0.1961  0.3539
  236loPI   C6A 3772  13.662   8.786   8.432  0.0152  0.2225 -0.2312
  236loPI   C1B 3773  13.420   8.154  10.338 -0.1936  0.3796  0.1121
  236loPI   C2B 3774  13.555   8.264  10.031 -0.0821  0.0055  0.0489
  236loPI   C3B 3775  13.436   8.314   9.556 -0.3147  0.4881 -0.0316
  236loPI   C4B 3776  13.447   8.380   9.067 -0.0903 -0.1677  0.1971
  237loPI    C1 3777  16.454  16.055  11.597  0.0343 -0.1029 -0.0334
  237loPI    C2 3778  16.545  15.761  11.853 -0.0478  0.0021  0.1183
  237loPI    C3 3779  16.197  15.955  11.887 -0.0188  0.0795 -0.0159
  237loPI   PO4 3780  16.514  15.944  11.341 -0.1899 -0.0162  0.0317
  237loPI   GL1 3781  16.497  16.118  10.934  0.3667  0.2315 -0.0415
  237loPI   GL2 3782  16.274  15.895  10.881 -0.0841  0.2334  0.0190
  237loPI   C1A 3783  16.469  16.301  10.535  0.0165 -0.1752  0.1586
  237loPI   C2A 3784  16.513  16.218  10.155  0.0486 -0.0002  0.0422
  237loPI   C3A 3785  16.551  16.429   9.780 -0.4129 -0.0223  0.0980
  237loPI   C4A 3786  16.494  16.405   9.274 -0.2030 -0.0880 -0.0157
  237loPI   C5A 3787  16.574  16.439   8.857  0.0176  0.0674  0.1390
  237loPI   C6A 3788  16.629  16.533   8.477  0.0383  0.0382  0.1778
  237loPI   C1B 3789  16.201  15.905  10.442 -0.1300 -0.1412  0.4344
  237loPI   C2B 3790  16.215  15.871   9.921  0.2668  0.1364 -0.3418
  237loPI   C3B 3791  16.342  15.907   9.516 -0.0516 -0.2107 -0.1969
  237loPI   C4B 3792  16.245  15.945   9.111 -0.1550 -0.1818  0.0784
  238loPI    C1 3793  10.708  12.499  11.523 -0.0614  0.1150 -0.1953
  238loPI    C2 3794  10.342  12.604  11.645 -0.0390  0.2127 -0.2116
  238loPI    C3 3795  10.497  12.253  11.758 -0.1477  0.1600 -0.2254
  238loPI   PO4 3796  10.641  12.559  11.191 -0.3200 -0.0060 -0.4641
  238loPI   GL1 3797  10.738  12.500  10.845 -0.1246  0.1403  0.0975
  238loPI   GL2 3798  10.898  12.749  10.741 -0.1226 -0.0706 -0.0501
  238loPI   C1A 3799  10.633  12.265  10.567  0.0459  0.0527  0.1128
  238loPI   C2A 3800  10.619  12.241  10.242  0.0242 -0.1745  0.2524
  238loPI   C3A 3801  10.596  12.297   9.722 -0.1223  0.1666  0.2172
  238loPI   C4A 3802  10.604  12.256   9.298  0.3379  0.0901  0.3018
  238loPI   C5A 3803  10.437  12.197   8.818 -0.2965 -0.0213  0.2092
  238loPI   C6A 3804  10.295  12.060   8.525  0.1883 -0.2949 -0.2610
  238loPI   C1B 3805  10.937  12.683  10.314 -0.0746 -0.2585 -0.0070
  238loPI   C2B 3806  10.900  12.729   9.917  0.0611  0.3266  0.0962
  238loPI   C3B 3807  10.842  12.748   9.524  0.0985 -0.2388  0.0403
  238loPI   C4B 3808  10.748  12.674   9.026 -0.0124  0.1416 -0.3370
  239loPI    C1 3809   4.820   8.413  11.524  0.0702  0.1114  0.0067
  239loPI    C2 3810   4.869   8.789  11.650 -0.2867  0.2107 -0.1383
  239loPI    C3 3811   4.927   8.485  11.903 -0.1806  0.3698  0.0317
  239loPI   PO4 3812   4.973   8.378  11.318  0.2030  0.2692 -0.2610
  239loPI   GL1 3813   5.149   8.476  10.881  0.0644 -0.0557  0.0465
  239loPI   GL2 3814   5.307   8.199  10.686 -0.0634  0.0491  0.2044
  239loPI   C1A 3815   5.169   8.671  10.475  0.1029 -0.2074  0.0653
  239loPI   C2A 3816   4.983   8.656  10.109 -0.1031  0.0757  0.4067
  239loPI   C3A 3817   4.921   8.610   9.657  0.0046  0.0411  0.3147
  239loPI   C4A 3818   5.024   8.715   9.248  0.0011 -0.2432 -0.1672
  239loPI   C5A 3819   5.217   8.667   8.802  0.1551  0.0718 -0.0192
  239loPI   C6A 3820   5.492   8.786   8.422 -0.0531  0.0159 -0.1780
  239loPI   C1B 3821   5.236   8.200  10.311 -0.3423 -0.1607  0.2224
  239loPI   C2B 3822   5.225   8.237   9.795 -0.1665 -0.2386  0.0185
  239loPI   C3B 3823   5.192   8.186   9.474  0.1188  0.3067  0.0917
  239loPI   C4B 3824   5.192   8.280   9.064  0.2055 -0.0890 -0.0128
  240loPI    C1 3825   2.223  17.131  11.489 -0.0133 -0.1041 -0.2227
  240loPI    C2 3826   2.264  17.466  11.703  0.0081 -0.0468 -0.3156
  240loPI    C3 3827   2.247  17.112  11.887  0.0560 -0.0005 -0.2215
  240loPI   PO4 3828   2.114  17.239  11.275 -0.0148 -0.0637 -0.1581
  240loPI   GL1 3829   1.991  17.200  10.914 -0.0526 -0.1642  0.1414
  240loPI   GL2 3830   1.696  17.009  10.841 -0.1260 -0.0793 -0.2256
  240loPI   C1A 3831   2.140  17.118  10.562  0.2520  0.3351  0.1655
  240loPI   C2A 3832   2.118  17.183  10.156  0.0880 -0.5153  0.0574
  240loPI   C3A 3833   2.169  17.200   9.728  0.1335 -0.0024 -0.1525
  240loPI   C4A 3834   2.158  17.279   9.287  0.0054  0.1748  0.0162
  240loPI   C5A 3835   2.093  17.167   8.884  0.0170 -0.1628  0.2374
  240loPI   C6A 3836   2.109  17.411   8.472  0.2228 -0.0456 -0.3203
  240loPI   C1B 3837   1.686  17.127  10.412 -0.2154 -0.0592  0.0335
  240loPI   C2B 3838   1.665  17.215   9.920 -0.2494 -0.3618 -0.0965
  240loPI   C3B 3839   1.675  17.238   9.518  0.1789 -0.1067 -0.0471
  240loPI   C4B 3840   1.712  17.296   9.121  0.0844 -0.0463  0.1516
  241loPI    C1 3841   3.262  10.789  11.596  0.1034  0.3079  0.0952
  241loPI    C2 3842   3.326  10.442  11.785 -0.3124 -0.0446 -0.3861
  241loPI    C3 3843   3.216  10.765  11.993  0.0706 -0.1961  0.0676
  241loPI   PO4 3844   3.179  10.825  11.360  0.1101 -0.2168 -0.1473
  241loPI   GL1 3845   3.117  10.617  10.990  0.2754  0.0515 -0.1994
  241loPI   GL2 3846   3.365  10.575  10.840 -0.3644 -0.1566  0.2773
  241loPI   C1A 3847   2.923  10.423  10.670  0.1336 -0.0470 -0.1525
  241loPI   C2A 3848   2.939  10.404  10.223 -0.0922  0.0744  0.3539
  241loPI   C3A 3849   2.914  10.462   9.801  0.0199 -0.2444 -0.1712
  241loPI   C4A 3850   3.046  10.560   9.285  0.3066 -0.0409 -0.1803
  241loPI   C5A 3851   3.053  10.564   8.849 -0.3029 -0.0382 -0.2215
  241loPI   C6A 3852   3.084  10.614   8.441  0.2777 -0.0286 -0.2013
  241loPI   C1B 3853   3.393  10.417  10.459 -0.3802 -0.0569  0.0668
  241loPI   C2B 3854   3.451  10.415  10.012 -0.0605  0.0221  0.0032
  241loPI   C3B 3855   3.433  10.462   9.599 -0.0494  0.1874  0.2482
  241loPI   C4B 3856   3.570  10.516   9.097 -0.1528 -0.4128  0.0954
  242loPI    C1 3857  11.345   0.895  11.181 -0.0967 -0.0422  0.0014
  242loPI    C2 3858  10.952   0.964  11.201 -0.1004 -0.0669  0.0122
  242loPI    C3 3859  11.194   1.099  11.490 -0.0743  0.1294 -0.1001
  242loPI   PO4 3860  11.429   1.016  10.981  0.4379  0.2304 -0.0968
  242loPI   GL1 3861  11.501   0.989  10.639  0.0333  0.0396  0.1473
  242loPI   GL2 3862  11.307   1.130  10.323  0.0799 -0.0426  0.0084
  242loPI   C1A 3863  11.779   0.921  10.277  0.1373 -0.1550 -0.0552
  242loPI   C2A 3864  11.912   1.069   9.906 -0.2177 -0.2381  0.1920
  242loPI   C3A 3865  11.822   0.876   9.474  0.0478 -0.1974  0.1219
  242loPI   C4A 3866  11.653   0.602   9.297 -0.1743 -0.3404 -0.1970
  242loPI   C5A 3867  11.500   0.530   8.965  0.4879  0.0963  0.2681
  242loPI   C6A 3868  11.496   0.263   8.620 -0.0189  0.1685 -0.0239
  242loPI   C1B 3869  11.391   1.068   9.847  0.0101 -0.2845 -0.3297
  242loPI   C2B 3870  11.329   1.021   9.382  0.2617  0.1368  0.0567
  242loPI   C3B 3871  11.371   1.036   9.024  0.0565 -0.2402  0.1530
  242loPI   C4B 3872  11.469   0.888   8.636  0.0494 -0.1656  0.0356
  243loPI    C1 3873  15.793   7.917  11.205  0.2141  0.0456  0.1255
  243loPI    C2 3874  15.710   7.533  11.130 -0.0506  0.1197  0.0290
  243loPI    C3 3875  15.788   7.652  11.504  0.1735 -0.0521  0.0389
  243loPI   PO4 3876  15.762   8.043  11.092 -0.4665 -0.1150 -0.1868
  243loPI   GL1 3877  15.395   8.140  10.808  0.3572  0.1084  0.3674
  243loPI   GL2 3878  15.242   8.446  10.834 -0.0601  0.2468 -0.0753
  243loPI   C1A 3879  15.489   8.198  10.368  0.0815  0.0036 -0.3250
  243loPI   C2A 3880  15.503   8.304   9.949  0.1440  0.2043 -0.1274
  243loPI   C3A 3881  15.416   8.359   9.446  0.0583 -0.2786  0.2564
  243loPI   C4A 3882  15.433   8.359   8.988  0.0175  0.3894  0.0275
  243loPI   C5A 3883  15.470   8.361   8.581 -0.2292 -0.1809  0.1831
  243loPI   C6A 3884  15.305   8.160   8.167  0.0975 -0.0149 -0.0002
  243loPI   C1B 3885  15.298   8.656  10.520  0.1071 -0.1067 -0.0832
  243loPI   C2B 3886  15.229   8.694  10.055 -0.3565  0.1026 -0.0556
  243loPI   C3B 3887  15.200   8.821   9.638  0.3013 -0.1287 -0.0159
  243loPI   C4B 3888  15.137   8.817   9.109  0.2260  0.2999 -0.1512
  244loPI    C1 3889   3.836   7.461  11.874 -0.3036 -0.0820  0.0001
  244loPI    C2 3890   3.973   7.829  11.953 -0.2152 -0.1123 -0.0105
  244loPI    C3 3891   4.007   7.540  12.227  0.0450 -0.2042 -0.1364
  244loPI   PO4 3892   3.866   7.415  11.700  0.2763  0.0031 -0.0248
  244loPI   GL1 3893   3.755   7.490  11.220 -0.0686 -0.0101 -0.1739
  244loPI   GL2 3894   3.427   7.348  11.086 -0.0076 -0.1345 -0.1103
  244loPI   C1A 3895   3.778   7.199  10.860 -0.0573 -0.0087  0.2021
  244loPI   C2A 3896   3.743   7.322  10.409  0.4105 -0.1692  0.0966
  244loPI   C3A 3897   3.778   7.346   9.984  0.4631 -0.0809  0.0576
  244loPI   C4A 3898   3.740   7.327   9.496  0.0060  0.1105  0.1191
  244loPI   C5A 3899   3.626   7.201   9.030 -0.2142  0.1110  0.2225
  244loPI   C6A 3900   3.957   7.418   8.708 -0.0721 -0.2062  0.0956
  244loPI   C1B 3901   3.247   7.304  10.716 -0.0609  0.1149 -0.1851
  244loPI   C2B 3902   3.199   7.231  10.229  0.2638 -0.2104  0.0919
  244loPI   C3B 3903   3.254   7.352   9.785  0.2395  0.1416 -0.1795
  244loPI   C4B 3904   3.193   7.396   9.348 -0.2183  0.0601 -0.1458
  245loPI    C1 3905   5.496   7.620  11.743  0.3370 -0.3648 -0.0782
  245loPI    C2 3906   5.386   7.293  11.946 -0.0026 -0.2215 -0.0233
  245loPI    C3 3907   5.514   7.616  12.143  0.0320 -0.2125 -0.0602
  245loPI   PO4 3908   5.321   7.640  11.451  0.0314  0.1991 -0.1107
  245loPI   GL1 3909   5.393   7.528  10.981  0.0301 -0.2672  0.1845
  245loPI   GL2 3910   5.083   7.623  10.994  0.4229 -0.2637 -0.0914
  245loPI   C1A 3911   5.299   7.293  10.683  0.1024 -0.1531 -0.1274
  245loPI   C2A 3912   5.324   7.298  10.242  0.2786  0.0936  0.1078
  245loPI   C3A 3913   5.311   7.380   9.861 -0.2643 -0.0482  0.1864
  245loPI   C4A 3914   5.142   7.276   9.437 -0.0256 -0.0181 -0.1780
  245loPI   C5A 3915   5.182   7.390   9.016  0.4303  0.1385  0.2946
  245loPI   C6A 3916   5.372   7.707   8.876 -0.0299  0.2162  0.1527
  245loPI   C1B 3917   5.046   7.730  10.566 -0.3408  0.1797 -0.0234
  245loPI   C2B 3918   5.112   7.737  10.111 -0.0817 -0.1035  0.1180
  245loPI   C3B 3919   5.006   7.747   9.670 -0.1709  0.2564 -0.0672
  245loPI   C4B 3920   4.956   7.783   9.280 -0.2303  0.0466 -0.0445
  246loPI    C1 3921  11.403   8.151  11.270 -0.2735 -0.0398 -0.2035
  246loPI    C2 3922  11.190   8.446  11.436  0.0150  0.0554  0.0040
  246loPI    C3 3923  11.219   8.091  11.620  0.0246  0.0384 -0.0301
  246loPI   PO4 3924  11.449   8.294  10.952 -0.0860  0.1141  0.2636
  246loPI   GL1 3925  11.312   8.192  10.513 -0.1311  0.0010  0.0196
  246loPI   GL2 3926  11.223   8.572  10.555  0.2216 -0.3006  0.0237
  246loPI   C1A 3927  11.445   8.257  10.133 -0.2490  0.0673 -0.0662
  246loPI   C2A 3928  11.459   8.326   9.679  0.2403 -0.0049  0.2611
  246loPI   C3A 3929  11.319   8.353   9.160  0.0979  0.0456 -0.2050
  246loPI   C4A 3930  11.361   8.291   8.716 -0.0747 -0.0160  0.1088
  246loPI   C5A 3931  11.546   8.299   8.428 -0.0734  0.0654 -0.2102
  246loPI   C6A 3932  11.680   8.649   8.226  0.0168  0.2571  0.2738
  246loPI   C1B 3933  11.195   8.755  10.195 -0.1222 -0.0409  0.1428
  246loPI   C2B 3934  11.144   8.659   9.870  0.0833 -0.1736 -0.0554
  246loPI   C3B 3935  11.195   8.756   9.428 -0.1279  0.3681 -0.1448
  246loPI   C4B 3936  11.175   8.788   8.908  0.1402 -0.1617 -0.1405
  247loPI    C1 3937   8.232  14.364  11.669 -0.2913 -0.1131  0.0407
  247loPI    C2 3938   8.012  14.680  11.778 -0.1170  0.0115  0.0351
  247loPI    C3 3939   8.322  14.565  12.003  0.0743  0.0998 -0.1793
  247loPI   PO4 3940   8.173  14.378  11.326  0.1432  0.0319 -0.0964
  247loPI   GL1 3941   8.027  14.279  11.002  0.0447  0.2232 -0.0965
  247loPI   GL2 3942   8.144  14.073  10.792  0.0074  0.0631 -0.0679
  247loPI   C1A 3943   7.864  14.442  10.587 -0.0879  0.0749  0.0140
  247loPI   C2A 3944   7.870  14.586  10.173 -0.0202  0.3638 -0.1122
  247loPI   C3A 3945   7.890  14.641   9.707  0.1617  0.0299 -0.0238
  247loPI   C4A 3946   7.843  14.533   9.256 -0.1932  0.1770  0.0494
  247loPI   C5A 3947   7.936  14.483   8.890  0.2769 -0.2905 -0.2357
  247loPI   C6A 3948   8.306  14.534   8.709 -0.1639 -0.0192 -0.1146
  247loPI   C1B 3949   8.167  14.078  10.368  0.4383  0.0988  0.0953
  247loPI   C2B 3950   8.109  14.101   9.947 -0.0370 -0.1065  0.0956
  247loPI   C3B 3951   8.074  14.142   9.428  0.3631  0.0067  0.1188
  247loPI   C4B 3952   8.118  14.073   9.031 -0.1124  0.0306  0.0088
  248loPI    C1 3953  17.563   9.818  11.672  0.3772  0.0906  0.0029
  248loPI    C2 3954  17.190   9.889  11.800  0.3074  0.0210 -0.1600
  248loPI    C3 3955  17.501  10.060  11.985  0.1890  0.1496 -0.0784
  248loPI   PO4 3956  17.578   9.902  11.397 -0.1467  0.1586  0.0632
  248loPI   GL1 3957  17.525   9.778  10.945 -0.0622 -0.1413 -0.1948
  248loPI   GL2 3958  17.709   9.564  10.755  0.0118 -0.1257 -0.2156
  248loPI   C1A 3959  17.328   9.716  10.501  0.0690 -0.2794 -0.2787
  248loPI   C2A 3960  17.382   9.648  10.047 -0.0472 -0.0215 -0.2313
  248loPI   C3A 3961  17.343   9.658   9.487  0.1726  0.1063  0.0361
  248loPI   C4A 3962  17.247   9.631   9.133  0.4529  0.0726 -0.2332
  248loPI   C5A 3963  16.915   9.639   8.809 -0.1162 -0.2711  0.2106
  248loPI   C6A 3964  16.586   9.534   8.466 -0.0947 -0.4490 -0.1065
  248loPI   C1B 3965  17.792   9.627  10.337  0.2538  0.3894 -0.0509
  248loPI   C2B 3966  17.834   9.574   9.865  0.5757 -0.2149 -0.3963
  248loPI   C3B 3967  17.816   9.587   9.457  0.1158  0.0534 -0.0308
  248loPI   C4B 3968  17.891   9.626   9.008 -0.1848  0.1201 -0.2102
  249loPI    C1 3969   6.272  15.066  11.469 -0.2514 -0.0956 -0.0008
  249loPI    C2 3970   6.072  15.163  11.801 -0.1016 -0.0573  0.0793
  249loPI    C3 3971   6.434  14.995  11.828 -0.0929 -0.0625 -0.0649
  249loPI   PO4 3972   6.360  15.170  11.268  0.0592 -0.2976 -0.1423
  249loPI   GL1 3973   6.677  15.266  11.113 -0.0252 -0.2210  0.2450
  249loPI   GL2 3974   6.868  15.470  10.899 -0.1757  0.0539 -0.1922
  249loPI   C1A 3975   6.441  15.295  10.642  0.2166 -0.1335 -0.1491
  249loPI   C2A 3976   6.424  15.391  10.244 -0.1080  0.1031  0.0647
  249loPI   C3A 3977   6.331  15.438   9.873  0.0389  0.1705 -0.0985
  249loPI   C4A 3978   6.315  15.494   9.464  0.0212 -0.1125 -0.0930
  249loPI   C5A 3979   6.438  15.521   9.093  0.1607  0.2318  0.2563
  249loPI   C6A 3980   6.763  15.591   8.849  0.0914 -0.0972  0.3217
  249loPI   C1B 3981   6.945  15.360  10.530  0.2336 -0.0626  0.3316
  249loPI   C2B 3982   6.887  15.370  10.114 -0.0516  0.2682  0.1797
  249loPI   C3B 3983   6.822  15.510   9.756 -0.1437 -0.1967 -0.0784
  249loPI   C4B 3984   6.852  15.479   9.325 -0.1345 -0.1112  0.0512
  250loPI    C1 3985   8.422  16.093  11.204 -0.0094 -0.3739  0.1457
  250loPI    C2 3986   8.781  16.145  11.037 -0.1639  0.1674 -0.0394
  250loPI    C3 3987   8.725  16.234  11.423 -0.0329 -0.2021  0.0692
  250loPI   PO4 3988   8.262  16.284  11.085  0.0111  0.1853  0.1111
  250loPI   GL1 3989   7.942  16.082  10.754  0.1012  0.2861 -0.2059
  250loPI   GL2 3990   7.995  16.303  10.542 -0.0429  0.0900 -0.3199
  250loPI   C1A 3991   7.780  15.896  10.320  0.0173 -0.2870  0.0273
  250loPI   C2A 3992   7.582  15.927   9.866 -0.3593 -0.5443 -0.0261
  250loPI   C3A 3993   7.606  15.878   9.394  0.4591  0.1378  0.0403
  250loPI   C4A 3994   7.655  15.908   8.895  0.1556 -0.0280  0.1851
  250loPI   C5A 3995   7.651  16.068   8.413 -0.0711  0.1286  0.2975
  250loPI   C6A 3996   7.671  16.507   8.119  0.1026 -0.1127 -0.0654
  250loPI   C1B 3997   7.921  16.333  10.120 -0.0749 -0.1095 -0.1849
  250loPI   C2B 3998   7.854  16.322   9.719 -0.1317  0.0575 -0.0185
  250loPI   C3B 3999   7.945  16.390   9.254  0.1815 -0.2283  0.0395
  250loPI   C4B 4000   7.871  16.406   8.773 -0.0972 -0.2900  0.0508
  251loPI    C1 4001   1.197  15.793  11.315 -0.0297  0.0625  0.0837
  251loPI    C2 4002   0.869  15.744  11.537 -0.1076 -0.0616 -0.0564
  251loPI    C3 4003   1.229  15.670  11.694 -0.1489  0.0266  0.0826
  251loPI   PO4 4004   1.157  15.692  11.065 -0.0291  0.1891  0.2802
  251loPI   GL1 4005   0.901  15.507  10.761 -0.0064  0.2182 -0.3299
  251loPI   GL2 4006   0.859  15.846  10.665  0.2482  0.1859  0.0481
  251loPI   C1A 4007   1.141  15.403  10.432 -0.0167 -0.1138 -0.2057
  251loPI   C2A 4008   1.169  15.513  10.032  0.1611  0.0736 -0.0879
  251loPI   C3A 4009   1.076  15.425   9.623  0.0785  0.1332 -0.2941
  251loPI   C4A 4010   1.182  15.419   9.154  0.0049 -0.0211 -0.0699
  251loPI   C5A 4011   1.493  15.463   8.853 -0.0913 -0.1520 -0.1907
  251loPI   C6A 4012   1.682  15.647   8.421 -0.1603  0.0093 -0.1381
  251loPI   C1B 4013   0.931  15.902  10.207  0.1948  0.3250 -0.2705
  251loPI   C2B 4014   0.846  15.910   9.705 -0.3711  0.2315 -0.1120
  251loPI   C3B 4015   0.890  15.835   9.293 -0.1303  0.0817 -0.2792
  251loPI   C4B 4016   0.976  15.668   8.824 -0.0971  0.3045 -0.1900
  252loPI    C1 4017  -0.024   1.342  11.167  0.0903 -0.1143 -0.0404
  252loPI    C2 4018   0.280   1.501  11.374  0.1562 -0.1414 -0.1155
  252loPI    C3 4019  -0.098   1.599  11.465  0.1965  0.0694 -0.1705
  252loPI   PO4 4020   0.013   1.358  10.915 -0.1685  0.1479  0.1888
  252loPI   GL1 4021   0.318   1.329  10.509 -0.1642  0.0568  0.0892
  252loPI   GL2 4022   0.361   1.000  10.568 -0.2035  0.0306 -0.0467
  252loPI   C1A 4023   0.378   1.331  10.053 -0.0830  0.2194  0.0109
  252loPI   C2A 4024   0.388   1.454   9.652 -0.0917  0.1761 -0.1835
  252loPI   C3A 4025   0.360   1.485   9.233 -0.2044  0.4145 -0.2347
  252loPI   C4A 4026   0.326   1.409   8.735 -0.1957 -0.0960  0.2618
  252loPI   C5A 4027  -0.064   1.279   8.483  0.1612  0.0243 -0.3299
  252loPI   C6A 4028  -0.273   1.262   8.051  0.0406  0.1337  0.2626
  252loPI   C1B 4029   0.591   0.918  10.289 -0.1013 -0.0810  0.0269
  252loPI   C2B 4030   0.633   1.034   9.773  0.0768  0.0595  0.0997
  252loPI   C3B 4031   0.665   1.122   9.384  0.0698  0.1238 -0.1333
  252loPI   C4B 4032   0.627   1.057   8.949 -0.0101  0.0670  0.0014
  253loPI    C1 4033   9.753   8.277  11.223  0.1488  0.0654  0.0324
  253loPI    C2 4034  10.009   8.042  11.419  0.0788  0.0108  0.0587
  253loPI    C3 4035   9.916   8.403  11.566  0.0644 -0.0097  0.1005
  253loPI   PO4 4036   9.788   8.244  10.976  0.1842 -0.0121 -0.0815
  253loPI   GL1 4037   9.998   8.361  10.619  0.2476  0.0268 -0.2367
  253loPI   GL2 4038  10.258   8.572  10.666  0.0350 -0.0764  0.0046
  253loPI   C1A 4039   9.902   8.227  10.216 -0.0911  0.0185  0.1091
  253loPI   C2A 4040   9.836   8.281   9.762  0.1152 -0.1979 -0.0650
  253loPI   C3A 4041   9.819   8.264   9.389  0.0436 -0.0662  0.0102
  253loPI   C4A 4042   9.846   8.324   8.925  0.3761 -0.2557 -0.0562
  253loPI   C5A 4043  10.247   8.429   8.664 -0.1198  0.1248 -0.0117
  253loPI   C6A 4044  10.349   8.229   8.199  0.0898 -0.2680 -0.3750
  253loPI   C1B 4045  10.180   8.681  10.274  0.2090  0.0763  0.0987
  253loPI   C2B 4046  10.204   8.789   9.817 -0.0623 -0.2090 -0.1495
  253loPI   C3B 4047  10.095   8.816   9.356 -0.0226  0.1634 -0.0029
  253loPI   C4B 4048  10.141   8.843   8.936  0.1241 -0.0808  0.0036
  254loPI    C1 4049  12.997   7.140  11.632  0.0692  0.0901  0.2271
  254loPI    C2 4050  12.724   7.322  11.860 -0.4175  0.1187 -0.3535
  254loPI    C3 4051  12.719   6.924  11.822  0.2075  0.0217  0.3537
  254loPI   PO4 4052  13.018   7.321  11.310 -0.0522 -0.0824  0.0141
  254loPI   GL1 4053  13.313   7.190  10.952  0.0903 -0.2921  0.0260
  254loPI   GL2 4054  13.656   7.359  10.806 -0.2603  0.0263 -0.3468
  254loPI   C1A 4055  13.244   7.295  10.455 -0.0939 -0.1548  0.0864
  254loPI   C2A 4056  13.412   7.243  10.067 -0.0219  0.0967  0.1113
  254loPI   C3A 4057  13.447   7.379   9.555  0.1294  0.1020  0.2112
  254loPI   C4A 4058  13.394   7.411   9.077 -0.0238 -0.1627 -0.0982
  254loPI   C5A 4059  13.683   7.276   8.713  0.0305 -0.3420 -0.0484
  254loPI   C6A 4060  14.010   7.153   8.308 -0.2103  0.2609 -0.0975
  254loPI   C1B 4061  13.890   7.352  10.396  0.0356  0.1203  0.0252
  254loPI   C2B 4062  13.921   7.336   9.939 -0.1023 -0.0715  0.2142
  254loPI   C3B 4063  13.990   7.470   9.513 -0.0400  0.1384  0.0364
  254loPI   C4B 4064  13.877   7.457   9.148  0.1102  0.0868 -0.2211
  255loPI    C1 4065   0.971   2.071  11.489  0.0878 -0.1903 -0.0655
  255loPI    C2 4066   0.698   2.240  11.727  0.1643 -0.0494 -0.0767
  255loPI    C3 4067   0.997   2.028  11.886 -0.0145 -0.3014 -0.0703
  255loPI   PO4 4068   0.930   2.115  11.257 -0.0544 -0.1504 -0.1215
  255loPI   GL1 4069   0.862   2.358  10.893 -0.0762 -0.1487 -0.0493
  255loPI   GL2 4070   0.632   2.163  10.859  0.0359 -0.1711  0.1055
  255loPI   C1A 4071   1.079   2.642  10.511 -0.4714 -0.2502  0.1113
  255loPI   C2A 4072   1.164   2.833  10.109 -0.2444  0.0183 -0.2945
  255loPI   C3A 4073   1.046   2.813   9.639  0.1099 -0.1057  0.0122
  255loPI   C4A 4074   1.124   2.863   9.213 -0.1807  0.0342  0.5672
  255loPI   C5A 4075   1.138   2.911   8.785 -0.2059  0.0296 -0.3348
  255loPI   C6A 4076   0.952   2.963   8.413  0.0886  0.2061 -0.0755
  255loPI   C1B 4077   0.818   2.234  10.385 -0.0931  0.0962 -0.2138
  255loPI   C2B 4078   0.926   2.452  10.042  0.1702 -0.3221 -0.6338
  255loPI   C3B 4079   0.943   2.258   9.652 -0.1011  0.1954 -0.2394
  255loPI   C4B 4080   1.004   2.413   9.264 -0.2013  0.1547 -0.1552
  256loPI    C1 4081  11.175   1.794  10.804  0.1018  0.0672 -0.0732
  256loPI    C2 4082  11.196   1.472  11.041 -0.1668  0.2095  0.1493
  256loPI    C3 4083  11.445   1.780  11.099  0.1615  0.0032 -0.1305
  256loPI   PO4 4084  11.143   1.681  10.539  0.0402  0.0278 -0.0528
  256loPI   GL1 4085  11.312   1.851  10.199 -0.2949  0.0581 -0.4207
  256loPI   GL2 4086  11.645   1.598  10.212  0.0886  0.0372 -0.0188
  256loPI   C1A 4087  11.290   1.792   9.730 -0.1061  0.0202 -0.1108
  256loPI   C2A 4088  11.554   1.509   9.551  0.0515 -0.1312  0.3945
  256loPI   C3A 4089  11.817   1.363   9.153 -0.0223 -0.1212 -0.0654
  256loPI   C4A 4090  11.909   0.960   8.965  0.1917 -0.1734 -0.1033
  256loPI   C5A 4091  12.132   0.647   9.166  0.0938  0.0485  0.0984
  256loPI   C6A 4092  12.216   0.574   9.622  0.2029  0.0266 -0.1061
  256loPI   C1B 4093  11.760   1.791   9.927 -0.0385 -0.0937 -0.2313
  256loPI   C2B 4094  11.820   1.963   9.480 -0.0086  0.2171 -0.0038
  256loPI   C3B 4095  11.584   1.880   9.114  0.0057  0.0348  0.0313
  256loPI   C4B 4096  11.243   1.528   8.904  0.0910 -0.0063 -0.0671
  257loPI    C1 4097  15.536   5.695  11.267 -0.1415  0.2041  0.1861
  257loPI    C2 4098  15.324   6.022  11.181 -0.0304  0.2249 -0.0138
  257loPI    C3 4099  15.432   5.948  11.559 -0.5503  0.1172  0.1217
  257loPI   PO4 4100  15.688   5.712  11.061  0.0729 -0.2820 -0.0123
  257loPI   GL1 4101  16.079   5.782  10.869  0.0409  0.3751 -0.0272
  257loPI   GL2 4102  16.016   5.470  10.710 -0.0086 -0.3100  0.0505
  257loPI   C1A 4103  16.183   5.942  10.465 -0.3972  0.0311  0.2467
  257loPI   C2A 4104  16.261   5.978  10.055 -0.0036  0.1404  0.0503
  257loPI   C3A 4105  16.239   6.032   9.700 -0.3454 -0.1179  0.0309
  257loPI   C4A 4106  16.285   6.092   9.316  0.2438 -0.1220  0.0153
  257loPI   C5A 4107  16.257   6.118   8.786  0.1826  0.3811 -0.0904
  257loPI   C6A 4108  15.955   6.335   8.557 -0.1282  0.1986 -0.1831
  257loPI   C1B 4109  15.921   5.528  10.329  0.0773 -0.1700 -0.0228
  257loPI   C2B 4110  15.927   5.613   9.908  0.0882  0.0952  0.0398
  257loPI   C3B 4111  15.968   5.637   9.520  0.1811  0.0919  0.0801
  257loPI   C4B 4112  16.051   5.638   9.022  0.4392  0.3181  0.4803
  258loPI    C1 4113   6.601   2.351  11.157  0.0402  0.2184 -0.0831
  258loPI    C2 4114   6.790   2.672  11.303  0.0119  0.1892  0.0186
  258loPI    C3 4115   6.435   2.563  11.453 -0.0353  0.1809 -0.0982
  258loPI   PO4 4116   6.714   2.319  10.946  0.1172  0.0407  0.4306
  258loPI   GL1 4117   6.483   2.308  10.561  0.1662  0.6042  0.3181
  258loPI   GL2 4118   6.178   2.223  10.757  0.0014  0.0137  0.0633
  258loPI   C1A 4119   6.585   2.367  10.160 -0.3492  0.0918 -0.1267
  258loPI   C2A 4120   6.535   2.407   9.718  0.0137 -0.2078  0.0849
  258loPI   C3A 4121   6.465   2.344   9.325 -0.1967 -0.0082 -0.1155
  258loPI   C4A 4122   6.356   2.273   8.895  0.2128  0.0061  0.0571
  258loPI   C5A 4123   6.458   2.361   8.457 -0.0454 -0.3390  0.0553
  258loPI   C6A 4124   6.502   2.255   8.064  0.0089  0.1356 -0.1735
  258loPI   C1B 4125   6.087   2.377  10.352 -0.2987  0.0828 -0.1106
  258loPI   C2B 4126   6.028   2.461   9.951 -0.2001 -0.2520  0.0859
  258loPI   C3B 4127   6.013   2.430   9.524  0.0766 -0.1521  0.2496
  258loPI   C4B 4128   5.952   2.438   9.148  0.2669  0.2108 -0.0597
  259loPI    C1 4129  13.765   9.029  11.523 -0.0155  0.2186  0.0005
  259loPI    C2 4130  13.444   9.168  11.716 -0.0290  0.2157 -0.0199
  259loPI    C3 4131  13.585   8.802  11.799 -0.0874  0.1799 -0.0777
  259loPI   PO4 4132  13.612   9.016  11.247  0.1053  0.0251 -0.1961
  259loPI   GL1 4133  13.555   8.933  10.847 -0.0749  0.0872  0.0450
  259loPI   GL2 4134  13.392   9.208  10.693 -0.0569  0.1968 -0.1184
  259loPI   C1A 4135  13.198   8.813  10.543  0.2684  0.0717  0.0133
  259loPI   C2A 4136  13.221   8.673  10.114 -0.2026 -0.0004  0.1777
  259loPI   C3A 4137  13.214   8.764   9.741 -0.0723 -0.1391 -0.1690
  259loPI   C4A 4138  13.168   8.772   9.313  0.1921  0.3153  0.1995
  259loPI   C5A 4139  13.177   8.779   8.869  0.4068 -0.1523  0.1106
  259loPI   C6A 4140  13.189   8.727   8.312  0.0015 -0.1310  0.1406
  259loPI   C1B 4141  13.481   9.264  10.225 -0.1541  0.4002 -0.0951
  259loPI   C2B 4142  13.368   9.226   9.736  0.1242 -0.1278  0.2005
  259loPI   C3B 4143  13.455   9.231   9.398 -0.2004  0.0901 -0.0833
  259loPI   C4B 4144  13.444   9.201   9.007  0.2197 -0.1985 -0.3661
  260loPI    C1 4145  11.299  11.630  11.281  0.0650  0.0127 -0.0452
  260loPI    C2 4146  11.220  11.310  11.509  0.0298 -0.0907 -0.2010
  260loPI    C3 4147  11.402  11.629  11.668 -0.0127 -0.1537 -0.0238
  260loPI   PO4 4148  11.088  11.727  11.204 -0.2435  0.0228  0.1805
  260loPI   GL1 4149  10.966  11.648  10.897  0.2641 -0.0504  0.3724
  260loPI   GL2 4150  10.801  11.799  10.777  0.2348 -0.0405 -0.0680
  260loPI   C1A 4151  11.297  11.733  10.598  0.1775 -0.1497  0.1041
  260loPI   C2A 4152  11.402  11.892  10.224 -0.1414  0.1114 -0.0054
  260loPI   C3A 4153  11.384  11.878   9.808  0.0324  0.0850  0.0890
  260loPI   C4A 4154  11.357  11.848   9.426 -0.3641  0.1517 -0.2039
  260loPI   C5A 4155  11.354  11.892   9.059  0.3398  0.1918 -0.1590
  260loPI   C6A 4156  11.215  11.740   8.597  0.4339  0.3169  0.1413
  260loPI   C1B 4157  10.866  11.831  10.327  0.0913  0.0600  0.3270
  260loPI   C2B 4158  10.846  11.897   9.852 -0.0968  0.1320  0.0378
  260loPI   C3B 4159  10.870  11.872   9.417  0.2478 -0.3269 -0.0313
  260loPI   C4B 4160  10.755  11.833   9.047 -0.2799 -0.3056  0.2579
  261loPI    C1 4161  16.217   7.478  11.262  0.3199 -0.0129  0.5799
  261loPI    C2 4162  16.344   7.102  11.211  0.1797  0.0342 -0.2780
  261loPI    C3 4163  15.972   7.172  11.340  0.2783 -0.1102  0.0995
  261loPI   PO4 4164  16.248   7.621  11.095 -0.0508 -0.0149 -0.1177
  261loPI   GL1 4165  16.079   7.821  10.700  0.1714 -0.3180 -0.1670
  261loPI   GL2 4166  15.759   7.819  10.617 -0.0692  0.2639 -0.0934
  261loPI   C1A 4167  16.236   7.879  10.337 -0.0925  0.0191 -0.0233
  261loPI   C2A 4168  16.214   7.869   9.874 -0.2503  0.0325  0.2793
  261loPI   C3A 4169  16.312   7.886   9.410  0.1488  0.2593  0.1174
  261loPI   C4A 4170  16.209   7.895   8.959 -0.0994 -0.1086 -0.0893
  261loPI   C5A 4171  16.086   7.810   8.596 -0.2459  0.3027 -0.0862
  261loPI   C6A 4172  15.985   8.063   8.326  0.1216  0.0223 -0.2607
  261loPI   C1B 4173  15.730   7.805  10.221 -0.1202  0.1454 -0.0024
  261loPI   C2B 4174  15.727   7.864   9.737 -0.0855 -0.1476 -0.2460
  261loPI   C3B 4175  15.737   7.927   9.368 -0.0681  0.1722 -0.0539
  261loPI   C4B 4176  15.675   7.876   8.962  0.1843 -0.1348 -0.2849
  262loPI    C1 4177  17.680  16.499  11.812  0.0358  0.1404 -0.0866
  262loPI    C2 4178  17.893  16.490  12.150 -0.1452 -0.2977  0.0231
  262loPI    C3 4179  17.522  16.641  12.151  0.0701  0.2578 -0.1193
  262loPI   PO4 4180  17.792  16.614  11.545 -0.1409 -0.1457 -0.1622
  262loPI   GL1 4181  17.789  16.628  11.167 -0.1692  0.0101 -0.4101
  262loPI   GL2 4182  17.530  16.732  11.053 -0.1469  0.1507  0.2970
  262loPI   C1A 4183  17.835  16.747  10.700  0.0655  0.2155 -0.3672
  262loPI   C2A 4184  17.806  16.936  10.407 -0.0562  0.0595 -0.1248
  262loPI   C3A 4185  17.787  16.713  10.006 -0.2000 -0.2457 -0.0692
  262loPI   C4A 4186  17.917  16.819   9.528  0.0029  0.1433 -0.0411
  262loPI   C5A 4187  17.869  16.823   9.070 -0.0528  0.2012  0.0167
  262loPI   C6A 4188  18.080  16.677   8.714  0.1251 -0.2311  0.1861
  262loPI   C1B 4189  17.327  16.741  10.569  0.0969  0.2308  0.0235
  262loPI   C2B 4190  17.338  16.793  10.179 -0.2077  0.1268  0.0298
  262loPI   C3B 4191  17.440  16.888   9.696 -0.0116  0.1753  0.2088
  262loPI   C4B 4192  17.430  16.763   9.268  0.1215  0.2374 -0.1195
  263loPI    C1 4193   1.719  11.711  11.809  0.1274 -0.0243  0.0160
  263loPI    C2 4194   1.856  11.972  12.080 -0.1403 -0.0657  0.1959
  263loPI    C3 4195   1.743  11.606  12.195 -0.0132 -0.1732 -0.0145
  263loPI   PO4 4196   1.855  11.877  11.515  0.1436 -0.0928  0.0190
  263loPI   GL1 4197   1.704  11.831  11.137  0.2693 -0.1215 -0.2000
  263loPI   GL2 4198   1.404  11.843  10.976 -0.0588  0.0325 -0.0917
  263loPI   C1A 4199   1.721  11.750  10.619  0.2051  0.0655 -0.0858
  263loPI   C2A 4200   1.653  11.899  10.257  0.0848 -0.1612  0.1095
  263loPI   C3A 4201   1.657  11.839   9.825  0.1774 -0.3155  0.2511
  263loPI   C4A 4202   1.632  11.801   9.432 -0.0096  0.4049  0.1994
  263loPI   C5A 4203   1.613  11.920   9.012 -0.1743 -0.0287 -0.0588
  263loPI   C6A 4204   1.597  11.962   8.565 -0.0298  0.0475  0.0393
  263loPI   C1B 4205   1.226  11.836  10.533  0.0140  0.2683 -0.3089
  263loPI   C2B 4206   1.134  11.936  10.087  0.1810  0.3616  0.1183
  263loPI   C3B 4207   1.116  11.958   9.674  0.0127  0.1773 -0.1333
  263loPI   C4B 4208   1.109  11.843   9.203  0.1477 -0.0448 -0.0637
  264loPI    C1 4209  13.588  10.060  11.324  0.2076 -0.1936 -0.0376
  264loPI    C2 4210  13.875  10.108  11.598  0.0915 -0.3977  0.1226
  264loPI    C3 4211  13.490  10.120  11.707  0.0396 -0.2402 -0.0724
  264loPI   PO4 4212  13.603  10.155  11.156  0.1583 -0.1690  0.3630
  264loPI   GL1 4213  13.646  10.463  10.816  0.1319  0.1481  0.2360
  264loPI   GL2 4214  13.792  10.682  10.873  0.1013 -0.2625  0.2211
  264loPI   C1A 4215  13.714  10.475  10.427  0.0643 -0.3315 -0.1363
  264loPI   C2A 4216  13.752  10.559  10.039 -0.0026  0.1364 -0.3018
  264loPI   C3A 4217  13.653  10.607   9.698 -0.2154 -0.1434  0.0261
  264loPI   C4A 4218  13.649  10.538   9.152 -0.0605  0.0892 -0.1033
  264loPI   C5A 4219  13.633  10.511   8.695  0.2806 -0.0291 -0.0598
  264loPI   C6A 4220  13.544  10.405   8.239  0.1103 -0.1547 -0.0295
  264loPI   C1B 4221  13.974  10.866  10.576 -0.1586  0.0564 -0.4043
  264loPI   C2B 4222  13.971  10.968  10.215  0.3395 -0.0058 -0.4532
  264loPI   C3B 4223  13.964  11.055   9.816  0.1578 -0.1038 -0.2206
  264loPI   C4B 4224  13.964  11.034   9.309  0.1366  0.1689 -0.4317
  265loPI    C1 4225  11.887  14.312  11.477  0.0975  0.0591 -0.1024
  265loPI    C2 4226  11.660  14.267  11.803 -0.0211  0.0168 -0.1906
  265loPI    C3 4227  11.973  14.026  11.742 -0.0207  0.0013 -0.1262
  265loPI   PO4 4228  11.687  14.329  11.256 -0.1676  0.4545 -0.0927
  265loPI   GL1 4229  11.775  14.325  10.884 -0.1376  0.1327  0.1203
  265loPI   GL2 4230  12.067  14.213  10.877  0.0012 -0.3546  0.0751
  265loPI   C1A 4231  11.671  14.119  10.382  0.1707  0.1682  0.0680
  265loPI   C2A 4232  11.702  14.126  10.005 -0.2783 -0.3714  0.0413
  265loPI   C3A 4233  11.711  14.088   9.597  0.0554 -0.0267  0.2405
  265loPI   C4A 4234  11.659  14.111   9.169  0.2728 -0.0358 -0.0320
  265loPI   C5A 4235  11.748  14.095   8.734 -0.4731 -0.1950  0.2766
  265loPI   C6A 4236  12.165  14.029   8.541  0.2431 -0.1387 -0.0885
  265loPI   C1B 4237  12.130  14.084  10.476 -0.0110 -0.0448  0.3069
  265loPI   C2B 4238  12.195  14.077   9.983 -0.0217 -0.0899  0.3290
  265loPI   C3B 4239  12.259  14.061   9.511  0.0003 -0.1121  0.3237
  265loPI   C4B 4240  12.197  14.078   9.044 -0.2593 -0.0677 -0.1976
  266loPI    C1 4241  17.842   9.477  11.469  0.1693 -0.1534 -0.1936
  266loPI    C2 4242  18.076   9.781  11.583  0.2096 -0.1706 -0.2300
  266loPI    C3 4243  17.911   9.542  11.858 -0.0989  0.0886 -0.1834
  266loPI   PO4 4244  17.884   9.437  11.217  0.1531 -0.0471  0.0227
  266loPI   GL1 4245  18.181   9.444  10.937  0.0999  0.0233  0.0763
  266loPI   GL2 4246  18.386   9.192  10.924 -0.1404  0.3041 -0.3224
  266loPI   C1A 4247  18.235   9.682  10.532  0.1256 -0.0134 -0.2701
  266loPI   C2A 4248  18.256   9.590  10.128 -0.1816  0.3048  0.3221
  266loPI   C3A 4249  18.400   9.656   9.649  0.1887  0.1899  0.0868
  266loPI   C4A 4250  18.424   9.575   9.234 -0.0460  0.1744  0.1499
  266loPI   C5A 4251  18.355   9.669   8.794  0.3487  0.2642 -0.0714
  266loPI   C6A 4252  18.317   9.731   8.354 -0.0677 -0.0693  0.0747
  266loPI   C1B 4253  18.434   9.204  10.468 -0.0241  0.1989 -0.0754
  266loPI   C2B 4254  18.629   9.247  10.029 -0.1592 -0.1092  0.1217
  266loPI   C3B 4255  18.620   9.187   9.587 -0.0455  0.2761  0.1413
  266loPI   C4B 4256  18.560   9.047   9.164  0.0010 -0.1558  0.2170
  267loPI    C1 4257   2.485   7.550  11.489  0.1676 -0.0164  0.1905
  267loPI    C2 4258   2.194   7.423  11.733 -0.0483  0.1785  0.0394
  267loPI    C3 4259   2.416   7.740  11.834 -0.1093  0.2331  0.0031
  267loPI   PO4 4260   2.430   7.566  11.244  0.0577 -0.3828  0.0388
  267loPI   GL1 4261   2.256   7.687  10.969 -0.0921  0.1082 -0.2447
  267loPI   GL2 4262   1.944   7.751  10.964  0.0385  0.2413 -0.1180
  267loPI   C1A 4263   2.376   7.638  10.462  0.0976 -0.0994 -0.0615
  267loPI   C2A 4264   2.346   7.824  10.185 -0.0089 -0.2497 -0.4217
  267loPI   C3A 4265   2.368   7.757   9.710  0.0370 -0.0539 -0.0462
  267loPI   C4A 4266   2.412   7.862   9.274  0.0003  0.1088  0.1285
  267loPI   C5A 4267   2.189   7.954   8.945  0.0767 -0.1807  0.3416
  267loPI   C6A 4268   1.953   8.038   8.506 -0.1913  0.1075  0.0662
  267loPI   C1B 4269   1.868   7.761  10.519 -0.0769 -0.1075  0.1071
  267loPI   C2B 4270   1.941   7.708  10.065  0.1262 -0.0905 -0.1066
  267loPI   C3B 4271   1.895   7.730   9.722  0.2356 -0.3833  0.2160
  267loPI   C4B 4272   1.845   7.853   9.286 -0.1791 -0.3199 -0.2309
  268loPI    C1 4273   0.330  13.937  11.561 -0.0663 -0.0065 -0.1480
  268loPI    C2 4274  -0.036  13.858  11.701 -0.0026 -0.0581 -0.0091
  268loPI    C3 4275   0.254  13.972  11.952  0.0774 -0.0190 -0.1187
  268loPI   PO4 4276   0.317  14.032  11.315 -0.4510 -0.0032 -0.0990
  268loPI   GL1 4277   0.125  14.158  11.036 -0.0026  0.0167  0.2105
  268loPI   GL2 4278  -0.175  14.123  10.874  0.1692  0.0114 -0.1740
  268loPI   C1A 4279   0.303  14.109  10.699  0.0465  0.2018  0.1928
  268loPI   C2A 4280   0.335  14.130  10.239 -0.0525 -0.1613 -0.3327
  268loPI   C3A 4281   0.390  14.083   9.813  0.0543  0.0984  0.3082
  268loPI   C4A 4282   0.296  14.116   9.307 -0.0786 -0.0700 -0.0955
  268loPI   C5A 4283   0.281  14.058   8.920  0.3282 -0.0823  0.1167
  268loPI   C6A 4284   0.421  14.364   8.672  0.0386 -0.1174 -0.0244
  268loPI   C1B 4285  -0.171  14.119  10.428  0.0520  0.0412  0.0822
  268loPI   C2B 4286  -0.090  14.046   9.953 -0.1740  0.1197 -0.0626
  268loPI   C3B 4287  -0.251  14.049   9.489  0.3072 -0.1570 -0.2630
  268loPI   C4B 4288  -0.223  14.111   9.061  0.2728  0.1286 -0.1126
  269loPI    C1 4289   8.166  11.766  11.744 -0.1268  0.0402 -0.0073
  269loPI    C2 4290   7.889  11.901  11.999 -0.0489 -0.0053  0.1019
  269loPI    C3 4291   8.271  11.873  12.115 -0.0044  0.0230 -0.0366
  269loPI   PO4 4292   7.904  11.674  11.517  0.1515 -0.0295 -0.1038
  269loPI   GL1 4293   7.841  11.856  11.152 -0.2536 -0.0691 -0.0958
  269loPI   GL2 4294   7.996  11.745  10.828  0.4275  0.0737 -0.0213
  269loPI   C1A 4295   7.920  12.177  10.902 -0.2065  0.1795 -0.2120
  269loPI   C2A 4296   8.132  12.341  10.518 -0.2765  0.1421  0.1623
  269loPI   C3A 4297   8.080  12.325  10.052 -0.0735  0.0122  0.2068
  269loPI   C4A 4298   8.038  12.271   9.529 -0.0116 -0.0412 -0.0669
  269loPI   C5A 4299   8.087  12.378   9.136 -0.2168  0.3058  0.1180
  269loPI   C6A 4300   8.102  12.295   8.685  0.1238 -0.4999  0.2369
  269loPI   C1B 4301   7.911  11.853  10.352  0.0485 -0.0785 -0.0933
  269loPI   C2B 4302   7.843  11.830   9.877  0.1368  0.1156  0.1556
  269loPI   C3B 4303   7.856  11.825   9.383 -0.2706 -0.1527  0.1801
  269loPI   C4B 4304   7.837  11.929   9.034  0.1211  0.0702 -0.1201
  270loPI    C1 4305  11.487   6.373  10.937 -0.1395 -0.1876 -0.1907
  270loPI    C2 4306  11.840   6.189  10.967 -0.1484 -0.1933 -0.1207
  270loPI    C3 4307  11.548   6.104  11.226 -0.0933  0.0508  0.0245
  270loPI   PO4 4308  11.610   6.628  10.790  0.2008  0.0517 -0.0408
  270loPI   GL1 4309  11.735   6.749  10.380  0.0464 -0.1480 -0.3048
  270loPI   GL2 4310  11.899   6.965  10.291 -0.1341  0.1093 -0.1742
  270loPI   C1A 4311  11.322   6.852  10.033  0.0142  0.0570 -0.0801
  270loPI   C2A 4312  11.239   6.952   9.582 -0.2198  0.3678 -0.2538
  270loPI   C3A 4313  11.126   6.921   9.152  0.3001 -0.2353 -0.5384
  270loPI   C4A 4314  11.122   6.811   8.696  0.2285  0.0426  0.1360
  270loPI   C5A 4315  11.176   6.948   8.304  0.2118 -0.0938  0.0126
  270loPI   C6A 4316  11.631   7.066   8.332 -0.0522  0.0455  0.5266
  270loPI   C1B 4317  12.172   6.861   9.981 -0.0853 -0.1142  0.0389
  270loPI   C2B 4318  12.262   6.991   9.568  0.0948 -0.1618  0.1849
  270loPI   C3B 4319  12.012   6.940   9.244  0.2443 -0.1297  0.0603
  270loPI   C4B 4320  11.589   6.947   8.967 -0.2135  0.1585 -0.1273
  271loPI    C1 4321   5.937   3.318  11.470  0.1859  0.1015 -0.0660
  271loPI    C2 4322   5.704   3.363  11.792  0.0363 -0.4999 -0.0782
  271loPI    C3 4323   6.098   3.426  11.820 -0.0857  0.3470 -0.0130
  271loPI   PO4 4324   5.784   3.389  11.200 -0.1286 -0.0031 -0.1198
  271loPI   GL1 4325   5.858   3.537  10.872 -0.0099 -0.2130 -0.0548
  271loPI   GL2 4326   5.520   3.618  10.762  0.2612 -0.6075  0.1129
  271loPI   C1A 4327   5.828   3.773  10.430 -0.0526 -0.2301  0.2323
  271loPI   C2A 4328   5.733   3.722   9.988  0.1671  0.0315  0.1516
  271loPI   C3A 4329   5.812   3.847   9.587  0.4678 -0.0668 -0.5272
  271loPI   C4A 4330   5.781   3.718   9.156  0.0690 -0.1732 -0.1720
  271loPI   C5A 4331   5.617   3.795   8.777  0.0299  0.1913 -0.1604
  271loPI   C6A 4332   5.237   3.957   8.597  0.0981 -0.0623  0.1823
  271loPI   C1B 4333   5.334   3.735  10.364  0.1125 -0.0749  0.1726
  271loPI   C2B 4334   5.241   3.741   9.950 -0.0151  0.0265  0.1371
  271loPI   C3B 4335   5.229   3.810   9.482  0.0784 -0.0116 -0.6266
  271loPI   C4B 4336   5.222   3.746   9.053 -0.0926  0.0045 -0.1963
  272loPI    C1 4337   1.125  17.910  11.440 -0.0139  0.1019  0.0683
  272loPI    C2 4338   1.384  17.605  11.431 -0.0205  0.0955  0.0965
  272loPI    C3 4339   1.391  17.864  11.736  0.0020  0.1382  0.0596
  272loPI   PO4 4340   1.114  18.040  11.240 -0.0018 -0.1530  0.3002
  272loPI   GL1 4341   1.221  18.064  10.817  0.3591  0.2228  0.0231
  272loPI   GL2 4342   1.572  18.125  10.802  0.0025 -0.0130  0.1607
  272loPI   C1A 4343   1.152  18.033  10.344 -0.2193  0.1648  0.2990
  272loPI   C2A 4344   1.114  18.011   9.948 -0.0615 -0.2748 -0.1116
  272loPI   C3A 4345   1.146  18.124   9.625 -0.0649  0.0688 -0.0098
  272loPI   C4A 4346   1.168  18.138   9.252  0.4438  0.0825  0.2079
  272loPI   C5A 4347   1.052  17.897   8.909  0.2073  0.0932  0.1159
  272loPI   C6A 4348   0.682  17.799   8.561 -0.3425  0.1918 -0.0021
  272loPI   C1B 4349   1.779  18.050  10.453  0.0335 -0.1396 -0.2430
  272loPI   C2B 4350   1.609  18.072  10.050  0.2064  0.1611 -0.0612
  272loPI   C3B 4351   1.638  18.054   9.615 -0.0134  0.1419  0.0145
  272loPI   C4B 4352   1.653  18.189   9.245 -0.1468 -0.0244  0.2463
  273loPI    C1 4353   0.206   8.835  11.604  0.2083 -0.0713 -0.0065
  273loPI    C2 4354  -0.041   9.073  11.810  0.0020 -0.1481 -0.1616
  273loPI    C3 4355   0.196   8.815  12.004  0.1766  0.1315  0.0034
  273loPI   PO4 4356   0.135   8.992  11.323 -0.0309 -0.0090  0.0155
  273loPI   GL1 4357  -0.015   8.907  11.029 -0.1293  0.0435  0.0649
  273loPI   GL2 4358  -0.255   8.758  10.842  0.2257  0.1459 -0.1295
  273loPI   C1A 4359  -0.074   9.139  10.647 -0.3501 -0.1614  0.1371
  273loPI   C2A 4360   0.028   9.188  10.279  0.1119  0.2585  0.0764
  273loPI   C3A 4361   0.097   9.154   9.798 -0.1279  0.2951  0.1888
  273loPI   C4A 4362   0.107   9.179   9.374  0.0297  0.1484 -0.2154
  273loPI   C5A 4363   0.046   9.157   8.920 -0.0468  0.3798 -0.0353
  273loPI   C6A 4364   0.102   9.275   8.391  0.0390 -0.1106  0.0005
  273loPI   C1B 4365  -0.268   8.669  10.440 -0.2340  0.0264  0.1526
  273loPI   C2B 4366  -0.090   8.782  10.042  0.1969  0.1359 -0.2718
  273loPI   C3B 4367  -0.150   8.726   9.618  0.2745 -0.3236  0.0375
  273loPI   C4B 4368  -0.212   8.778   9.143  0.0110 -0.1745 -0.0274
  274loPI    C1 4369  13.462   0.866  11.102 -0.0600 -0.1967  0.1516
  274loPI    C2 4370  13.224   0.852  10.781 -0.0620 -0.0424  0.1454
  274loPI    C3 4371  13.085   0.739  11.138 -0.1005 -0.0879  0.1161
  274loPI   PO4 4372  13.758   0.790  10.915  0.1952 -0.3739 -0.0610
  274loPI   GL1 4373  13.664   0.732  10.410  0.3310  0.1069 -0.3443
  274loPI   GL2 4374  13.819   1.121  10.527  0.0650  0.0436 -0.3425
  274loPI   C1A 4375  13.688   0.708   9.998  0.1424  0.0634 -0.1664
  274loPI   C2A 4376  13.737   0.599   9.656  0.0116  0.0737  0.1656
  274loPI   C3A 4377  13.650   0.595   9.185 -0.1599  0.2181  0.1057
  274loPI   C4A 4378  13.797   0.664   8.732  0.0819  0.2657  0.0225
  274loPI   C5A 4379  13.838   0.423   8.495  0.4269  0.0349  0.0914
  274loPI   C6A 4380  13.956   0.431   8.122  0.0848 -0.1816 -0.2118
  274loPI   C1B 4381  13.974   1.155  10.151  0.2774  0.1134 -0.3369
  274loPI   C2B 4382  13.999   1.119   9.776  0.2232 -0.0226 -0.0883
  274loPI   C3B 4383  13.890   1.074   9.354  0.0357 -0.0160  0.1852
  274loPI   C4B 4384  13.939   1.065   8.861 -0.3558 -0.0626 -0.1894
  275loPI    C1 4385  10.598  13.094  11.571  0.1389  0.1901 -0.2082
  275loPI    C2 4386  10.975  12.980  11.640  0.0366  0.0916  0.2178
  275loPI    C3 4387  10.818  13.288  11.842 -0.1685  0.0154  0.1775
  275loPI   PO4 4388  10.570  13.003  11.437  0.0849 -0.1919  0.1795
  275loPI   GL1 4389  10.527  13.032  10.950 -0.3003 -0.1817  0.0305
  275loPI   GL2 4390  10.390  13.260  10.969 -0.0946  0.1112  0.1140
  275loPI   C1A 4391  10.690  13.143  10.551  0.0885  0.2764  0.1624
  275loPI   C2A 4392  10.706  13.196  10.163 -0.0942  0.0706  0.1077
  275loPI   C3A 4393  10.629  13.250   9.725  0.2184  0.0376  0.0592
  275loPI   C4A 4394  10.639  13.148   9.199 -0.1683  0.0711  0.4203
  275loPI   C5A 4395  10.771  13.152   8.792  0.0613 -0.0194  0.2732
  275loPI   C6A 4396  10.657  13.358   8.372  0.2320 -0.1589 -0.1299
  275loPI   C1B 4397  10.197  13.214  10.493  0.0369  0.0437 -0.1984
  275loPI   C2B 4398  10.155  13.204  10.107 -0.1430 -0.1882  0.4255
  275loPI   C3B 4399  10.065  13.256   9.705 -0.1281 -0.0081 -0.6005
  275loPI   C4B 4400  10.041  13.216   9.250 -0.1153  0.0625  0.1580
  276loPI    C1 4401   5.378   2.225  11.279 -0.0577 -0.0839  0.0609
  276loPI    C2 4402   5.156   2.289  11.607 -0.1806 -0.0792 -0.0222
  276loPI    C3 4403   5.537   2.410  11.596 -0.1547 -0.1430  0.1451
  276loPI   PO4 4404   5.276   2.207  11.159 -0.0360  0.1551  0.2257
  276loPI   GL1 4405   5.180   2.405  10.787  0.2221 -0.2763 -0.3130
  276loPI   GL2 4406   4.928   2.241  10.722 -0.0852  0.1497  0.2430
  276loPI   C1A 4407   5.046   2.425  10.310 -0.0312 -0.0374  0.0231
  276loPI   C2A 4408   4.987   2.405   9.945 -0.0364 -0.0517  0.0266
  276loPI   C3A 4409   4.978   2.464   9.529  0.1424  0.1567  0.2427
  276loPI   C4A 4410   4.886   2.394   9.099 -0.0406  0.0438  0.2623
  276loPI   C5A 4411   4.859   2.242   8.674  0.1136 -0.1245  0.2821
  276loPI   C6A 4412   5.066   1.960   8.384  0.0991  0.1468  0.0020
  276loPI   C1B 4413   4.773   1.985  10.412 -0.2093 -0.0375  0.4168
  276loPI   C2B 4414   4.746   1.994   9.936 -0.2444 -0.2457 -0.0936
  276loPI   C3B 4415   4.667   2.007   9.536 -0.0006 -0.0841 -0.1234
  276loPI   C4B 4416   4.673   1.870   9.053 -0.2034  0.0083 -0.1808
  277loPI    C1 4417   1.982  13.022  11.432  0.2205 -0.1820 -0.1573
  277loPI    C2 4418   2.236  13.098  11.731  0.0791 -0.0636 -0.0659
  277loPI    C3 4419   1.923  12.856  11.791  0.0256 -0.0045 -0.1051
  277loPI   PO4 4420   2.118  12.895  11.146 -0.0801 -0.1447 -0.2436
  277loPI   GL1 4421   1.960  12.763  10.859  0.1609 -0.2416 -0.1078
  277loPI   GL2 4422   2.149  12.537  10.824  0.0796 -0.2324  0.1390
  277loPI   C1A 4423   1.696  12.738  10.667  0.1897 -0.0179 -0.0637
  277loPI   C2A 4424   1.701  12.746  10.265 -0.2211 -0.2126  0.2056
  277loPI   C3A 4425   1.668  12.765   9.833 -0.1521 -0.2481 -0.0465
  277loPI   C4A 4426   1.576  12.731   9.434 -0.1019  0.0805  0.1938
  277loPI   C5A 4427   1.526  12.683   9.001  0.2551  0.0216  0.3145
  277loPI   C6A 4428   1.688  12.434   8.773  0.0607  0.0177 -0.0271
  277loPI   C1B 4429   2.191  12.841  10.433  0.1842 -0.0631  0.1385
  277loPI   C2B 4430   2.161  12.743   9.983 -0.1392  0.0877 -0.2459
  277loPI   C3B 4431   2.076  12.778   9.562  0.2478  0.0692  0.1081
  277loPI   C4B 4432   2.131  12.760   9.210 -0.1560  0.1126 -0.0448
  278loPI    C1 4433  17.202   3.093  11.081 -0.1461 -0.2971 -0.0192
  278loPI    C2 4434  17.012   3.293  11.372 -0.2027 -0.3743 -0.0030
  278loPI    C3 4435  17.393   3.182  11.422  0.0186  0.2363 -0.2389
  278loPI   PO4 4436  17.171   3.209  10.884  0.2851 -0.2344  0.0386
  278loPI   GL1 4437  17.204   3.357  10.494  0.0785 -0.1658 -0.0139
  278loPI   GL2 4438  16.798   3.407  10.484  0.2280  0.1071  0.1163
  278loPI   C1A 4439  17.355   3.369  10.146 -0.0021 -0.0771  0.0303
  278loPI   C2A 4440  17.368   3.359   9.666 -0.3216  0.4607  0.1097
  278loPI   C3A 4441  17.410   3.263   9.295  0.1406  0.1947 -0.0945
  278loPI   C4A 4442  17.314   3.242   8.860  0.0643 -0.2459  0.2368
  278loPI   C5A 4443  17.400   2.940   8.598 -0.2399  0.0480 -0.1325
  278loPI   C6A 4444  17.524   2.571   8.629  0.2416  0.2083  0.0893
  278loPI   C1B 4445  16.834   3.340  10.044  0.0993  0.0212  0.2775
  278loPI   C2B 4446  16.890   3.335   9.611  0.0406  0.2609  0.0799
  278loPI   C3B 4447  16.880   3.285   9.110  0.1926  0.1236  0.4913
  278loPI   C4B 4448  16.900   3.544   8.627 -0.0038 -0.0236  0.2024
  279loPI    C1 4449   1.821   5.658  11.507  0.0756 -0.1719 -0.0830
  279loPI    C2 4450   2.198   5.579  11.615  0.1884  0.0847 -0.2781
  279loPI    C3 4451   1.941   5.727  11.883  0.1398 -0.3643 -0.0672
  279loPI   PO4 4452   1.709   5.434  11.271 -0.1704 -0.3354  0.1376
  279loPI   GL1 4453   1.699   5.442  10.810  0.2676 -0.0858  0.0306
  279loPI   GL2 4454   1.926   5.147  10.894 -0.0226  0.2150  0.3315
  279loPI   C1A 4455   1.718   5.495  10.378  0.1638 -0.0870  0.0674
  279loPI   C2A 4456   1.609   5.522   9.900  0.5304 -0.3208 -0.0118
  279loPI   C3A 4457   1.615   5.547   9.431 -0.1640 -0.2881 -0.1338
  279loPI   C4A 4458   1.447   5.626   9.043  0.1485 -0.2482  0.2323
  279loPI   C5A 4459   1.501   5.774   8.503  0.1268 -0.0928 -0.1650
  279loPI   C6A 4460   1.523   6.224   8.254  0.4025 -0.4076 -0.1373
  279loPI   C1B 4461   1.994   5.025  10.455 -0.2033  0.0997  0.3101
  279loPI   C2B 4462   1.830   5.095  10.059 -0.3171  0.0182 -0.4324
  279loPI   C3B 4463   1.894   5.081   9.583  0.0739 -0.3307  0.1696
  279loPI   C4B 4464   1.968   5.055   9.172  0.1522  0.1773  0.0739
  280loPI    C1 4465  16.735   6.397  11.459 -0.4078 -0.0175  0.3131
  280loPI    C2 4466  16.959   6.350  11.786  0.1705 -0.2172 -0.0959
  280loPI    C3 4467  16.686   6.074  11.690 -0.1522 -0.0537  0.3190
  280loPI   PO4 4468  16.921   6.425  11.302  0.0702 -0.4558  0.0354
  280loPI   GL1 4469  16.922   6.602  10.829  0.1809 -0.1213  0.1279
  280loPI   GL2 4470  16.774   6.270  10.853  0.1972  0.1511  0.1744
  280loPI   C1A 4471  17.056   6.452  10.483 -0.1026  0.0448  0.0881
  280loPI   C2A 4472  17.018   6.464  10.017  0.1179 -0.0291 -0.2176
  280loPI   C3A 4473  17.050   6.453   9.640 -0.0105  0.0809  0.1848
  280loPI   C4A 4474  17.123   6.481   9.214 -0.2694 -0.1326  0.0267
  280loPI   C5A 4475  16.993   6.602   8.884 -0.1881 -0.2492  0.3177
  280loPI   C6A 4476  16.905   6.433   8.408  0.0340 -0.1446 -0.3064
  280loPI   C1B 4477  16.552   6.420  10.394  0.0611  0.1236  0.0429
  280loPI   C2B 4478  16.503   6.475   9.833 -0.0818  0.2230 -0.2074
  280loPI   C3B 4479  16.593   6.477   9.358 -0.3277 -0.1405 -0.1104
  280loPI   C4B 4480  16.576   6.410   8.956  0.1322 -0.0798 -0.2253
  281loPI    C1 4481   8.836  11.443  11.544 -0.1182  0.2752 -0.0032
  281loPI    C2 4482   8.610  11.592  11.839 -0.2848  0.0717 -0.0252
  281loPI    C3 4483   8.890  11.318  11.921 -0.0611  0.3031 -0.0020
  281loPI   PO4 4484   8.716  11.378  11.400  0.2299  0.0882 -0.2540
  281loPI   GL1 4485   8.595  11.366  10.897  0.0550  0.2578  0.0860
  281loPI   GL2 4486   8.482  11.102  10.732  0.3723 -0.0542 -0.0986
  281loPI   C1A 4487   8.558  11.404  10.352 -0.2406 -0.1107 -0.2393
  281loPI   C2A 4488   8.568  11.399   9.881 -0.4620  0.1586  0.0735
  281loPI   C3A 4489   8.550  11.353   9.466  0.0041 -0.0925  0.2652
  281loPI   C4A 4490   8.571  11.410   9.032  0.2763 -0.1418 -0.0777
  281loPI   C5A 4491   8.516  11.307   8.566  0.2173 -0.1157  0.0024
  281loPI   C6A 4492   8.788  11.270   8.232 -0.0356 -0.0421  0.2146
  281loPI   C1B 4493   8.328  10.803  10.422  0.1829 -0.1438 -0.0089
  281loPI   C2B 4494   8.326  10.883   9.948 -0.2800 -0.1021 -0.2468
  281loPI   C3B 4495   8.237  10.860   9.515 -0.1042 -0.3409 -0.2010
  281loPI   C4B 4496   8.380  10.881   9.079  0.0006  0.1942 -0.1413
  282loPI    C1 4497   1.624   1.423  11.375  0.3441 -0.1711  0.0194
  282loPI    C2 4498   1.502   1.299  11.735  0.3083 -0.1931 -0.0002
  282loPI    C3 4499   1.856   1.482  11.695  0.2229 -0.0077  0.0786
  282loPI   PO4 4500   1.597   1.257  11.256 -0.0912 -0.3519  0.0573
  282loPI   GL1 4501   1.383   1.072  10.909 -0.0643 -0.2108  0.0172
  282loPI   GL2 4502   1.265   1.399  10.851  0.1258  0.2719 -0.0238
  282loPI   C1A 4503   1.545   0.953  10.509 -0.0078  0.0923 -0.2303
  282loPI   C2A 4504   1.643   0.984  10.064 -0.1835  0.0022  0.2371
  282loPI   C3A 4505   1.624   1.061   9.587 -0.1133  0.5519  0.4057
  282loPI   C4A 4506   1.677   1.025   9.110  0.0904 -0.4300 -0.1413
  282loPI   C5A 4507   1.871   0.698   8.885 -0.1203 -0.1100 -0.0106
  282loPI   C6A 4508   1.921   0.322   8.649  0.2807  0.0649 -0.1685
  282loPI   C1B 4509   1.336   1.374  10.357 -0.0522  0.0090 -0.3855
  282loPI   C2B 4510   1.350   1.390   9.878 -0.1498 -0.1789  0.2101
  282loPI   C3B 4511   1.388   1.482   9.437  0.0475 -0.0807 -0.2954
  282loPI   C4B 4512   1.478   1.448   9.002  0.0751 -0.0164  0.1632
  283loPI    C1 4513   2.461   9.857  11.635  0.1892  0.2423 -0.0392
  283loPI    C2 4514   2.503   9.518  11.843  0.2136  0.2227 -0.0759
  283loPI    C3 4515   2.545   9.871  12.025 -0.2978  0.2147  0.0735
  283loPI   PO4 4516   2.616   9.804  11.417 -0.2064 -0.0218 -0.1462
  283loPI   GL1 4517   2.592   9.613  10.958 -0.5488 -0.2144  0.0193
  283loPI   GL2 4518   2.259   9.579  10.874  0.2599 -0.2973  0.1876
  283loPI   C1A 4519   2.897   9.572  10.570 -0.2088 -0.0938 -0.1226
  283loPI   C2A 4520   2.921   9.536  10.178  0.1813  0.1348  0.3116
  283loPI   C3A 4521   2.893   9.595   9.625 -0.0132  0.1365 -0.1773
  283loPI   C4A 4522   2.906   9.566   9.141  0.3796  0.0904  0.2970
  283loPI   C5A 4523   3.126   9.478   8.804  0.1429  0.3040  0.0300
  283loPI   C6A 4524   3.220   9.755   8.550 -0.2146 -0.1547  0.0521
  283loPI   C1B 4525   2.388   9.558  10.368  0.3992 -0.0814 -0.1411
  283loPI   C2B 4526   2.359   9.576   9.937 -0.3553 -0.2427 -0.0344
  283loPI   C3B 4527   2.417   9.609   9.489 -0.1876 -0.1281  0.2421
  283loPI   C4B 4528   2.397   9.588   9.068  0.0616  0.3779 -0.1157
  284loPI    C1 4529  16.627   0.880  11.366 -0.1516  0.0327  0.0587
  284loPI    C2 4530  16.723   1.261  11.444 -0.0313  0.1038 -0.4053
  284loPI    C3 4531  16.456   1.071  11.673 -0.0173  0.4335 -0.1076
  284loPI   PO4 4532  16.573   0.907  11.060 -0.0644  0.2746 -0.5690
  284loPI   GL1 4533  16.583   1.073  10.627 -0.2288  0.1599  0.2139
  284loPI   GL2 4534  16.719   1.429  10.637  0.0678  0.1807 -0.0369
  284loPI   C1A 4535  16.499   1.103  10.150 -0.0277  0.0560 -0.1110
  284loPI   C2A 4536  16.516   1.076   9.661 -0.1379  0.0658  0.1059
  284loPI   C3A 4537  16.574   1.082   9.192  0.0809 -0.0587 -0.3255
  284loPI   C4A 4538  16.672   1.016   8.721 -0.1604 -0.1688 -0.0181
  284loPI   C5A 4539  16.639   0.664   8.454  0.0857  0.3571 -0.2598
  284loPI   C6A 4540  16.556   0.638   8.094 -0.3197 -0.0020 -0.0828
  284loPI   C1B 4541  16.794   1.521  10.154 -0.0491  0.1760  0.1536
  284loPI   C2B 4542  16.834   1.472   9.735 -0.0778  0.1614 -0.0570
  284loPI   C3B 4543  16.799   1.564   9.301 -0.1579 -0.0425 -0.2611
  284loPI   C4B 4544  16.767   1.535   8.822  0.0396  0.0545  0.3524
  285loPI    C1 4545  17.264   6.659  11.539 -0.2275  0.0840  0.0992
  285loPI    C2 4546  17.539   6.912  11.683 -0.0611  0.0352 -0.1274
  285loPI    C3 4547  17.326   6.685  11.934  0.1418  0.0362  0.0485
  285loPI   PO4 4548  17.389   6.550  11.258 -0.0298 -0.1311 -0.0055
  285loPI   GL1 4549  17.452   6.729  10.915  0.0560  0.3182 -0.3392
  285loPI   GL2 4550  17.704   6.481  10.795  0.0823  0.0336  0.0432
  285loPI   C1A 4551  17.325   6.910  10.529  0.3080  0.2737  0.0854
  285loPI   C2A 4552  17.289   6.935  10.148 -0.1965  0.1151 -0.3865
  285loPI   C3A 4553  17.253   6.907   9.722  0.0150 -0.2766  0.1556
  285loPI   C4A 4554  17.270   6.951   9.298 -0.3257  0.2917 -0.6026
  285loPI   C5A 4555  17.410   6.908   8.814  0.0110  0.0266  0.0154
  285loPI   C6A 4556  17.474   6.963   8.271  0.1605 -0.2576 -0.1863
  285loPI   C1B 4557  17.558   6.426  10.395  0.0644  0.0544 -0.0248
  285loPI   C2B 4558  17.536   6.509   9.946 -0.2127  0.0534 -0.0353
  285loPI   C3B 4559  17.514   6.508   9.498  0.0290 -0.0235  0.2344
  285loPI   C4B 4560  17.642   6.477   9.085  0.4938 -0.1859 -0.1678
  286loPI    C1 4561  10.014  10.429  11.651 -0.1026  0.2957  0.0419
  286loPI    C2 4562   9.707  10.278  11.857 -0.0880 -0.1830 -0.2725
  286loPI    C3 4563  10.040  10.388  12.048 -0.2741 -0.1094  0.0162
  286loPI   PO4 4564   9.969  10.459  11.463 -0.0557  0.1381 -0.1546
  286loPI   GL1 4565   9.884  10.367  11.081  0.3803 -0.0513 -0.1504
  286loPI   GL2 4566  10.185  10.496  11.028 -0.0450 -0.2298 -0.1674
  286loPI   C1A 4567   9.674  10.477  10.764 -0.3715  0.0829 -0.1237
  286loPI   C2A 4568   9.647  10.463  10.364  0.2423 -0.1539  0.2184
  286loPI   C3A 4569   9.611  10.508   9.946 -0.0609 -0.2626  0.0181
  286loPI   C4A 4570   9.586  10.565   9.562 -0.0609  0.0736 -0.2987
  286loPI   C5A 4571   9.558  10.538   9.105 -0.0081  0.4155 -0.3806
  286loPI   C6A 4572   9.180  10.562   8.719  0.0017 -0.0247  0.0101
  286loPI   C1B 4573  10.143  10.481  10.538  0.1940 -0.1525  0.0471
  286loPI   C2B 4574  10.171  10.520  10.190  0.0618  0.2902 -0.1215
  286loPI   C3B 4575  10.108  10.468   9.801 -0.0405 -0.1966 -0.0535
  286loPI   C4B 4576  10.051  10.538   9.381 -0.2721 -0.2089 -0.1566
  287loPI    C1 4577   3.370   7.331  11.621  0.2706 -0.0545 -0.0101
  287loPI    C2 4578   3.364   7.694  11.453  0.0345 -0.0396  0.0265
  287loPI    C3 4579   3.408   7.657  11.849  0.2314 -0.0595  0.0038
  287loPI   PO4 4580   3.192   7.194  11.485 -0.0110 -0.1704  0.1873
  287loPI   GL1 4581   2.900   7.276  11.162 -0.1105 -0.0937  0.2582
  287loPI   GL2 4582   2.956   7.598  11.134  0.1048  0.1588  0.0694
  287loPI   C1A 4583   2.692   7.314  10.679 -0.0041 -0.0316 -0.1077
  287loPI   C2A 4584   2.706   7.308  10.275 -0.0384  0.0252  0.0716
  287loPI   C3A 4585   2.789   7.212   9.863 -0.3292 -0.0166  0.0959
  287loPI   C4A 4586   2.735   7.429   9.458 -0.3446 -0.3357  0.0347
  287loPI   C5A 4587   2.663   7.486   8.993 -0.1198 -0.1729  0.0732
  287loPI   C6A 4588   2.762   7.376   8.605 -0.3151  0.1446  0.3100
  287loPI   C1B 4589   2.941   7.723  10.750 -0.0099  0.1012  0.2302
  287loPI   C2B 4590   3.008   7.727  10.366 -0.1272  0.1605 -0.1923
  287loPI   C3B 4591   2.936   7.815   9.909 -0.2496  0.2220  0.1362
  287loPI   C4B 4592   2.984   7.832   9.488  0.0710  0.1718 -0.0880
  288loPI    C1 4593   5.045  17.851  11.639  0.0974  0.1345 -0.1948
  288loPI    C2 4594   4.672  17.770  11.519  0.0211 -0.1037  0.1883
  288loPI    C3 4595   4.852  17.535  11.790  0.4022  0.0858  0.1069
  288loPI   PO4 4596   5.134  18.001  11.417 -0.3867  0.5563 -0.4259
  288loPI   GL1 4597   5.324  17.857  10.915  0.0357 -0.1531  0.1388
  288loPI   GL2 4598   5.511  17.667  10.746 -0.1069 -0.2216  0.0661
  288loPI   C1A 4599   4.968  17.728  10.573  0.0850  0.0180 -0.3773
  288loPI   C2A 4600   5.018  17.637  10.136  0.0129 -0.0577  0.0728
  288loPI   C3A 4601   5.041  17.683   9.610  0.1025  0.0214 -0.0717
  288loPI   C4A 4602   5.058  17.730   9.185  0.0452 -0.2807 -0.1417
  288loPI   C5A 4603   4.839  17.626   8.800 -0.1080 -0.0650  0.2254
  288loPI   C6A 4604   4.890  17.705   8.346 -0.1561  0.0685 -0.2603
  288loPI   C1B 4605   5.538  17.711  10.294 -0.0929 -0.1197 -0.3467
  288loPI   C2B 4606   5.482  17.688   9.891 -0.0448  0.3985  0.1389
  288loPI   C3B 4607   5.551  17.756   9.409  0.0935 -0.1053  0.1758
  288loPI   C4B 4608   5.531  17.755   9.026  0.1372  0.0190  0.1497
  289loPI    C1 4609   3.650  17.178  11.180 -0.1150  0.0053 -0.0498
  289loPI    C2 4610   3.498  17.398  11.478 -0.1640  0.0572 -0.1126
  289loPI    C3 4611   3.615  17.021  11.546  0.0561  0.1490  0.0297
  289loPI   PO4 4612   3.496  17.222  10.918 -0.1541 -0.1060 -0.3023
  289loPI   GL1 4613   3.596  17.187  10.510 -0.0331 -0.1021 -0.3553
  289loPI   GL2 4614   3.827  17.344  10.545 -0.0662 -0.1542 -0.0917
  289loPI   C1A 4615   3.728  17.254  10.084 -0.1852  0.3809 -0.2441
  289loPI   C2A 4616   3.741  17.253   9.635 -0.2883  0.2819 -0.1175
  289loPI   C3A 4617   3.693  17.219   9.154  0.2504 -0.1121 -0.1174
  289loPI   C4A 4618   3.686  17.149   8.699  0.0358 -0.0633  0.0562
  289loPI   C5A 4619   4.014  17.188   8.432  0.0505 -0.0474  0.0446
  289loPI   C6A 4620   4.338  17.122   8.099  0.0144 -0.1217  0.1634
  289loPI   C1B 4621   4.042  17.610  10.145  0.1531  0.0867  0.0333
  289loPI   C2B 4622   3.961  17.684   9.715  0.0287  0.2325 -0.0401
  289loPI   C3B 4623   4.000  17.669   9.282  0.2735  0.0946  0.0541
  289loPI   C4B 4624   3.933  17.614   8.802  0.2578 -0.0546 -0.0179
  290loPI    C1 4625  17.375  13.841  11.512  0.2039  0.1814  0.1413
  290loPI    C2 4626  17.514  13.861  11.887 -0.1125 -0.3682  0.2984
  290loPI    C3 4627  17.208  13.619  11.799 -0.0823 -0.2036 -0.3088
  290loPI   PO4 4628  17.574  13.818  11.259 -0.0945 -0.1370 -0.0191
  290loPI   GL1 4629  17.510  13.710  10.840  0.4067  0.3922  0.1338
  290loPI   GL2 4630  17.736  13.543  10.716 -0.1965  0.1490 -0.0124
  290loPI   C1A 4631  17.344  14.130  10.619  0.0474  0.2791 -0.0962
  290loPI   C2A 4632  17.315  14.116  10.200 -0.0312  0.0444 -0.2131
  290loPI   C3A 4633  17.248  14.105   9.742  0.0814 -0.1645 -0.0308
  290loPI   C4A 4634  17.299  14.077   9.322  0.0965  0.0899  0.1138
  290loPI   C5A 4635  17.246  14.168   8.847 -0.3047 -0.1554  0.0813
  290loPI   C6A 4636  17.385  14.328   8.451 -0.1134 -0.1076 -0.0626
  290loPI   C1B 4637  17.645  13.685  10.330 -0.0167 -0.1123 -0.0467
  290loPI   C2B 4638  17.522  13.634   9.935  0.1098 -0.2219  0.0381
  290loPI   C3B 4639  17.500  13.597   9.493 -0.0027  0.1418 -0.0072
  290loPI   C4B 4640  17.447  13.667   8.992 -0.0590 -0.1062  0.0336
  291loPI    C1 4641  15.521  13.089  11.765  0.1604 -0.0357 -0.1950
  291loPI    C2 4642  15.873  13.217  11.905  0.1805 -0.0195 -0.2603
  291loPI    C3 4643  15.628  13.008  12.142  0.1417  0.1505 -0.1487
  291loPI   PO4 4644  15.433  13.289  11.637  0.3500  0.0541  0.0768
  291loPI   GL1 4645  15.331  13.359  11.114 -0.2028  0.0340  0.3809
  291loPI   GL2 4646  15.199  13.174  10.907 -0.1955 -0.2287  0.1371
  291loPI   C1A 4647  15.439  13.643  10.736 -0.1605 -0.1667 -0.1802
  291loPI   C2A 4648  15.544  13.694  10.326 -0.3436  0.3685  0.3016
  291loPI   C3A 4649  15.494  13.679   9.748  0.0739  0.2094 -0.0086
  291loPI   C4A 4650  15.477  13.564   9.293 -0.2537  0.2429 -0.3951
  291loPI   C5A 4651  15.613  13.651   8.870 -0.1145  0.1641 -0.1241
  291loPI   C6A 4652  15.951  13.430   8.693 -0.0351 -0.0406 -0.2582
  291loPI   C1B 4653  15.121  13.252  10.459 -0.1162 -0.0392  0.2656
  291loPI   C2B 4654  15.246  13.234  10.035 -0.0311 -0.1450 -0.4888
  291loPI   C3B 4655  15.213  13.194   9.526  0.0181 -0.3405 -0.1735
  291loPI   C4B 4656  15.249  13.155   9.120 -0.1322  0.2576 -0.0147
  292loPI    C1 4657   9.116   5.260  10.733 -0.2349  0.0668  0.0097
  292loPI    C2 4658   9.272   5.624  10.783 -0.1140  0.0244 -0.0545
  292loPI    C3 4659   9.234   5.378  11.096 -0.0149  0.0204 -0.0451
  292loPI   PO4 4660   8.958   5.267  10.584  0.0564  0.0245  0.0046
  292loPI   GL1 4661   8.724   5.389  10.255  0.0915 -0.3510  0.2849
  292loPI   GL2 4662   8.977   5.575  10.149 -0.1888 -0.1401 -0.1060
  292loPI   C1A 4663   8.613   5.088  10.030 -0.1036 -0.0928 -0.0775
  292loPI   C2A 4664   8.627   5.075   9.581 -0.0483  0.1649 -0.1721
  292loPI   C3A 4665   8.705   5.126   9.158  0.2495  0.1588  0.1037
  292loPI   C4A 4666   8.573   5.153   8.790 -0.2506 -0.1747 -0.0599
  292loPI   C5A 4667   8.583   5.218   8.413  0.0420  0.1149 -0.2130
  292loPI   C6A 4668   8.609   5.375   8.022 -0.2221  0.1056  0.2325
  292loPI   C1B 4669   8.862   5.509   9.704  0.3766  0.0998  0.0882
  292loPI   C2B 4670   8.890   5.603   9.253  0.1959 -0.2255  0.2126
  292loPI   C3B 4671   8.833   5.526   8.790 -0.1630 -0.2924  0.2040
  292loPI   C4B 4672   8.852   5.686   8.337  0.1085 -0.2518 -0.0462
  293loPI    C1 4673   8.863   3.163  10.675  0.0795  0.0515 -0.1490
  293loPI    C2 4674   8.514   3.120  10.866  0.1546  0.0214 -0.0177
  293loPI    C3 4675   8.858   3.083  11.067  0.2346 -0.0122 -0.1596
  293loPI   PO4 4676   8.890   3.029  10.431  0.0306 -0.1049  0.1012
  293loPI   GL1 4677   8.735   3.295  10.145 -0.0749 -0.0549  0.0505
  293loPI   GL2 4678   9.040   3.456  10.081 -0.0760 -0.2282  0.0281
  293loPI   C1A 4679   8.582   3.289   9.683 -0.2030  0.0343  0.2287
  293loPI   C2A 4680   8.739   3.333   9.258 -0.3513  0.1282 -0.1594
  293loPI   C3A 4681   8.739   3.397   8.825 -0.2224 -0.0529  0.0488
  293loPI   C4A 4682   8.727   3.325   8.434 -0.1100 -0.1485  0.0005
  293loPI   C5A 4683   8.420   3.018   8.284 -0.1269  0.1119 -0.2065
  293loPI   C6A 4684   7.962   2.936   8.219 -0.0753  0.0070  0.0495
  293loPI   C1B 4685   8.897   3.682   9.784  0.0228  0.1094  0.4505
  293loPI   C2B 4686   8.888   3.836   9.370  0.1613  0.0427 -0.1211
  293loPI   C3B 4687   9.019   3.845   9.057 -0.0159  0.2034  0.2181
  293loPI   C4B 4688   9.204   3.636   8.804 -0.1954  0.2473  0.0876
  294loPI    C1 4689   7.982   8.744  11.572 -0.2472  0.0553  0.0157
  294loPI    C2 4690   7.727   8.986  11.765  0.0003  0.2826  0.0641
  294loPI    C3 4691   8.057   8.856  11.949 -0.0993 -0.0469  0.0171
  294loPI   PO4 4692   8.006   8.832  11.337  0.1764 -0.2071 -0.0130
  294loPI   GL1 4693   8.171   8.607  10.976 -0.0257  0.0642 -0.3828
  294loPI   GL2 4694   7.851   8.640  10.931 -0.1017 -0.1641  0.0976
  294loPI   C1A 4695   8.121   8.697  10.460  0.1006 -0.2154 -0.0026
  294loPI   C2A 4696   8.073   8.658   9.965  0.1808 -0.1094 -0.0527
  294loPI   C3A 4697   8.137   8.727   9.636  0.1608 -0.1882  0.1141
  294loPI   C4A 4698   8.076   8.756   9.220  0.0298  0.4963  0.2015
  294loPI   C5A 4699   8.003   8.834   8.790 -0.0872 -0.2606  0.1173
  294loPI   C6A 4700   8.067   8.894   8.346 -0.0812 -0.1277  0.0938
  294loPI   C1B 4701   7.644   8.771  10.539 -0.2496  0.2297  0.1056
  294loPI   C2B 4702   7.593   8.666  10.132  0.0620  0.3572  0.3382
  294loPI   C3B 4703   7.587   8.673   9.608 -0.4392 -0.0249 -0.0478
  294loPI   C4B 4704   7.628   8.707   9.150 -0.0470  0.3478  0.2078
  295loPI    C1 4705  13.516   3.689  10.965 -0.1676  0.2382  0.1603
  295loPI    C2 4706  13.676   4.021  11.121 -0.0407  0.2049  0.1034
  295loPI    C3 4707  13.463   3.773  11.352  0.1648  0.1438  0.2301
  295loPI   PO4 4708  13.494   3.773  10.693 -0.0883 -0.0333 -0.2774
  295loPI   GL1 4709  13.419   4.073  10.329  0.1804  0.0711 -0.2273
  295loPI   GL2 4710  13.796   4.043  10.361 -0.3760 -0.3021 -0.4066
  295loPI   C1A 4711  13.269   3.922  10.025  0.2667 -0.3883 -0.3344
  295loPI   C2A 4712  13.205   3.922   9.586 -0.0389 -0.0088  0.0344
  295loPI   C3A 4713  13.282   3.834   9.114  0.1532 -0.0915 -0.1770
  295loPI   C4A 4714  13.519   3.974   8.822  0.1357 -0.1199 -0.0822
  295loPI   C5A 4715  13.665   4.320   8.733 -0.0835  0.0956 -0.1394
  295loPI   C6A 4716  13.766   4.413   8.284  0.0057  0.0423  0.0707
  295loPI   C1B 4717  14.103   4.186  10.033 -0.0567 -0.1936 -0.0766
  295loPI   C2B 4718  14.106   4.267   9.537 -0.0058 -0.0945  0.1043
  295loPI   C3B 4719  14.114   4.273   9.115 -0.0064 -0.0928  0.2100
  295loPI   C4B 4720  14.260   4.307   8.656 -0.0216 -0.0053  0.2372
  296loPI    C1 4721   2.396   5.133  11.752 -0.2880 -0.1584  0.0932
  296loPI    C2 4722   2.604   5.086  12.091 -0.1862 -0.1258  0.0356
  296loPI    C3 4723   2.288   5.331  12.083 -0.1995 -0.1402  0.1117
  296loPI   PO4 4724   2.435   4.865  11.616  0.0128  0.0174  0.0641
  296loPI   GL1 4725   2.438   4.875  11.223 -0.0005  0.4390 -0.0900
  296loPI   GL2 4726   2.723   4.780  11.148 -0.0535  0.0719 -0.0370
  296loPI   C1A 4727   2.505   5.051  10.825  0.1310 -0.1274 -0.2194
  296loPI   C2A 4728   2.559   5.071  10.406  0.0253  0.1538  0.1090
  296loPI   C3A 4729   2.462   4.963   9.922 -0.0464  0.1652  0.3722
  296loPI   C4A 4730   2.446   4.969   9.550 -0.0847 -0.2282  0.2487
  296loPI   C5A 4731   2.491   4.948   9.120 -0.0421 -0.1445 -0.0941
  296loPI   C6A 4732   2.358   4.984   8.730  0.0457  0.2398 -0.4106
  296loPI   C1B 4733   2.710   4.627  10.716 -0.0329 -0.0469  0.0267
  296loPI   C2B 4734   2.794   4.625  10.298  0.0908  0.2204 -0.0482
  296loPI   C3B 4735   2.720   4.550   9.808  0.1448 -0.1840  0.3715
  296loPI   C4B 4736   2.684   4.501   9.371 -0.3624  0.1862 -0.1552
  297loPI    C1 4737   1.999   3.519  11.612  0.1431  0.3301 -0.3085
  297loPI    C2 4738   2.280   3.684  11.844  0.1413 -0.0956  0.0088
  297loPI    C3 4739   1.911   3.838  11.837  0.1642 -0.0282  0.2252
  297loPI   PO4 4740   2.204   3.465  11.349 -0.3385 -0.2657 -0.0301
  297loPI   GL1 4741   2.316   3.605  10.967  0.2808 -0.1065  0.0057
  297loPI   GL2 4742   2.315   3.264  10.832 -0.1845 -0.2281 -0.0125
  297loPI   C1A 4743   2.172   3.684  10.587  0.1539  0.0775 -0.2096
  297loPI   C2A 4744   2.253   3.709  10.155  0.3946  0.3951  0.4020
  297loPI   C3A 4745   2.162   3.685   9.752  0.1579  0.2478  0.2262
  297loPI   C4A 4746   2.164   3.733   9.402 -0.1640  0.2155  0.2055
  297loPI   C5A 4747   2.106   3.670   9.020 -0.1526 -0.0847  0.1139
  297loPI   C6A 4748   2.502   3.326   8.787 -0.2100 -0.2489 -0.1756
  297loPI   C1B 4749   2.414   3.172  10.523 -0.2377 -0.1428  0.0216
  297loPI   C2B 4750   2.479   3.302  10.022  0.1269  0.2519 -0.1998
  297loPI   C3B 4751   2.329   3.167   9.722 -0.3683  0.0606  0.1447
  297loPI   C4B 4752   2.377   3.302   9.317  0.1658  0.2671  0.0435
  298loPI    C1 4753  17.276  12.653  11.765 -0.0764  0.0788  0.1299
  298loPI    C2 4754  17.541  12.607  12.061  0.1037  0.0975 -0.0262
  298loPI    C3 4755  17.186  12.776  12.135  0.0888 -0.0309  0.2078
  298loPI   PO4 4756  17.344  12.698  11.473 -0.0583 -0.0490 -0.2858
  298loPI   GL1 4757  17.440  12.505  10.994 -0.0060 -0.1988 -0.1505
  298loPI   GL2 4758  17.257  12.672  10.863 -0.3198  0.1087 -0.2207
  298loPI   C1A 4759  17.726  12.320  10.707  0.0337  0.0725  0.2612
  298loPI   C2A 4760  17.769  12.272  10.275 -0.0344 -0.1589 -0.1410
  298loPI   C3A 4761  17.909  12.364   9.876 -0.0321  0.0295 -0.2227
  298loPI   C4A 4762  17.864  12.342   9.351  0.1291 -0.1804 -0.1279
  298loPI   C5A 4763  17.870  12.366   8.896  0.1092 -0.1672 -0.0370
  298loPI   C6A 4764  18.133  12.397   8.623  0.0373  0.0706  0.3112
  298loPI   C1B 4765  17.569  12.744  10.504  0.1491  0.0224  0.0603
  298loPI   C2B 4766  17.648  12.799  10.056  0.0244 -0.1428 -0.1602
  298loPI   C3B 4767  17.582  12.763   9.670 -0.0728  0.0925  0.0251
  298loPI   C4B 4768  17.522  12.764   9.270 -0.0187 -0.0500 -0.1670
  299loPI    C1 4769   7.062   4.800  11.375  0.0864  0.0640 -0.0122
  299loPI    C2 4770   7.447   4.703  11.426  0.0532  0.0751  0.2799
  299loPI    C3 4771   7.168   4.417  11.420  0.0396  0.0872  0.3278
  299loPI   PO4 4772   7.122   4.958  11.093  0.0616  0.1115 -0.1359
  299loPI   GL1 4773   7.151   5.414  10.893  0.0607 -0.1437 -0.0321
  299loPI   GL2 4774   6.993   5.141  10.676  0.1414 -0.0087  0.0860
  299loPI   C1A 4775   7.382   5.449  10.520 -0.0009  0.2847 -0.1496
  299loPI   C2A 4776   7.326   5.498  10.122 -0.0623  0.0974 -0.0200
  299loPI   C3A 4777   7.281   5.552   9.633  0.1022 -0.0644 -0.0394
  299loPI   C4A 4778   7.275   5.595   9.163  0.0992  0.0456 -0.0276
  299loPI   C5A 4779   7.232   5.659   8.763  0.2103  0.0165 -0.1254
  299loPI   C6A 4780   7.274   6.049   8.465 -0.0046  0.0624  0.1588
  299loPI   C1B 4781   6.876   5.381  10.404 -0.0688 -0.0193 -0.0197
  299loPI   C2B 4782   6.855   5.629   9.979  0.3144  0.0288 -0.0414
  299loPI   C3B 4783   6.754   5.642   9.511  0.1481  0.1535 -0.0917
  299loPI   C4B 4784   6.805   5.593   9.094  0.2263 -0.0532  0.0779
  300loPI    C1 4785   3.269   4.415  11.791 -0.0107 -0.0913 -0.0380
  300loPI    C2 4786   3.027   4.254  12.065 -0.0671  0.1876  0.0799
  300loPI    C3 4787   3.367   4.431  12.178 -0.0194  0.1767 -0.0452
  300loPI   PO4 4788   3.189   4.486  11.678 -0.2395 -0.0758  0.0905
  300loPI   GL1 4789   3.010   4.397  11.298 -0.4298  0.0449  0.2856
  300loPI   GL2 4790   2.927   4.183  11.111  0.0188  0.0493  0.0315
  300loPI   C1A 4791   3.207   4.637  10.917 -0.0851 -0.0249  0.2237
  300loPI   C2A 4792   3.277   4.650  10.501  0.0170  0.0770 -0.0218
  300loPI   C3A 4793   3.291   4.647  10.098  0.1135 -0.0780  0.1766
  300loPI   C4A 4794   3.243   4.662   9.636 -0.2539  0.1063 -0.0516
  300loPI   C5A 4795   3.187   4.557   9.162 -0.0284  0.1166  0.2237
  300loPI   C6A 4796   2.847   4.693   8.921 -0.1915 -0.2787  0.0689
  300loPI   C1B 4797   3.017   4.223  10.712  0.1525 -0.0888 -0.0657
  300loPI   C2B 4798   3.009   4.127  10.348 -0.0012  0.0563  0.1327
  300loPI   C3B 4799   3.088   4.236  10.009  0.1220 -0.1667  0.0743
  300loPI   C4B 4800   3.023   4.175   9.542  0.1846  0.1030 -0.1232
  301loPI    C1 4801  10.288  10.845  11.514 -0.2392 -0.0663  0.1862
  301loPI    C2 4802  10.526  10.534  11.596  0.1493  0.1660 -0.0284
  301loPI    C3 4803  10.392  10.767  11.893  0.1322 -0.0045  0.1000
  301loPI   PO4 4804  10.501  10.951  11.236  0.1659 -0.0451  0.1368
  301loPI   GL1 4805  10.367  11.040  10.973  0.1697 -0.1116 -0.1272
  301loPI   GL2 4806  10.642  11.232  10.759  0.0334  0.0570  0.0752
  301loPI   C1A 4807  10.344  10.938  10.550 -0.0643 -0.1600 -0.4004
  301loPI   C2A 4808  10.405  10.909  10.027 -0.1011  0.0363 -0.2560
  301loPI   C3A 4809  10.327  10.932   9.574  0.1819  0.1418  0.1648
  301loPI   C4A 4810  10.239  10.974   9.143  0.3179 -0.3347 -0.1222
  301loPI   C5A 4811   9.992  10.631   8.832 -0.1098 -0.0264  0.0327
  301loPI   C6A 4812   9.955  10.217   8.554 -0.2694 -0.0994  0.0226
  301loPI   C1B 4813  10.558  11.320  10.366 -0.3753 -0.2584  0.2317
  301loPI   C2B 4814  10.605  11.354   9.969  0.1545  0.1152 -0.1402
  301loPI   C3B 4815  10.582  11.415   9.659  0.2643 -0.5403  0.1215
  301loPI   C4B 4816  10.465  11.445   9.254  0.1750  0.1167  0.1402
  302loPI    C1 4817  14.953  14.685  11.751  0.2114  0.2111 -0.0127
  302loPI    C2 4818  15.076  14.774  12.122  0.1534  0.0709  0.0408
  302loPI    C3 4819  15.089  14.396  11.992 -0.2568  0.0447  0.0627
  302loPI   PO4 4820  15.033  14.809  11.624  0.0490 -0.2496  0.0113
  302loPI   GL1 4821  15.132  14.804  11.216  0.0432 -0.0966 -0.0223
  302loPI   GL2 4822  14.923  14.700  11.052  0.0892  0.0844 -0.1165
  302loPI   C1A 4823  15.203  15.047  10.840  0.1008 -0.1796  0.5429
  302loPI   C2A 4824  15.228  15.082  10.435 -0.0310  0.1859  0.1252
  302loPI   C3A 4825  15.176  15.037   9.968 -0.1120 -0.3015  0.1069
  302loPI   C4A 4826  15.304  14.999   9.526 -0.0613 -0.1215  0.4776
  302loPI   C5A 4827  15.260  14.925   9.139  0.0751  0.1754  0.2200
  302loPI   C6A 4828  15.160  14.856   8.784  0.2193 -0.0436 -0.2320
  302loPI   C1B 4829  14.954  14.568  10.639  0.0857 -0.0242 -0.0616
  302loPI   C2B 4830  14.999  14.640  10.261  0.2272 -0.1850 -0.0080
  302loPI   C3B 4831  14.946  14.618   9.863  0.1507  0.1746  0.1568
  302loPI   C4B 4832  15.050  14.583   9.491  0.4766  0.1693  0.1686
  303loPI    C1 4833   6.341   8.317  11.307 -0.0312  0.2552 -0.1015
  303loPI    C2 4834   6.124   8.247  11.636 -0.0810  0.2629 -0.1327
  303loPI    C3 4835   6.120   8.610  11.468 -0.0631  0.2564 -0.1475
  303loPI   PO4 4836   6.230   8.121  11.133 -0.0546  0.1482  0.2225
  303loPI   GL1 4837   6.300   8.130  10.641 -0.1837  0.0458 -0.2165
  303loPI   GL2 4838   6.142   7.800  10.717 -0.2368  0.1287 -0.1160
  303loPI   C1A 4839   6.414   8.215  10.297 -0.0758  0.0777 -0.0609
  303loPI   C2A 4840   6.285   8.260   9.903  0.0341 -0.3325 -0.3385
  303loPI   C3A 4841   6.228   8.241   9.416  0.1921 -0.0097 -0.0624
  303loPI   C4A 4842   6.218   8.294   8.928  0.0628  0.3190  0.1895
  303loPI   C5A 4843   6.346   8.332   8.551  0.2795 -0.0097 -0.1386
  303loPI   C6A 4844   6.682   8.320   8.297  0.0369 -0.1326  0.0585
  303loPI   C1B 4845   6.136   7.738  10.324  0.3166 -0.3723  0.1234
  303loPI   C2B 4846   6.034   7.818   9.984  0.1346 -0.0865  0.1208
  303loPI   C3B 4847   6.035   7.803   9.536  0.1282  0.1093 -0.0600
  303loPI   C4B 4848   5.976   7.784   9.092  0.1293 -0.0199 -0.3280
  304loPI    C1 4849   1.637   6.903  11.815 -0.1962 -0.0848  0.0357
  304loPI    C2 4850   1.425   6.577  11.720 -0.2679 -0.0081 -0.0703
  304loPI    C3 4851   1.239   6.902  11.861 -0.2278  0.0783 -0.2151
  304loPI   PO4 4852   1.782   6.978  11.609  0.1198  0.1648 -0.0585
  304loPI   GL1 4853   1.702   6.898  11.136  0.2302 -0.2930 -0.1246
  304loPI   GL2 4854   1.986   6.765  11.077 -0.0700  0.0728 -0.1868
  304loPI   C1A 4855   1.452   6.909  10.852 -0.1659  0.1913 -0.0114
  304loPI   C2A 4856   1.435   6.824  10.468  0.1879 -0.0343 -0.1602
  304loPI   C3A 4857   1.425   6.875  10.018  0.1761  0.0183 -0.2786
  304loPI   C4A 4858   1.342   6.911   9.553 -0.0520 -0.0364  0.0968
  304loPI   C5A 4859   1.421   6.970   9.155  0.0445  0.1786 -0.1472
  304loPI   C6A 4860   1.607   7.125   8.732 -0.0788  0.0398 -0.1097
  304loPI   C1B 4861   1.902   6.777  10.661  0.0283  0.0055  0.1993
  304loPI   C2B 4862   1.925   6.809  10.148 -0.1509  0.2171  0.0514
  304loPI   C3B 4863   1.896   6.794   9.752 -0.2261 -0.0210  0.2999
  304loPI   C4B 4864   1.893   6.869   9.295  0.4092  0.2458 -0.0693
  305loPI    C1 4865   6.591   5.816  11.428  0.2154 -0.0254 -0.2201
  305loPI    C2 4866   6.339   5.557  11.599  0.0050  0.1992 -0.1837
  305loPI    C3 4867   6.713   5.594  11.737  0.0059 -0.0115 -0.1262
  305loPI   PO4 4868   6.545   5.773  11.213 -0.0794  0.0079  0.2461
  305loPI   GL1 4869   6.507   5.539  10.843  0.0330 -0.0348  0.0706
  305loPI   GL2 4870   6.235   5.467  10.727 -0.0097  0.1296  0.0032
  305loPI   C1A 4871   6.680   5.795  10.496  0.0303  0.2471 -0.1586
  305loPI   C2A 4872   6.588   6.083  10.190 -0.1527  0.0515  0.1086
  305loPI   C3A 4873   6.581   6.134   9.775  0.0431  0.4130 -0.1337
  305loPI   C4A 4874   6.538   6.056   9.316  0.2959  0.0595  0.3879
  305loPI   C5A 4875   6.375   6.034   8.922  0.2359 -0.2673 -0.0040
  305loPI   C6A 4876   6.366   6.349   8.634 -0.0427 -0.1213 -0.3400
  305loPI   C1B 4877   6.346   5.445  10.298  0.0700  0.1138  0.0856
  305loPI   C2B 4878   6.313   5.629   9.878 -0.0483  0.0407  0.0872
  305loPI   C3B 4879   6.240   5.614   9.411 -0.1929  0.3285 -0.1312
  305loPI   C4B 4880   6.251   5.504   9.020  0.4570  0.0375 -0.1128
  306loPI    C1 4881   7.323   1.654  11.308 -0.0298  0.2111  0.1760
  306loPI    C2 4882   7.616   1.386  11.257 -0.1111  0.2193 -0.3954
  306loPI    C3 4883   7.538   1.531  11.622  0.1801 -0.2497 -0.1378
  306loPI   PO4 4884   7.287   1.697  11.096 -0.1472 -0.0628  0.2225
  306loPI   GL1 4885   7.254   1.619  10.633  0.1681 -0.2945  0.0553
  306loPI   GL2 4886   6.983   1.425  10.733  0.1337  0.1900  0.0634
  306loPI   C1A 4887   7.167   1.397  10.276 -0.3795  0.4225  0.0160
  306loPI   C2A 4888   7.088   1.498   9.849  0.0234 -0.0652  0.1712
  306loPI   C3A 4889   7.047   1.543   9.397  0.3930 -0.0097 -0.0341
  306loPI   C4A 4890   7.073   1.609   8.928 -0.1648 -0.1758  0.0714
  306loPI   C5A 4891   7.093   1.377   8.506 -0.0636 -0.1522  0.0293
  306loPI   C6A 4892   7.332   1.460   8.143 -0.2242 -0.1847 -0.0549
  306loPI   C1B 4893   6.909   0.988  10.447  0.0871  0.3056 -0.2890
  306loPI   C2B 4894   6.900   1.019   9.967  0.0297 -0.1674 -0.4433
  306loPI   C3B 4895   6.829   1.061   9.494  0.0646  0.0825  0.1890
  306loPI   C4B 4896   6.884   1.047   9.032  0.1112 -0.1069 -0.1227
  307loPI    C1 4897   8.449  13.028  11.764  0.1774  0.1420  0.1447
  307loPI    C2 4898   8.280  12.833  12.069  0.0554  0.1401  0.0769
  307loPI    C3 4899   8.547  13.122  12.140  0.1996 -0.0161  0.1791
  307loPI   PO4 4900   8.249  12.962  11.559  0.0882 -0.0822  0.0792
  307loPI   GL1 4901   8.250  13.076  11.133  0.1194 -0.2555  0.0288
  307loPI   GL2 4902   8.556  13.022  11.119 -0.3597 -0.0443  0.0328
  307loPI   C1A 4903   8.247  13.106  10.707 -0.0886 -0.0077  0.1170
  307loPI   C2A 4904   8.141  13.153  10.321 -0.3689  0.3051 -0.0734
  307loPI   C3A 4905   8.088  13.150   9.878  0.1400 -0.0589  0.2233
  307loPI   C4A 4906   8.075  13.246   9.453  0.0528  0.0077 -0.0148
  307loPI   C5A 4907   8.076  13.168   9.042  0.4426  0.3191 -0.2600
  307loPI   C6A 4908   8.148  13.087   8.618 -0.0692  0.3643  0.0218
  307loPI   C1B 4909   8.721  13.063  10.793 -0.1211 -0.0163 -0.0022
  307loPI   C2B 4910   8.673  13.166  10.353  0.5834  0.1403  0.1899
  307loPI   C3B 4911   8.571  13.202   9.869 -0.0412 -0.0141 -0.0273
  307loPI   C4B 4912   8.629  13.229   9.494  0.1433 -0.0374 -0.0671
  308loPI    C1 4913   2.937   7.916  11.634  0.0070 -0.0839  0.0314
  308loPI    C2 4914   2.859   7.553  11.784  0.0684 -0.1394 -0.0699
  308loPI    C3 4915   2.862   7.873  12.025 -0.3091 -0.1575 -0.0345
  308loPI   PO4 4916   2.836   7.979  11.495  0.2910 -0.0257 -0.0003
  308loPI   GL1 4917   2.967   8.098  11.051  0.3431 -0.1975  0.0278
  308loPI   GL2 4918   2.608   8.251  10.983 -0.1553  0.1058  0.3586
  308loPI   C1A 4919   3.201   8.173  10.611 -0.0650  0.0901 -0.0388
  308loPI   C2A 4920   3.199   8.219  10.118 -0.3215 -0.1494 -0.3078
  308loPI   C3A 4921   3.173   8.258   9.704 -0.2800 -0.0198 -0.1319
  308loPI   C4A 4922   3.213   8.255   9.302 -0.1350 -0.0070  0.3345
  308loPI   C5A 4923   3.190   8.090   8.877 -0.1170 -0.1304 -0.2912
  308loPI   C6A 4924   3.120   7.764   8.453 -0.1641  0.1637  0.0021
  308loPI   C1B 4925   2.704   8.150  10.469 -0.0346 -0.1631  0.1797
  308loPI   C2B 4926   2.694   8.198   9.999  0.0825  0.2278 -0.0861
  308loPI   C3B 4927   2.654   8.254   9.618 -0.1040  0.1673  0.2196
  308loPI   C4B 4928   2.726   8.264   9.228  0.1660  0.0745  0.1326
  309loPI    C1 4929   8.145   2.758  11.102 -0.0555 -0.0965  0.0260
  309loPI    C2 4930   8.492   2.789  11.297 -0.0663 -0.0836  0.0433
  309loPI    C3 4931   8.155   2.717  11.499 -0.0923  0.0266  0.0398
  309loPI   PO4 4932   8.184   2.673  10.796  0.0041 -0.0691 -0.1620
  309loPI   GL1 4933   8.009   2.477  10.406  0.1936  0.0519 -0.0693
  309loPI   GL2 4934   7.778   2.693  10.333  0.1989 -0.0179  0.1369
  309loPI   C1A 4935   8.001   2.440   9.935 -0.3035 -0.2747  0.0487
  309loPI   C2A 4936   8.010   2.395   9.457  0.1907 -0.0299 -0.0046
  309loPI   C3A 4937   8.129   2.453   9.030 -0.1810  0.5254  0.0207
  309loPI   C4A 4938   8.416   2.457   8.630  0.1398  0.0356  0.3084
  309loPI   C5A 4939   8.755   2.647   8.328 -0.5724 -0.2203 -0.2616
  309loPI   C6A 4940   8.788   2.712   8.021  0.0893 -0.0368 -0.0994
  309loPI   C1B 4941   7.756   2.846   9.906  0.5849 -0.1214  0.2024
  309loPI   C2B 4942   7.782   2.847   9.554 -0.0874 -0.1640 -0.3240
  309loPI   C3B 4943   7.793   2.928   9.134  0.1429  0.1610 -0.4285
  309loPI   C4B 4944   7.945   2.775   8.750  0.0995 -0.4797 -0.0825
  310loPI    C1 4945   9.400   8.539  11.580  0.0224 -0.1214  0.0295
  310loPI    C2 4946   9.494   8.883  11.760  0.0572 -0.0621 -0.1005
  310loPI    C3 4947   9.523   8.538  11.960  0.0368  0.0086  0.0256
  310loPI   PO4 4948   9.521   8.715  11.308 -0.0631 -0.0920  0.0628
  310loPI   GL1 4949   9.462   8.578  10.803  0.1097 -0.2397 -0.0919
  310loPI   GL2 4950   9.140   8.613  10.640 -0.0596 -0.1264 -0.0084
  310loPI   C1A 4951   9.697   8.719  10.388 -0.0622  0.1778 -0.1900
  310loPI   C2A 4952   9.707   8.725   9.955  0.2418  0.0459  0.2545
  310loPI   C3A 4953   9.631   8.714   9.540  0.0994 -0.0532 -0.2726
  310loPI   C4A 4954   9.582   8.720   9.096  0.0336  0.0691 -0.1807
  310loPI   C5A 4955   9.582   8.850   8.681 -0.1492  0.0631 -0.1677
  310loPI   C6A 4956   9.993   8.880   8.482  0.2275  0.1627  0.0650
  310loPI   C1B 4957   9.231   8.697  10.175 -0.2406  0.1457 -0.2730
  310loPI   C2B 4958   9.171   8.689   9.689  0.0389  0.3110  0.1160
  310loPI   C3B 4959   8.991   8.698   9.222  0.1820 -0.0348  0.4910
  310loPI   C4B 4960   9.098   8.785   8.865 -0.1201 -0.1323 -0.1384
  311loPI    C1 4961   7.626   5.841  11.549 -0.2247 -0.1245 -0.0001
  311loPI    C2 4962   7.934   5.591  11.594 -0.1543 -0.0896 -0.2679
  311loPI    C3 4963   7.852   5.861  11.878  0.0502 -0.1109 -0.1866
  311loPI   PO4 4964   7.575   5.977  11.259  0.1571 -0.1597  0.0703
  311loPI   GL1 4965   7.448   5.779  10.894  0.1479 -0.1000 -0.1191
  311loPI   GL2 4966   7.671   6.002  10.769  0.3109  0.3460  0.1671
  311loPI   C1A 4967   7.165   5.862  10.545 -0.0612 -0.1912  0.1179
  311loPI   C2A 4968   7.102   6.013  10.150 -0.1847  0.2184 -0.1332
  311loPI   C3A 4969   7.110   6.100   9.688  0.2940 -0.2514  0.1674
  311loPI   C4A 4970   7.061   6.063   9.201 -0.3455 -0.2115 -0.1724
  311loPI   C5A 4971   6.860   6.031   8.761  0.1576 -0.0133  0.1013
  311loPI   C6A 4972   6.636   5.987   8.391  0.1299 -0.2495 -0.1261
  311loPI   C1B 4973   7.645   5.953  10.361  0.2949  0.1685 -0.0260
  311loPI   C2B 4974   7.538   6.027   9.900 -0.0598  0.0195 -0.0055
  311loPI   C3B 4975   7.596   6.051   9.353  0.1100 -0.1001 -0.2718
  311loPI   C4B 4976   7.517   6.052   8.913 -0.0354 -0.1591  0.1257
  312loPI    C1 4977   9.505   7.779  11.402  0.1093  0.1111 -0.1012
  312loPI    C2 4978   9.249   8.072  11.494  0.0296  0.0762 -0.2091
  312loPI    C3 4979   9.577   8.015  11.716 -0.2380 -0.1079  0.1507
  312loPI   PO4 4980   9.548   7.806  11.112 -0.0588  0.0600 -0.2270
  312loPI   GL1 4981   9.511   7.974  10.669 -0.1333 -0.2499  0.0095
  312loPI   GL2 4982   9.765   7.854  10.578  0.1438  0.0072 -0.1586
  312loPI   C1A 4983   9.414   8.262  10.362 -0.4470 -0.2713  0.2960
  312loPI   C2A 4984   9.355   8.242   9.929 -0.0000  0.1794 -0.1565
  312loPI   C3A 4985   9.355   8.276   9.460  0.0734  0.0098 -0.1087
  312loPI   C4A 4986   9.297   8.327   9.038  0.1341  0.0920  0.3965
  312loPI   C5A 4987   9.249   8.273   8.600  0.0452  0.0973  0.1107
  312loPI   C6A 4988   9.351   8.108   8.303  0.2283  0.1686 -0.1032
  312loPI   C1B 4989   9.661   7.815  10.158 -0.0436  0.3949  0.0408
  312loPI   C2B 4990   9.566   7.827   9.702 -0.0860  0.1050 -0.2326
  312loPI   C3B 4991   9.550   7.814   9.200  0.2007  0.0709 -0.0579
  312loPI   C4B 4992   9.508   7.877   8.751 -0.1038  0.3976  0.1707
  313loPI    C1 4993  11.979  16.683  11.004 -0.2953 -0.0138  0.1220
  313loPI    C2 4994  12.179  16.651  11.349  0.0918  0.0073 -0.0935
  313loPI    C3 4995  11.890  16.925  11.309  0.1681  0.1262  0.1537
  313loPI   PO4 4996  12.109  16.611  10.755  0.0839  0.1591 -0.2792
  313loPI   GL1 4997  11.983  16.319  10.460  0.2583 -0.0478 -0.1752
  313loPI   GL2 4998  12.171  16.026  10.585 -0.3750 -0.1196 -0.0056
  313loPI   C1A 4999  11.930  16.317  10.092 -0.2241 -0.1895  0.0353
  313loPI   C2A 5000  11.920  16.321   9.650  0.0955 -0.2471  0.0582
  313loPI   C3A 5001  11.932  16.265   9.121  0.1307  0.1355  0.0671
  313loPI   C4A 5002  12.013  16.394   8.735  0.2496 -0.1891  0.0347
  313loPI   C5A 5003  11.954  16.590   8.373  0.0812  0.2609  0.0469
  313loPI   C6A 5004  11.742  16.451   7.965  0.1565 -0.0398  0.1890
  313loPI   C1B 5005  12.220  15.867  10.140 -0.5362 -0.1661 -0.3312
  313loPI   C2B 5006  12.186  15.890   9.710 -0.1976  0.1767 -0.0101
  313loPI   C3B 5007  12.204  15.866   9.276  0.3315 -0.1148 -0.3640
  313loPI   C4B 5008  12.310  15.839   8.845 -0.2051  0.0478  0.2792
  314loPI    C1 5009   9.062   9.943  11.427 -0.0280  0.1131 -0.0208
  314loPI    C2 5010   9.036   9.544  11.413  0.4388  0.0750  0.0447
  314loPI    C3 5011   8.969   9.737  11.757 -0.2670  0.1016 -0.0936
  314loPI   PO4 5012   9.288  10.014  11.262  0.1557  0.2100  0.1123
  314loPI   GL1 5013   9.413   9.961  10.804  0.0805  0.0748  0.2747
  314loPI   GL2 5014   9.672   9.944  10.925  0.1048 -0.0774  0.1601
  314loPI   C1A 5015   9.383   9.980  10.333  0.0912  0.3129 -0.0481
  314loPI   C2A 5016   9.363  10.090   9.831  0.1292 -0.1844 -0.0447
  314loPI   C3A 5017   9.369  10.084   9.383 -0.2951  0.1079  0.1301
  314loPI   C4A 5018   9.293  10.146   9.027 -0.0335 -0.0719  0.0971
  314loPI   C5A 5019   9.495  10.151   8.555  0.2786  0.2351  0.0984
  314loPI   C6A 5020   9.716   9.855   8.250  0.0744 -0.1730  0.2171
  314loPI   C1B 5021   9.870  10.018  10.493 -0.2132  0.1085  0.0020
  314loPI   C2B 5022   9.853  10.026  10.043 -0.2038 -0.1830  0.1181
  314loPI   C3B 5023   9.840  10.095   9.559 -0.0366  0.0655 -0.0212
  314loPI   C4B 5024   9.823  10.120   9.048  0.0951 -0.0314 -0.1601
  315loPI    C1 5025  11.652   3.599  10.807 -0.2606  0.0747  0.0382
  315loPI    C2 5026  11.773   3.395  11.129  0.1977  0.1753 -0.0642
  315loPI    C3 5027  11.619   3.762  11.171  0.2268  0.1754  0.0430
  315loPI   PO4 5028  11.451   3.394  10.668 -0.0677  0.3177  0.1812
  315loPI   GL1 5029  11.192   3.629  10.360  0.1560  0.2329 -0.2336
  315loPI   GL2 5030  11.265   3.848  10.538 -0.2067  0.1383 -0.3430
  315loPI   C1A 5031  11.216   3.745   9.956 -0.2291 -0.2778 -0.0119
  315loPI   C2A 5032  11.313   4.074   9.654 -0.2330  0.1168 -0.1747
  315loPI   C3A 5033  11.011   4.027   9.224  0.2704 -0.2605  0.1295
  315loPI   C4A 5034  10.709   4.047   8.800  0.1258  0.1726 -0.0686
  315loPI   C5A 5035  10.693   3.659   8.433 -0.1086  0.1484  0.0412
  315loPI   C6A 5036  10.741   3.307   8.495 -0.1093 -0.3683 -0.0571
  315loPI   C1B 5037  11.595   4.112  10.217 -0.0727  0.2916 -0.0819
  315loPI   C2B 5038  11.665   4.439   9.824  0.0477  0.0511 -0.2519
  315loPI   C3B 5039  11.654   4.649   9.401  0.1399  0.3412  0.1007
  315loPI   C4B 5040  11.628   4.737   9.009 -0.1140  0.4976  0.0828
  316loPI    C1 5041   3.761   5.715  11.447  0.1545  0.1147  0.1218
  316loPI    C2 5042   3.618   5.425  11.211  0.3774 -0.0352  0.1686
  316loPI    C3 5043   3.463   5.480  11.575  0.3819 -0.1428  0.1872
  316loPI   PO4 5044   3.830   5.902  11.246  0.3457 -0.0348  0.0577
  316loPI   GL1 5045   3.660   6.166  10.920 -0.0471 -0.3042 -0.3018
  316loPI   GL2 5046   3.386   5.990  10.792  0.0774  0.0112 -0.2337
  316loPI   C1A 5047   3.791   6.376  10.525 -0.0417  0.2108 -0.3673
  316loPI   C2A 5048   3.773   6.415  10.042  0.1536  0.0719 -0.2452
  316loPI   C3A 5049   3.666   6.460   9.569 -0.4788  0.4695 -0.2741
  316loPI   C4A 5050   3.732   6.430   9.179 -0.1744  0.0532  0.0315
  316loPI   C5A 5051   3.935   6.445   8.831 -0.0331  0.0531 -0.1844
  316loPI   C6A 5052   4.139   6.068   8.360 -0.1072 -0.2189  0.1412
  316loPI   C1B 5053   3.573   5.899  10.355 -0.0362  0.0825  0.1599
  316loPI   C2B 5054   3.454   5.906   9.971 -0.1836 -0.0821  0.0416
  316loPI   C3B 5055   3.450   6.007   9.599  0.0371 -0.0673  0.0806
  316loPI   C4B 5056   3.405   5.865   9.248  0.2638  0.0397  0.1723
  317loPI    C1 5057  14.511   0.994  11.448 -0.0085  0.0888 -0.2001
  317loPI    C2 5058  14.173   1.122  11.621 -0.0228 -0.0349 -0.1355
  317loPI    C3 5059  14.265   0.732  11.625  0.2433  0.0271  0.0675
  317loPI   PO4 5060  14.545   1.129  11.250 -0.1949  0.1830  0.1709
  317loPI   GL1 5061  14.562   1.238  10.832 -0.1676  0.0077 -0.0447
  317loPI   GL2 5062  14.840   1.363  10.773 -0.1836  0.0686  0.0366
  317loPI   C1A 5063  14.386   1.121  10.525 -0.1823 -0.1092 -0.1719
  317loPI   C2A 5064  14.453   1.138  10.031  0.0995 -0.4291  0.3484
  317loPI   C3A 5065  14.488   1.069   9.615  0.1598  0.1187  0.0079
  317loPI   C4A 5066  14.410   1.079   9.186  0.1223 -0.1589  0.1252
  317loPI   C5A 5067  14.608   1.034   8.705 -0.0995 -0.2215  0.0815
  317loPI   C6A 5068  14.887   0.804   8.510  0.0853  0.1344  0.0677
  317loPI   C1B 5069  14.905   1.157  10.380 -0.0295  0.0619 -0.0676
  317loPI   C2B 5070  14.978   1.119   9.906  0.0837 -0.4406  0.3101
  317loPI   C3B 5071  14.991   1.120   9.506  0.1147  0.0160 -0.2793
  317loPI   C4B 5072  14.965   1.029   9.063  0.1763 -0.0682 -0.0355
  318loPI    C1 5073   6.773  10.239  11.484 -0.2623 -0.3066  0.1737
  318loPI    C2 5074   6.537  10.459  11.721 -0.0789  0.0788  0.0071
  318loPI    C3 5075   6.899  10.344  11.849 -0.0652  0.1063 -0.0066
  318loPI   PO4 5076   6.762  10.352  11.235 -0.1719  0.2280  0.2199
  318loPI   GL1 5077   6.837  10.260  10.871 -0.4629 -0.2639 -0.1394
  318loPI   GL2 5078   7.135  10.092  10.883 -0.0066 -0.2080  0.0658
  318loPI   C1A 5079   6.753  10.019  10.453  0.1186  0.0174  0.0301
  318loPI   C2A 5080   6.688  10.071  10.032 -0.0075 -0.3342 -0.0526
  318loPI   C3A 5081   6.747   9.975   9.683 -0.2475 -0.1205 -0.0861
  318loPI   C4A 5082   6.653  10.017   9.135  0.0155  0.2245  0.2242
  318loPI   C5A 5083   6.796  10.127   8.678  0.0866 -0.2190  0.3580
  318loPI   C6A 5084   7.192  10.085   8.437  0.2567  0.1403  0.0530
  318loPI   C1B 5085   7.243   9.976  10.452  0.0874 -0.1197  0.0794
  318loPI   C2B 5086   7.333   9.968   9.973  0.1729 -0.1905  0.1119
  318loPI   C3B 5087   7.250  10.063   9.502 -0.1905 -0.2396  0.2197
  318loPI   C4B 5088   7.284  10.022   8.974 -0.3164 -0.0347  0.2086
  319loPI    C1 5089  17.652   5.386  11.423  0.2570  0.0803  0.0921
  319loPI    C2 5090  17.298   5.233  11.528  0.1968  0.0724 -0.1180
  319loPI    C3 5091  17.613   5.191  11.769  0.0867 -0.0372  0.0084
  319loPI   PO4 5092  17.708   5.379  11.215 -0.3538 -0.0235 -0.0693
  319loPI   GL1 5093  17.907   5.491  10.808  0.1255 -0.1473  0.2585
  319loPI   GL2 5094  17.579   5.529  10.634 -0.0400 -0.1674  0.1625
  319loPI   C1A 5095  18.073   5.569  10.280 -0.1183 -0.0326 -0.1410
  319loPI   C2A 5096  18.015   5.562   9.818  0.2151 -0.0173 -0.0074
  319loPI   C3A 5097  18.040   5.550   9.419 -0.0810  0.2090 -0.1047
  319loPI   C4A 5098  18.005   5.504   9.065  0.0626  0.0807 -0.0288
  319loPI   C5A 5099  18.098   5.469   8.640 -0.0440  0.0389  0.0146
  319loPI   C6A 5100  18.063   5.671   8.221 -0.4376  0.1528 -0.2021
  319loPI   C1B 5101  17.548   5.572  10.160  0.2614 -0.3666 -0.2628
  319loPI   C2B 5102  17.521   5.535   9.673  0.3035  0.2405  0.0790
  319loPI   C3B 5103  17.529   5.547   9.229 -0.0243 -0.1185  0.1662
  319loPI   C4B 5104  17.637   5.386   8.711 -0.0567  0.3118 -0.1474
  320loPI    C1 5105  16.097  11.218  11.467 -0.0697 -0.1249  0.0625
  320loPI    C2 5106  16.391  11.096  11.709 -0.1306 -0.1750  0.1116
  320loPI    C3 5107  16.023  11.155  11.855 -0.0912  0.1163  0.0991
  320loPI   PO4 5108  16.129  11.028  11.240 -0.0133  0.2179  0.0211
  320loPI   GL1 5109  16.150  10.873  10.837  0.2861  0.0319 -0.1286
  320loPI   GL2 5110  16.508  11.014  10.837  0.3966  0.0735  0.1037
  320loPI   C1A 5111  16.004  10.950  10.434  0.2765  0.2488  0.1416
  320loPI   C2A 5112  16.016  10.971  10.037 -0.1484 -0.0609  0.2009
  320loPI   C3A 5113  16.005  11.010   9.567  0.3642 -0.1240 -0.2315
  320loPI   C4A 5114  15.997  11.021   9.080 -0.0094  0.1754 -0.1803
  320loPI   C5A 5115  15.923  11.082   8.637 -0.1853  0.0614 -0.0471
  320loPI   C6A 5116  15.773  11.123   8.249  0.4808  0.1271  0.2682
  320loPI   C1B 5117  16.509  10.929  10.375 -0.0933 -0.4656  0.0891
  320loPI   C2B 5118  16.505  10.936   9.914  0.2220 -0.1087 -0.1970
  320loPI   C3B 5119  16.532  10.985   9.531 -0.1321  0.1114  0.1208
  320loPI   C4B 5120  16.479  11.001   9.072  0.0028 -0.1798 -0.0831
  321loPI    C1 5121   3.825   2.790  11.480 -0.0474 -0.0587 -0.0247
  321loPI    C2 5122   3.442   2.679  11.446 -0.0418 -0.0615 -0.0782
  321loPI    C3 5123   3.640   2.611  11.787 -0.0870 -0.0661 -0.0528
  321loPI   PO4 5124   3.826   2.868  11.178 -0.3772  0.0602 -0.0014
  321loPI   GL1 5125   3.928   2.799  10.725 -0.0379 -0.0341  0.1687
  321loPI   GL2 5126   4.199   2.871  10.839 -0.3057 -0.0549 -0.0647
  321loPI   C1A 5127   3.769   2.875  10.271  0.0877  0.1404  0.0518
  321loPI   C2A 5128   3.799   2.881   9.899 -0.1758 -0.0256  0.0618
  321loPI   C3A 5129   3.762   2.960   9.465 -0.2249 -0.5497  0.0340
  321loPI   C4A 5130   3.742   2.869   8.945 -0.3018  0.1438  0.1585
  321loPI   C5A 5131   3.551   3.029   8.512  0.0621  0.0522  0.0183
  321loPI   C6A 5132   3.642   3.375   8.312 -0.1612  0.2841 -0.0164
  321loPI   C1B 5133   4.360   2.895  10.366  0.0526  0.3181 -0.0142
  321loPI   C2B 5134   4.258   2.894   9.987  0.0158  0.1856 -0.2786
  321loPI   C3B 5135   4.297   2.926   9.529  0.0379  0.0166  0.2951
  321loPI   C4B 5136   4.205   2.861   9.091 -0.0868  0.2176  0.2024
  322loPI    C1 5137   3.035   0.371  11.717 -0.2217  0.0746  0.3398
  322loPI    C2 5138   2.946   0.001  11.842 -0.1770 -0.0253  0.0821
  322loPI    C3 5139   3.288   0.174  11.957 -0.0460 -0.1908 -0.0528
  322loPI   PO4 5140   2.992   0.321  11.482 -0.1666 -0.1175  0.2029
  322loPI   GL1 5141   2.919   0.325  10.977 -0.2529 -0.0320 -0.0897
  322loPI   GL2 5142   3.100   0.060  10.709 -0.0773 -0.0821  0.2507
  322loPI   C1A 5143   2.771   0.435  10.575 -0.1738 -0.2502  0.0978
  322loPI   C2A 5144   2.862   0.521  10.186 -0.0698 -0.0880  0.1739
  322loPI   C3A 5145   2.940   0.531   9.821  0.0098 -0.0861  0.1868
  322loPI   C4A 5146   2.928   0.579   9.461 -0.1053 -0.1233  0.1097
  322loPI   C5A 5147   2.939   0.681   8.999 -0.0124  0.1292  0.1430
  322loPI   C6A 5148   3.104   1.031   8.806  0.0678  0.2110 -0.1337
  322loPI   C1B 5149   3.154   0.082  10.171 -0.1881  0.1366 -0.1085
  322loPI   C2B 5150   3.198   0.138   9.646 -0.1120  0.0748  0.0103
  322loPI   C3B 5151   3.302   0.155   9.210 -0.1118 -0.2749 -0.0568
  322loPI   C4B 5152   3.196   0.267   8.818  0.0786 -0.0625  0.1209
  323loPI    C1 5153   4.744  14.569  11.675  0.2046  0.1070 -0.0101
  323loPI    C2 5154   4.421  14.746  11.831  0.1176 -0.0538 -0.0062
  323loPI    C3 5155   4.698  14.587  12.072  0.0487 -0.1847 -0.0123
  323loPI   PO4 5156   4.712  14.629  11.433  0.0103  0.1941  0.0380
  323loPI   GL1 5157   4.744  14.631  11.015 -0.0231  0.3555 -0.2328
  323loPI   GL2 5158   5.001  14.926  10.838  0.1693 -0.0808  0.3286
  323loPI   C1A 5159   4.742  14.514  10.622 -0.0791  0.1598 -0.1647
  323loPI   C2A 5160   4.748  14.537  10.154  0.0894  0.2590 -0.2222
  323loPI   C3A 5161   4.867  14.612   9.652  0.0017 -0.0519  0.0709
  323loPI   C4A 5162   4.781  14.627   9.257 -0.0515  0.3539  0.0652
  323loPI   C5A 5163   4.742  14.594   8.853 -0.3383 -0.0079 -0.1360
  323loPI   C6A 5164   4.799  14.393   8.559  0.1217  0.0941 -0.0222
  323loPI   C1B 5165   5.083  15.012  10.427  0.1666 -0.0595  0.3553
  323loPI   C2B 5166   5.117  15.114   9.996 -0.0893  0.0878  0.3862
  323loPI   C3B 5167   5.076  15.048   9.544  0.1474 -0.1256 -0.2729
  323loPI   C4B 5168   5.120  14.969   9.087  0.0943  0.2178 -0.0346
  324loPI    C1 5169  14.601   0.413  11.381 -0.3039 -0.1291 -0.0987
  324loPI    C2 5170  14.769   0.592  11.697 -0.1843 -0.0783 -0.1903
  324loPI    C3 5171  14.828   0.201  11.634 -0.0864 -0.0571 -0.2312
  324loPI   PO4 5172  14.745   0.557  11.199  0.2258  0.4693  0.1309
  324loPI   GL1 5173  14.657   0.443  10.876 -0.2573  0.2832 -0.3805
  324loPI   GL2 5174  14.660   0.725  10.670 -0.1264  0.3471  0.0536
  324loPI   C1A 5175  14.546   0.236  10.511  0.1055  0.0888  0.0073
  324loPI   C2A 5176  14.383   0.275  10.104 -0.4598  0.2030  0.1536
  324loPI   C3A 5177  14.513   0.202   9.648 -0.1765 -0.1601  0.1108
  324loPI   C4A 5178  14.472   0.236   9.178 -0.0623  0.0358 -0.1744
  324loPI   C5A 5179  14.472   0.189   8.729  0.1870 -0.1451 -0.2963
  324loPI   C6A 5180  14.363   0.424   8.510 -0.0544  0.0306 -0.1759
  324loPI   C1B 5181  14.725   0.729  10.158 -0.1719  0.1076  0.1256
  324loPI   C2B 5182  14.786   0.653   9.742  0.1221 -0.1447  0.2833
  324loPI   C3B 5183  14.740   0.601   9.374  0.0752 -0.1357  0.2705
  324loPI   C4B 5184  14.793   0.578   8.939  0.0101  0.0500  0.1718
  325loPI    C1 5185   8.229  15.584  11.506 -0.0433 -0.1422  0.0409
  325loPI    C2 5186   8.234  15.949  11.671 -0.3357 -0.1294  0.0254
  325loPI    C3 5187   8.476  15.663  11.811 -0.1992  0.0330  0.1236
  325loPI   PO4 5188   8.219  15.605  11.252 -0.3852 -0.1468 -0.1643
  325loPI   GL1 5189   8.233  15.677  10.841 -0.0887 -0.1138 -0.0447
  325loPI   GL2 5190   8.440  15.428  10.845 -0.0240 -0.0454  0.0754
  325loPI   C1A 5191   8.268  15.859  10.434  0.1418  0.1581 -0.0131
  325loPI   C2A 5192   8.186  15.904  10.069  0.1167 -0.2094  0.1156
  325loPI   C3A 5193   8.115  15.921   9.598  0.2249 -0.1924  0.0128
  325loPI   C4A 5194   8.132  15.963   9.140 -0.1223 -0.0807 -0.1024
  325loPI   C5A 5195   8.150  15.933   8.693 -0.1677  0.3190  0.2316
  325loPI   C6A 5196   8.481  16.022   8.531  0.2135 -0.0515  0.1306
  325loPI   C1B 5197   8.457  15.384  10.458 -0.2339  0.2383 -0.0352
  325loPI   C2B 5198   8.405  15.435   9.980 -0.2651 -0.2025 -0.0201
  325loPI   C3B 5199   8.408  15.537   9.522  0.1261  0.0804 -0.1663
  325loPI   C4B 5200   8.419  15.530   9.124  0.1436 -0.3720 -0.0498
  326loPI    C1 5201  14.799   9.951  11.351  0.2081 -0.0616 -0.1001
  326loPI    C2 5202  14.680   9.658  11.597 -0.1907 -0.0308 -0.2488
  326loPI    C3 5203  14.968   9.912  11.711 -0.0647 -0.2841  0.0073
  326loPI   PO4 5204  14.566   9.846  11.125 -0.1097  0.1764 -0.1713
  326loPI   GL1 5205  14.252   9.960  10.797 -0.1220  0.1182  0.0304
  326loPI   GL2 5206  13.920  10.107  10.703  0.0228  0.0626  0.1752
  326loPI   C1A 5207  14.466  10.006  10.467 -0.2873  0.0280  0.1080
  326loPI   C2A 5208  14.452  10.012  10.025 -0.4438 -0.2051 -0.0841
  326loPI   C3A 5209  14.540  10.081   9.652  0.3475 -0.2080  0.2911
  326loPI   C4A 5210  14.486  10.125   9.248 -0.0232 -0.2368  0.2179
  326loPI   C5A 5211  14.508  10.179   8.802  0.1652 -0.1779  0.2130
  326loPI   C6A 5212  14.353  10.578   8.637  0.1953 -0.1755 -0.0731
  326loPI   C1B 5213  13.979   9.977  10.186  0.0885 -0.0209 -0.1430
  326loPI   C2B 5214  14.050  10.136   9.798  0.2692 -0.3204 -0.1151
  326loPI   C3B 5215  13.885  10.151   9.381  0.2629  0.0425 -0.0827
  326loPI   C4B 5216  14.022  10.117   8.929  0.2500  0.1856 -0.3342
  327loPI    C1 5217  -0.137   7.572  11.273 -0.0604 -0.1729  0.0502
  327loPI    C2 5218   0.229   7.575  11.433 -0.0707 -0.1642  0.0735
  327loPI    C3 5219  -0.069   7.772  11.612 -0.0683 -0.1031  0.0108
  327loPI   PO4 5220  -0.186   7.382  11.201 -0.0245  0.0476  0.4541
  327loPI   GL1 5221  -0.531   7.405  10.894 -0.1021 -0.0080  0.1290
  327loPI   GL2 5222  -0.842   7.292  10.816  0.0152 -0.1891 -0.0992
  327loPI   C1A 5223  -0.437   7.385  10.513 -0.1217  0.1476  0.1704
  327loPI   C2A 5224  -0.446   7.367  10.045  0.3730  0.0356  0.2278
  327loPI   C3A 5225  -0.427   7.386   9.636 -0.1900 -0.0113  0.2058
  327loPI   C4A 5226  -0.408   7.375   9.150 -0.1185 -0.1514 -0.1009
  327loPI   C5A 5227  -0.189   7.334   8.809  0.3576 -0.0163 -0.2991
  327loPI   C6A 5228  -0.043   7.641   8.510 -0.2052  0.1562 -0.0139
  327loPI   C1B 5229  -1.008   7.368  10.422 -0.3123  0.1938 -0.1393
  327loPI   C2B 5230  -0.948   7.380  10.005  0.0401 -0.1997 -0.3978
  327loPI   C3B 5231  -0.915   7.365   9.622  0.0029  0.2530  0.1805
  327loPI   C4B 5232  -0.923   7.434   9.309  0.2195 -0.1196 -0.0957
  328loPI    C1 5233  18.140  12.657  11.570 -0.1807  0.1044  0.0694
  328loPI    C2 5234  17.781  12.488  11.616 -0.0557 -0.1493  0.1301
  328loPI    C3 5235  18.010  12.557  11.935 -0.0208 -0.0533  0.0845
  328loPI   PO4 5236  18.229  12.593  11.330 -0.2238  0.0527  0.3179
  328loPI   GL1 5237  18.219  12.675  10.926  0.2385  0.2605  0.0131
  328loPI   GL2 5238  18.205  12.392  10.826  0.0437  0.5032  0.2380
  328loPI   C1A 5239  18.172  12.762  10.429  0.0500 -0.1090  0.0760
  328loPI   C2A 5240  18.153  12.830  10.013  0.1524  0.0858  0.1392
  328loPI   C3A 5241  18.088  12.814   9.618 -0.2143 -0.2462 -0.1286
  328loPI   C4A 5242  18.060  12.789   9.164 -0.0093  0.0916  0.2228
  328loPI   C5A 5243  17.936  12.843   8.690  0.1734 -0.1301  0.4167
  328loPI   C6A 5244  17.799  13.012   8.347 -0.2437 -0.2140  0.0506
  328loPI   C1B 5245  18.392  12.347  10.469 -0.0715 -0.0527  0.0230
  328loPI   C2B 5246  18.422  12.361   9.996  0.2404 -0.0993  0.0975
  328loPI   C3B 5247  18.340  12.384   9.545  0.2391 -0.0397 -0.1574
  328loPI   C4B 5248  18.308  12.350   9.073  0.0015  0.1800  0.0230
  329loPI    C1 5249   2.694  16.846  11.427  0.1309  0.0884  0.0012
  329loPI    C2 5250   2.703  16.754  11.816  0.0005 -0.0959 -0.0379
  329loPI    C3 5251   2.720  17.136  11.701  0.0187 -0.0392  0.1494
  329loPI   PO4 5252   2.869  16.756  11.284  0.0181  0.2570 -0.1178
  329loPI   GL1 5253   2.800  16.642  10.796 -0.0954  0.0795 -0.3342
  329loPI   GL2 5254   3.028  16.811  10.578  0.2984  0.1507  0.0646
  329loPI   C1A 5255   2.478  16.730  10.436 -0.1286  0.0518  0.1386
  329loPI   C2A 5256   2.420  16.794   9.984 -0.2486 -0.1215 -0.2181
  329loPI   C3A 5257   2.412  16.833   9.543  0.2035  0.1105  0.0694
  329loPI   C4A 5258   2.312  16.832   9.097  0.0309  0.4601 -0.0961
  329loPI   C5A 5259   2.396  16.676   8.690 -0.0686  0.0701  0.0594
  329loPI   C6A 5260   2.550  16.644   8.334  0.2841  0.0649 -0.1475
  329loPI   C1B 5261   2.903  16.790  10.181 -0.2222  0.1185  0.0791
  329loPI   C2B 5262   2.924  16.758   9.773 -0.1353  0.5475 -0.3004
  329loPI   C3B 5263   2.834  16.807   9.291 -0.2261 -0.1468  0.1981
  329loPI   C4B 5264   2.933  16.746   8.796 -0.1588 -0.1802 -0.1325
  330loPI    C1 5265   6.033   0.030  11.086 -0.0912 -0.1944 -0.2030
  330loPI    C2 5266   6.267   0.248  10.846  0.1038 -0.0207  0.1379
  330loPI    C3 5267   6.340  -0.142  10.896  0.1162 -0.0383 -0.0152
  330loPI   PO4 5268   5.821  -0.009  10.949 -0.0975  0.0418  0.0962
  330loPI   GL1 5269   5.915  -0.045  10.584 -0.0578 -0.0391 -0.0387
  330loPI   GL2 5270   6.003  -0.350  10.487  0.0665 -0.2355  0.2316
  330loPI   C1A 5271   5.801   0.142  10.214 -0.0246 -0.1328 -0.0442
  330loPI   C2A 5272   5.834   0.176   9.781  0.1520  0.3290  0.6236
  330loPI   C3A 5273   5.844   0.201   9.348  0.1545  0.2340  0.2522
  330loPI   C4A 5274   5.731   0.255   8.892 -0.0241  0.1944 -0.0748
  330loPI   C5A 5275   5.702   0.023   8.491 -0.3077 -0.2791  0.2298
  330loPI   C6A 5276   5.790  -0.383   8.340 -0.3486  0.1042  0.0951
  330loPI   C1B 5277   6.081  -0.256  10.048  0.0893  0.0731  0.1628
  330loPI   C2B 5278   6.134  -0.230   9.617  0.3552  0.0131  0.0740
  330loPI   C3B 5279   5.983  -0.313   9.257 -0.3262 -0.4053  0.0130
  330loPI   C4B 5280   5.982  -0.274   8.831 -0.0671 -0.1456  0.1251
  331loPI    C1 5281  12.712  14.173  11.372 -0.0536 -0.0936  0.0665
  331loPI    C2 5282  12.328  14.269  11.317 -0.0366 -0.0623  0.0027
  331loPI    C3 5283  12.460  14.179  11.683 -0.0165  0.3236  0.0947
  331loPI   PO4 5284  12.805  14.386  11.175 -0.1698 -0.1705 -0.2223
  331loPI   GL1 5285  12.531  14.400  10.793 -0.2449 -0.0983  0.2415
  331loPI   GL2 5286  12.587  14.088  10.877 -0.2633 -0.0152  0.3031
  331loPI   C1A 5287  12.439  14.544  10.326 -0.1834 -0.0567  0.1727
  331loPI   C2A 5288  12.461  14.610   9.872 -0.1038  0.2448 -0.1024
  331loPI   C3A 5289  12.582  14.535   9.384 -0.0262 -0.2973 -0.0815
  331loPI   C4A 5290  12.518  14.513   8.907  0.1006  0.1958 -0.1074
  331loPI   C5A 5291  12.687  14.199   8.649  0.1778  0.4294 -0.0125
  331loPI   C6A 5292  12.885  14.285   8.243  0.0980 -0.0946 -0.0492
  331loPI   C1B 5293  12.633  14.107  10.355  0.1258  0.0195 -0.1247
  331loPI   C2B 5294  12.669  14.105   9.857  0.4372 -0.1277  0.3413
  331loPI   C3B 5295  12.735  14.057   9.555 -0.1429 -0.2046 -0.1289
  331loPI   C4B 5296  12.679  14.116   9.124  0.0095 -0.1430 -0.0657
  332loPI    C1 5297   4.220  12.256  11.582 -0.1630 -0.1611 -0.3447
  332loPI    C2 5298   4.088  11.915  11.746 -0.1115 -0.1573 -0.2951
  332loPI    C3 5299   4.346  12.147  11.946 -0.1674 -0.0755 -0.3176
  332loPI   PO4 5300   4.326  12.207  11.316 -0.2252 -0.0641  0.0260
  332loPI   GL1 5301   4.189  12.375  10.982 -0.0516  0.1026  0.0702
  332loPI   GL2 5302   4.451  12.470  10.857 -0.1184  0.1712  0.0265
  332loPI   C1A 5303   4.067  12.098  10.598  0.0834  0.2365  0.0267
  332loPI   C2A 5304   4.016  12.282  10.158  0.3388 -0.0358  0.1136
  332loPI   C3A 5305   3.967  12.356   9.796 -0.0306 -0.1821 -0.0032
  332loPI   C4A 5306   3.922  12.368   9.381  0.1491 -0.2434  0.0535
  332loPI   C5A 5307   3.988  12.323   8.935  0.1824 -0.1394  0.1242
  332loPI   C6A 5308   3.980  12.091   8.548  0.2400 -0.1276 -0.0651
  332loPI   C1B 5309   4.529  12.192  10.457 -0.3413 -0.0477 -0.1883
  332loPI   C2B 5310   4.507  12.245   9.984 -0.3058  0.0484 -0.2748
  332loPI   C3B 5311   4.452  12.319   9.586  0.0302 -0.0790 -0.0893
  332loPI   C4B 5312   4.486  12.380   9.168 -0.1472  0.1403 -0.1143
  333loPI    C1 5313   9.831  12.662  11.459 -0.1508  0.1222  0.2691
  333loPI    C2 5314   9.860  12.526  11.834  0.2762  0.1098  0.2370
  333loPI    C3 5315   9.716  12.893  11.764  0.0441  0.0515  0.3982
  333loPI   PO4 5316   9.713  12.526  11.317 -0.1477  0.0690  0.1594
  333loPI   GL1 5317   9.675  12.242  10.998  0.2203  0.0088  0.0845
  333loPI   GL2 5318   9.583  12.557  10.834 -0.0987 -0.0005 -0.1604
  333loPI   C1A 5319   9.636  12.207  10.531  0.0783  0.1353 -0.0663
  333loPI   C2A 5320   9.545  12.211  10.107 -0.1460  0.0276 -0.1171
  333loPI   C3A 5321   9.615  12.315   9.673  0.0774  0.1035 -0.0927
  333loPI   C4A 5322   9.499  12.349   9.190  0.0095  0.3522  0.3648
  333loPI   C5A 5323   9.327  12.428   8.843 -0.1788  0.0231 -0.0468
  333loPI   C6A 5324   8.933  12.661   8.676  0.1004 -0.0100 -0.3085
  333loPI   C1B 5325   9.392  12.690  10.536  0.0742  0.1284 -0.1703
  333loPI   C2B 5326   9.319  12.687  10.137 -0.1138  0.0514  0.0452
  333loPI   C3B 5327   9.352  12.765   9.735  0.1480 -0.2033 -0.0012
  333loPI   C4B 5328   9.242  12.797   9.331 -0.1456  0.0021  0.1289
  334loPI    C1 5329  15.258  10.625  11.296 -0.0679 -0.1093  0.0751
  334loPI    C2 5330  15.209  10.277  11.488  0.0316 -0.1138  0.0932
  334loPI    C3 5331  15.499  10.529  11.601  0.1191 -0.1358 -0.0792
  334loPI   PO4 5332  15.352  10.646  11.122  0.0931  0.2349 -0.1559
  334loPI   GL1 5333  15.546  10.817  10.802 -0.0756 -0.1275  0.0952
  334loPI   GL2 5334  15.479  11.028  10.549 -0.0290 -0.0442  0.3401
  334loPI   C1A 5335  15.725  10.563  10.511  0.0079 -0.3086  0.1990
  334loPI   C2A 5336  15.747  10.550   9.975  0.1017 -0.1595  0.0862
  334loPI   C3A 5337  15.706  10.547   9.489  0.0239  0.0535 -0.2089
  334loPI   C4A 5338  15.785  10.555   9.062 -0.0744 -0.2991 -0.0753
  334loPI   C5A 5339  15.845  10.616   8.694  0.2487 -0.0770  0.0955
  334loPI   C6A 5340  15.821  10.572   8.338 -0.0710  0.2146 -0.3344
  334loPI   C1B 5341  15.546  11.051  10.150 -0.0790 -0.0115  0.1801
  334loPI   C2B 5342  15.456  11.015   9.734  0.1068 -0.0530 -0.0316
  334loPI   C3B 5343  15.515  11.052   9.342 -0.0951  0.0670  0.2013
  334loPI   C4B 5344  15.552  10.940   8.911  0.1473 -0.0504  0.0079
  335loPI    C1 5345   1.045  17.163  11.573  0.0194 -0.0272  0.1858
  335loPI    C2 5346   1.338  17.042  11.818  0.0902  0.0467  0.1381
  335loPI    C3 5347   1.216  17.423  11.824  0.0749  0.0430  0.0760
  335loPI   PO4 5348   1.092  17.121  11.346  0.1554  0.0247  0.3844
  335loPI   GL1 5349   1.253  17.343  11.010 -0.0661 -0.1991  0.0097
  335loPI   GL2 5350   1.098  17.600  10.940 -0.0717 -0.0080  0.4237
  335loPI   C1A 5351   1.172  17.166  10.669  0.1049  0.0688  0.0208
  335loPI   C2A 5352   1.024  17.216  10.375 -0.1198 -0.1729 -0.0036
  335loPI   C3A 5353   1.165  17.201   9.981  0.1808  0.2243 -0.0585
  335loPI   C4A 5354   1.169  17.170   9.556 -0.1818  0.0843 -0.0441
  335loPI   C5A 5355   1.199  17.325   9.093  0.0859  0.0070  0.0301
  335loPI   C6A 5356   1.046  17.458   8.692 -0.1709 -0.0751  0.3094
  335loPI   C1B 5357   0.929  17.633  10.585 -0.1179 -0.0554  0.3196
  335loPI   C2B 5358   0.805  17.556  10.063 -0.4431  0.0734  0.1320
  335loPI   C3B 5359   0.947  17.592   9.698 -0.0303 -0.1676 -0.1766
  335loPI   C4B 5360   0.941  17.678   9.337  0.0504  0.1009  0.0681
  336loPI    C1 5361   6.187   4.182  11.390  0.2234  0.1574  0.0924
  336loPI    C2 5362   6.289   4.393  11.714  0.0587  0.1435  0.1541
  336loPI    C3 5363   5.907   4.293  11.652  0.1501 -0.2416  0.1890
  336loPI   PO4 5364   6.199   4.217  11.202 -0.0301 -0.1282  0.1557
  336loPI   GL1 5365   6.520   4.130  10.912  0.0965  0.0008  0.3086
  336loPI   GL2 5366   6.275   3.844  10.846 -0.2701 -0.2744  0.2089
  336loPI   C1A 5367   6.289   4.584  10.671 -0.1687 -0.0251  0.1534
  336loPI   C2A 5368   6.278   4.690  10.227 -0.0931 -0.2078  0.0718
  336loPI   C3A 5369   6.287   4.685   9.692 -0.2886  0.0587 -0.2988
  336loPI   C4A 5370   6.336   4.633   9.212 -0.0553  0.2350 -0.1942
  336loPI   C5A 5371   6.481   4.465   8.679 -0.2613  0.3285 -0.1757
  336loPI   C6A 5372   6.508   4.208   8.275 -0.0123 -0.1379 -0.0938
  336loPI   C1B 5373   6.424   3.736  10.474  0.2778  0.2427 -0.0146
  336loPI   C2B 5374   6.303   3.791  10.065  0.2536  0.0690  0.0770
  336loPI   C3B 5375   6.289   3.828   9.630 -0.0265  0.0288 -0.0627
  336loPI   C4B 5376   6.318   3.711   9.196  0.3102  0.0844 -0.1140
  337loPI    C1 5377  10.685   2.403  10.543  0.1695  0.2165  0.1436
  337loPI    C2 5378  10.797   2.104  10.784  0.0288  0.1525  0.1305
  337loPI    C3 5379  10.804   2.481  10.917  0.2072  0.1445  0.1469
  337loPI   PO4 5380  10.625   2.341  10.306 -0.1411 -0.1116 -0.3183
  337loPI   GL1 5381  10.678   2.267   9.907  0.3169  0.2730  0.0728
  337loPI   GL2 5382  10.538   2.542   9.861 -0.2491 -0.0665  0.1323
  337loPI   C1A 5383  10.913   2.352   9.548  0.0374 -0.2320  0.0564
  337loPI   C2A 5384  11.175   2.659   9.400  0.0228 -0.0370  0.1895
  337loPI   C3A 5385  11.457   2.807   9.069 -0.1186 -0.1693 -0.0658
  337loPI   C4A 5386  11.774   2.942   8.813 -0.1712 -0.0247  0.0465
  337loPI   C5A 5387  12.100   2.851   8.577  0.1660  0.0626  0.2322
  337loPI   C6A 5388  12.226   2.447   8.471  0.0183 -0.1570 -0.0661
  337loPI   C1B 5389  10.396   2.646   9.432  0.0746 -0.1393 -0.0845
  337loPI   C2B 5390  10.736   2.629   9.127  0.1709  0.1765 -0.1916
  337loPI   C3B 5391  10.978   2.510   8.787  0.3517  0.2502 -0.0312
  337loPI   C4B 5392  11.386   2.565   8.618  0.0642  0.0960 -0.2146
  338loPI    C1 5393   0.672  16.289  11.795 -0.1410 -0.1239 -0.0387
  338loPI    C2 5394   0.539  16.661  11.860 -0.0006 -0.0381 -0.2316
  338loPI    C3 5395   0.464  16.372  12.127 -0.1575  0.1154 -0.1069
  338loPI   PO4 5396   0.621  16.290  11.445  0.0176  0.0025  0.0025
  338loPI   GL1 5397   0.617  16.399  10.962 -0.1615  0.3657 -0.2421
  338loPI   GL2 5398   0.320  16.424  10.939  0.3294  0.0622  0.1392
  338loPI   C1A 5399   0.620  16.392  10.483 -0.2134  0.2063  0.3732
  338loPI   C2A 5400   0.648  16.370  10.004  0.0967  0.1543 -0.1414
  338loPI   C3A 5401   0.640  16.320   9.602 -0.0179 -0.0457  0.1257
  338loPI   C4A 5402   0.541  16.350   9.150 -0.2573 -0.0255 -0.3717
  338loPI   C5A 5403   0.527  16.457   8.704 -0.0883 -0.5031  0.3360
  338loPI   C6A 5404   0.947  16.474   8.512  0.0103 -0.1103  0.2171
  338loPI   C1B 5405   0.151  16.361  10.587 -0.1385 -0.3032 -0.1708
  338loPI   C2B 5406   0.053  16.261  10.174 -0.2386  0.0302 -0.1354
  338loPI   C3B 5407   0.128  16.414   9.842 -0.0321 -0.0649  0.2826
  338loPI   C4B 5408   0.159  16.419   9.468 -0.3108 -0.0460 -0.1461
  339loPI    C1 5409  15.957  11.972  11.639 -0.0728  0.1029  0.0278
  339loPI    C2 5410  15.560  11.934  11.611 -0.0440 -0.1206 -0.0982
  339loPI    C3 5411  15.759  11.744  11.901 -0.0071 -0.1687 -0.1548
  339loPI   PO4 5412  16.022  12.201  11.468 -0.0104 -0.2499 -0.2162
  339loPI   GL1 5413  16.224  12.249  11.056 -0.0284 -0.0934  0.0206
  339loPI   GL2 5414  16.542  12.333  10.986 -0.1554  0.2250 -0.0255
  339loPI   C1A 5415  16.208  12.332  10.656  0.1620  0.1869 -0.0671
  339loPI   C2A 5416  16.214  12.346  10.170  0.4831 -0.0991 -0.0300
  339loPI   C3A 5417  16.328  12.287   9.803  0.2084  0.0195  0.2736
  339loPI   C4A 5418  16.231  12.267   9.378  0.0334 -0.0709  0.0209
  339loPI   C5A 5419  16.324  12.310   9.023 -0.0348  0.2375  0.1050
  339loPI   C6A 5420  16.803  12.331   8.863 -0.5049  0.0890  0.2223
  339loPI   C1B 5421  16.674  12.318  10.542  0.2870  0.1300 -0.1773
  339loPI   C2B 5422  16.797  12.329  10.183  0.0890 -0.1530 -0.0236
  339loPI   C3B 5423  16.844  12.306   9.779 -0.0408 -0.1805 -0.0347
  339loPI   C4B 5424  16.743  12.299   9.435  0.0659  0.0722  0.0259
  340loPI    C1 5425  10.895  17.060  11.030 -0.5333  0.1677 -0.0968
  340loPI    C2 5426  10.760  16.899  11.370 -0.4547  0.0547 -0.1187
  340loPI    C3 5427  10.822  16.667  11.050 -0.0323  0.0708 -0.0540
  340loPI   PO4 5428  10.812  17.237  11.028  0.3087  0.0011  0.4320
  340loPI   GL1 5429  10.650  17.315  10.626  0.2390 -0.1874  0.0919
  340loPI   GL2 5430  10.384  17.294  10.474 -0.0415  0.2623 -0.1731
  340loPI   C1A 5431  10.874  17.241  10.245  0.2625  0.0110 -0.0652
  340loPI   C2A 5432  10.803  17.261   9.799 -0.0896 -0.0947 -0.0448
  340loPI   C3A 5433  10.810  17.279   9.423 -0.0974 -0.3391 -0.1543
  340loPI   C4A 5434  10.871  17.292   9.015 -0.1611 -0.0134  0.2706
  340loPI   C5A 5435  11.044  17.410   8.579  0.0623  0.0885 -0.2250
  340loPI   C6A 5436  11.282  17.774   8.457  0.2586 -0.0929  0.0846
  340loPI   C1B 5437  10.370  17.234  10.070  0.1780  0.1909 -0.0169
  340loPI   C2B 5438  10.386  17.288   9.628 -0.0743 -0.5234 -0.1826
  340loPI   C3B 5439  10.299  17.387   9.211 -0.0808  0.0364 -0.2486
  340loPI   C4B 5440  10.465  17.270   8.757 -0.2544  0.1080  0.2059
  341loPI    C1 5441  14.207   5.853  10.485 -0.1953  0.1210 -0.0256
  341loPI    C2 5442  13.989   5.958  10.804 -0.2229 -0.3381  0.1145
  341loPI    C3 5443  13.853   6.033  10.435 -0.0578  0.4639  0.1967
  341loPI   PO4 5444  14.462   5.888  10.579  0.1366 -0.1559 -0.0079
  341loPI   GL1 5445  14.810   5.845  10.394 -0.3019 -0.1480  0.0013
  341loPI   GL2 5446  14.659   6.052  10.182 -0.0960 -0.2123 -0.0644
  341loPI   C1A 5447  15.157   5.878  10.219  0.1339 -0.1701  0.0414
  341loPI   C2A 5448  15.135   6.055   9.777  0.2185  0.4706 -0.2325
  341loPI   C3A 5449  15.174   6.043   9.297  0.1015 -0.1911  0.2530
  341loPI   C4A 5450  15.361   6.112   8.889 -0.0435 -0.0549 -0.2493
  341loPI   C5A 5451  15.718   5.914   8.645  0.0629 -0.2044  0.0978
  341loPI   C6A 5452  16.090   5.688   8.473  0.3907  0.2421  0.0739
  341loPI   C1B 5453  14.660   5.947   9.834  0.2717 -0.0733  0.1814
  341loPI   C2B 5454  14.727   6.075   9.440  0.0789  0.0222 -0.2381
  341loPI   C3B 5455  14.726   6.127   9.074 -0.0366 -0.2038  0.3313
  341loPI   C4B 5456  14.848   6.105   8.694 -0.3118  0.1700 -0.3077
  342loPI    C1 5457   2.676   1.541  11.433 -0.1596  0.0766  0.0042
  342loPI    C2 5458   2.362   1.411  11.644  0.0809 -0.0941  0.2636
  342loPI    C3 5459   2.647   1.628  11.823  0.1153  0.0541  0.0321
  342loPI   PO4 5460   2.599   1.629  11.215  0.1913 -0.0057  0.0251
  342loPI   GL1 5461   2.277   1.983  11.009  0.3029 -0.0505 -0.0043
  342loPI   GL2 5462   2.183   2.308  10.866 -0.0856  0.2086  0.2435
  342loPI   C1A 5463   2.159   1.812  10.635  0.4207  0.0767 -0.2411
  342loPI   C2A 5464   2.125   1.876  10.178  0.0389 -0.0676 -0.1606
  342loPI   C3A 5465   2.117   1.865   9.738 -0.3250 -0.0817 -0.1814
  342loPI   C4A 5466   2.172   1.988   9.252  0.1441  0.1743 -0.0426
  342loPI   C5A 5467   2.307   1.908   8.804  0.1598  0.2716  0.1229
  342loPI   C6A 5468   1.931   1.698   8.509  0.0509  0.0092 -0.1737
  342loPI   C1B 5469   2.381   2.222  10.473 -0.1477 -0.0814 -0.4296
  342loPI   C2B 5470   2.474   2.311  10.023 -0.1489 -0.2082 -0.1276
  342loPI   C3B 5471   2.366   2.339   9.599  0.1816  0.0442  0.1293
  342loPI   C4B 5472   2.451   2.368   9.156 -0.1339  0.1786  0.1573
  343loPI    C1 5473   7.177  11.324  11.349 -0.0965  0.2127 -0.1362
  343loPI    C2 5474   7.235  11.162  11.710 -0.3992  0.2839 -0.0529
  343loPI    C3 5475   7.535  11.353  11.526 -0.1371 -0.0687 -0.0027
  343loPI   PO4 5476   7.112  11.261  11.205  0.1898  0.1576  0.1018
  343loPI   GL1 5477   7.116  11.155  10.796 -0.1672  0.2872  0.0352
  343loPI   GL2 5478   7.183  11.474  10.662  0.1763 -0.1053 -0.0269
  343loPI   C1A 5479   6.893  10.935  10.413 -0.1451  0.0458  0.1346
  343loPI   C2A 5480   6.798  10.914  10.012 -0.1169  0.0486  0.1569
  343loPI   C3A 5481   6.809  11.000   9.622 -0.1143 -0.3696  0.2993
  343loPI   C4A 5482   6.801  10.998   9.245  0.4582  0.1003 -0.2932
  343loPI   C5A 5483   6.884  10.992   8.841 -0.1736  0.0576 -0.4633
  343loPI   C6A 5484   6.971  11.023   8.421  0.4521 -0.0090  0.0277
  343loPI   C1B 5485   7.098  11.337  10.293  0.0914  0.4878 -0.0998
  343loPI   C2B 5486   7.039  11.417   9.871 -0.1203 -0.1121 -0.4269
  343loPI   C3B 5487   7.074  11.415   9.423  0.0840  0.1113  0.0808
  343loPI   C4B 5488   7.083  11.484   9.029 -0.1861  0.2453 -0.0680
  344loPI    C1 5489  16.037   6.702  11.441 -0.1937 -0.0209 -0.1676
  344loPI    C2 5490  16.255   6.379  11.528 -0.2386  0.0106  0.0687
  344loPI    C3 5491  16.387   6.743  11.629 -0.0719  0.0910 -0.4148
  344loPI   PO4 5492  16.043   6.676  11.178 -0.0469 -0.5271 -0.1510
  344loPI   GL1 5493  16.013   6.986  10.893  0.0421 -0.2531  0.0642
  344loPI   GL2 5494  15.945   7.240  10.786  0.3775 -0.0630 -0.1899
  344loPI   C1A 5495  16.266   6.841  10.515 -0.2759 -0.1358  0.0525
  344loPI   C2A 5496  16.259   6.843  10.091 -0.0849 -0.0928 -0.1108
  344loPI   C3A 5497  16.260   6.947   9.745  0.0450  0.1302 -0.0394
  344loPI   C4A 5498  16.322   7.018   9.365  0.0954  0.0094  0.0988
  344loPI   C5A 5499  16.243   7.104   8.951 -0.2882 -0.1265 -0.2445
  344loPI   C6A 5500  16.043   7.295   8.558  0.0805 -0.3472 -0.0649
  344loPI   C1B 5501  15.920   7.366  10.428  0.1232  0.1608 -0.0829
  344loPI   C2B 5502  16.019   7.277  10.075 -0.0221 -0.4349  0.3009
  344loPI   C3B 5503  16.034   7.452   9.616  0.2056  0.0822 -0.1690
  344loPI   C4B 5504  16.050   7.483   9.189  0.0684 -0.1792 -0.0740
  345loPI    C1 5505   0.718   9.384  11.595  0.1199  0.2487 -0.1246
  345loPI    C2 5506   0.328   9.388  11.507  0.0947  0.0378 -0.0287
  345loPI    C3 5507   0.452   9.244  11.859  0.2693 -0.0163 -0.1114
  345loPI   PO4 5508   0.837   9.424  11.328 -0.1760  0.0436  0.0758
  345loPI   GL1 5509   0.792   9.550  10.951  0.3960 -0.1549  0.1100
  345loPI   GL2 5510   0.938   9.200  10.873 -0.0822 -0.0037 -0.1150
  345loPI   C1A 5511   0.749   9.642  10.526  0.0464 -0.2180 -0.1921
  345loPI   C2A 5512   0.806   9.652  10.216  0.1140 -0.0917 -0.1872
  345loPI   C3A 5513   0.921   9.619   9.786 -0.2568 -0.0940 -0.1083
  345loPI   C4A 5514   0.884   9.777   9.349  0.1121 -0.0289 -0.1568
  345loPI   C5A 5515   0.924   9.597   9.044 -0.1921 -0.2676 -0.0965
  345loPI   C6A 5516   0.843   9.739   8.629  0.0109 -0.0508 -0.0490
  345loPI   C1B 5517   0.999   9.245  10.495 -0.0597  0.0997  0.0744
  345loPI   C2B 5518   1.119   9.126  10.079  0.0731  0.2187 -0.2057
  345loPI   C3B 5519   1.208   9.235   9.619 -0.2029  0.1500 -0.2204
  345loPI   C4B 5520   1.106   9.141   9.252  0.1025  0.2125  0.1322
  346loPI    C1 5521   9.794   6.524  11.055 -0.1983  0.2205  0.0752
  346loPI    C2 5522   9.463   6.371  11.221  0.0112 -0.1263  0.1824
  346loPI    C3 5523   9.769   6.484  11.452  0.1569 -0.2598  0.0580
  346loPI   PO4 5524   9.762   6.484  10.767 -0.1010  0.1524 -0.0808
  346loPI   GL1 5525   9.646   6.328  10.370 -0.3081 -0.2502  0.0456
  346loPI   GL2 5526   9.348   6.490  10.231 -0.2032 -0.1908 -0.1928
  346loPI   C1A 5527   9.665   6.095   9.992  0.1667  0.1232  0.2344
  346loPI   C2A 5528   9.595   6.068   9.490 -0.3744  0.1620 -0.2239
  346loPI   C3A 5529  10.012   5.983   9.268 -0.3043  0.0809 -0.0133
  346loPI   C4A 5530  10.047   6.111   8.855 -0.1426 -0.5356  0.1451
  346loPI   C5A 5531  10.290   5.948   8.505  0.1762 -0.0215  0.4368
  346loPI   C6A 5532  10.189   5.898   8.029 -0.0008  0.1337  0.0029
  346loPI   C1B 5533   9.379   6.484   9.785 -0.3000  0.0857  0.1964
  346loPI   C2B 5534   9.324   6.521   9.404  0.0176 -0.2123  0.4793
  346loPI   C3B 5535   9.354   6.549   8.956  0.0687  0.0055 -0.0739
  346loPI   C4B 5536   9.377   6.628   8.624 -0.1626 -0.1089 -0.0585
  347loPI    C1 5537   9.734   0.668  11.068  0.0522  0.1624  0.0011
  347loPI    C2 5538   9.820   0.984  11.298  0.0825  0.0720  0.1149
  347loPI    C3 5539   9.936   0.618  11.410  0.2777  0.0507 -0.1457
  347loPI   PO4 5540   9.741   0.715  10.825 -0.2583  0.1574  0.0448
  347loPI   GL1 5541   9.744   0.646  10.415  0.4018  0.1996 -0.1412
  347loPI   GL2 5542   9.833   0.349  10.360  0.0222  0.1369 -0.2682
  347loPI   C1A 5543   9.643   0.640   9.985  0.0051 -0.0277  0.1376
  347loPI   C2A 5544   9.528   0.707   9.587  0.0880 -0.2054 -0.0418
  347loPI   C3A 5545   9.575   0.684   9.154  0.1757  0.1250 -0.1559
  347loPI   C4A 5546   9.815   0.742   8.798  0.0495  0.0216  0.0637
  347loPI   C5A 5547  10.109   0.696   8.430 -0.0380 -0.3390  0.1227
  347loPI   C6A 5548  10.269   0.894   8.240 -0.2431  0.2559 -0.1400
  347loPI   C1B 5549   9.799   0.142  10.035 -0.1626  0.0241 -0.2601
  347loPI   C2B 5550   9.919   0.304   9.546 -0.0074 -0.1888 -0.0641
  347loPI   C3B 5551  10.032   0.690   9.319  0.1050 -0.2294  0.3706
  347loPI   C4B 5552  10.393   0.839   9.424 -0.1374  0.1163  0.0449
  348loPI    C1 5553   2.509   2.996  11.551  0.0042  0.1263 -0.1961
  348loPI    C2 5554   2.204   2.738  11.586  0.0850  0.0316 -0.1847
  348loPI    C3 5555   2.194   3.088  11.780  0.0573 -0.0415 -0.0536
  348loPI   PO4 5556   2.514   2.975  11.265 -0.1224  0.0166  0.0950
  348loPI   GL1 5557   2.303   2.799  10.885 -0.1168  0.0517  0.2606
  348loPI   GL2 5558   2.765   2.726  10.865 -0.2559  0.2147 -0.2471
  348loPI   C1A 5559   2.158   2.733  10.438  0.0648  0.1437  0.0638
  348loPI   C2A 5560   2.185   2.737   9.977  0.2057 -0.2802  0.3631
  348loPI   C3A 5561   2.048   2.807   9.564  0.1820 -0.0792 -0.1417
  348loPI   C4A 5562   2.217   2.857   9.216  0.3975  0.4109 -0.2843
  348loPI   C5A 5563   2.191   2.884   8.803 -0.1666 -0.1098 -0.2777
  348loPI   C6A 5564   2.359   2.830   8.381 -0.5723  0.0128  0.0086
  348loPI   C1B 5565   2.651   2.758  10.437  0.0749  0.2730  0.2146
  348loPI   C2B 5566   2.695   2.865   9.995 -0.0439  0.4242 -0.0659
  348loPI   C3B 5567   2.656   2.871   9.560  0.0087  0.2736  0.0015
  348loPI   C4B 5568   2.705   2.859   9.111 -0.2106  0.1566 -0.0917
  349loPI    C1 5569   3.904  12.768  11.551 -0.0346  0.1117  0.0054
  349loPI    C2 5570   4.081  12.988  11.834 -0.0127  0.1032 -0.0017
  349loPI    C3 5571   3.686  12.927  11.846 -0.0485  0.3050 -0.1071
  349loPI   PO4 5572   4.076  12.814  11.333 -0.2776  0.0419 -0.0699
  349loPI   GL1 5573   4.006  12.871  10.899 -0.2490 -0.3656  0.1187
  349loPI   GL2 5574   4.325  12.979  10.926  0.3960  0.1585 -0.0579
  349loPI   C1A 5575   4.176  12.681  10.436 -0.0694 -0.1385  0.0610
  349loPI   C2A 5576   4.231  12.787  10.013  0.2680 -0.2519  0.1607
  349loPI   C3A 5577   4.202  12.811   9.626 -0.2192 -0.0771 -0.2134
  349loPI   C4A 5578   4.170  12.809   9.197  0.2003 -0.1084 -0.0760
  349loPI   C5A 5579   4.201  12.762   8.800 -0.0638  0.1364  0.0775
  349loPI   C6A 5580   4.232  12.550   8.406  0.0832 -0.0261 -0.0496
  349loPI   C1B 5581   4.140  13.238  10.609 -0.0290 -0.0654 -0.1037
  349loPI   C2B 5582   3.953  13.139  10.184  0.0958  0.0782  0.1895
  349loPI   C3B 5583   3.928  13.208   9.804  0.2273  0.0457 -0.3680
  349loPI   C4B 5584   3.882  13.163   9.396 -0.0698 -0.1398 -0.2309
  350loPI    C1 5585   9.133  14.165  11.429  0.1635 -0.2901  0.0246
  350loPI    C2 5586   9.518  14.056  11.441  0.1964 -0.1675  0.1014
  350loPI    C3 5587   9.398  14.387  11.632  0.0253 -0.2881  0.2054
  350loPI   PO4 5588   9.091  14.246  11.196 -0.0210  0.0308  0.1548
  350loPI   GL1 5589   9.124  14.511  10.850  0.1859  0.3119 -0.2414
  350loPI   GL2 5590   8.860  14.558  10.603 -0.2675  0.2374 -0.2330
  350loPI   C1A 5591   9.387  14.532  10.471  0.0640  0.2436 -0.0954
  350loPI   C2A 5592   9.406  14.531   9.975  0.0008  0.2617 -0.0874
  350loPI   C3A 5593   9.418  14.646   9.530  0.2395 -0.1268 -0.1219
  350loPI   C4A 5594   9.348  14.584   9.068  0.0485 -0.0675  0.0397
  350loPI   C5A 5595   9.328  14.807   8.665  0.1029  0.0483 -0.0090
  350loPI   C6A 5596   9.005  14.803   8.333  0.3666 -0.0114 -0.1426
  350loPI   C1B 5597   8.878  14.483  10.145  0.1670  0.1105  0.1783
  350loPI   C2B 5598   8.959  14.650   9.709 -0.1040  0.0315  0.1692
  350loPI   C3B 5599   8.901  14.659   9.263 -0.1303  0.3232  0.1423
  350loPI   C4B 5600   8.854  14.669   8.798 -0.1160  0.4361 -0.1209
  351loPI    C1 5601  15.636   0.076  11.320  0.0098  0.2052  0.0199
  351loPI    C2 5602  15.302   0.048  11.538  0.0875  0.0048  0.1155
  351loPI    C3 5603  15.659  -0.011  11.709  0.1447 -0.2304 -0.0802
  351loPI   PO4 5604  15.546  -0.038  11.067 -0.1526 -0.0145 -0.0378
  351loPI   GL1 5605  15.519   0.249  10.617 -0.0113  0.0563 -0.2425
  351loPI   GL2 5606  15.224   0.004  10.646  0.0906 -0.5959  0.1900
  351loPI   C1A 5607  15.435   0.236  10.186 -0.1392 -0.1004 -0.1115
  351loPI   C2A 5608  15.531   0.229   9.746 -0.1732  0.0672  0.1697
  351loPI   C3A 5609  15.501   0.237   9.350  0.0683  0.0489 -0.2041
  351loPI   C4A 5610  15.461   0.167   9.011 -0.6642  0.1142 -0.2086
  351loPI   C5A 5611  15.480   0.070   8.517  0.1877  0.0263  0.2186
  351loPI   C6A 5612  15.756   0.210   8.072 -0.0979 -0.0187  0.1425
  351loPI   C1B 5613  15.182  -0.231  10.169 -0.1516 -0.4073  0.5199
  351loPI   C2B 5614  15.266  -0.215   9.824  0.0353 -0.0201 -0.0584
  351loPI   C3B 5615  15.236  -0.300   9.371 -0.0442 -0.0602 -0.2932
  351loPI   C4B 5616  15.210  -0.263   8.966  0.0811  0.0388  0.1613
  352loPI    C1 5617   6.005   4.863  11.463  0.4748  0.1426 -0.0546
  352loPI    C2 5618   5.908   4.800  11.846  0.3141 -0.1443 -0.1394
  352loPI    C3 5619   6.023   5.164  11.726  0.0611  0.0245  0.1172
  352loPI   PO4 5620   6.058   4.692  11.331  0.2012  0.0462 -0.0655
  352loPI   GL1 5621   5.942   4.798  10.888 -0.1101  0.0468 -0.0542
  352loPI   GL2 5622   6.068   4.968  10.830  0.6256  0.0865 -0.1715
  352loPI   C1A 5623   5.828   4.600  10.458  0.0544 -0.0170 -0.0085
  352loPI   C2A 5624   5.749   4.633  10.062  0.0270  0.1261 -0.2424
  352loPI   C3A 5625   5.752   4.742   9.617 -0.3413  0.2252  0.1681
  352loPI   C4A 5626   5.803   4.650   9.200 -0.1608 -0.1467  0.0222
  352loPI   C5A 5627   6.056   4.641   8.790  0.1867  0.1577  0.2012
  352loPI   C6A 5628   6.214   4.675   8.300  0.0520  0.1164  0.1440
  352loPI   C1B 5629   5.972   5.069  10.385 -0.1736 -0.0825  0.1105
  352loPI   C2B 5630   6.018   5.102   9.908 -0.1319 -0.0871  0.0567
  352loPI   C3B 5631   6.019   5.143   9.442  0.3307  0.0261 -0.0682
  352loPI   C4B 5632   6.055   5.034   9.056 -0.2337  0.0455  0.1042
  353loPI    C1 5633   8.099   6.102  11.484 -0.0102  0.0852 -0.1615
  353loPI    C2 5634   8.313   6.321  11.741 -0.0301  0.0182 -0.0874
  353loPI    C3 5635   8.310   5.922  11.773 -0.2817  0.0253  0.0029
  353loPI   PO4 5636   8.159   6.236  11.254 -0.2844  0.0534 -0.1930
  353loPI   GL1 5637   8.027   6.280  10.864  0.1770 -0.1882 -0.1144
  353loPI   GL2 5638   7.841   6.448  10.641  0.0388 -0.1295 -0.0129
  353loPI   C1A 5639   8.201   6.040  10.478 -0.0159  0.0548 -0.0375
  353loPI   C2A 5640   8.024   5.988  10.039 -0.2043 -0.1967 -0.0516
  353loPI   C3A 5641   8.034   5.996   9.631  0.1591  0.0678  0.2569
  353loPI   C4A 5642   8.108   6.061   9.170  0.3551  0.2717  0.0045
  353loPI   C5A 5643   8.036   6.090   8.770 -0.1604 -0.0112 -0.0817
  353loPI   C6A 5644   7.811   6.339   8.550  0.4268 -0.0514  0.1495
  353loPI   C1B 5645   7.861   6.379  10.255 -0.1117 -0.1178 -0.3056
  353loPI   C2B 5646   7.881   6.500   9.904 -0.1170  0.1208 -0.0598
  353loPI   C3B 5647   7.803   6.484   9.475  0.2825  0.0875 -0.0708
  353loPI   C4B 5648   7.847   6.488   9.021  0.2304  0.1070 -0.2602
  354loPI    C1 5649   7.999   6.758  11.401 -0.0327  0.3530 -0.0022
  354loPI    C2 5650   7.670   6.956  11.289 -0.1177  0.2347  0.0358
  354loPI    C3 5651   7.849   7.046  11.635 -0.0636  0.3534 -0.0225
  354loPI   PO4 5652   8.109   6.774  11.152 -0.2728 -0.0594 -0.1841
  354loPI   GL1 5653   8.252   6.885  10.691  0.0773 -0.1636  0.0269
  354loPI   GL2 5654   8.324   6.592  10.478 -0.0428 -0.2340  0.1231
  354loPI   C1A 5655   8.125   6.993  10.224  0.0835  0.0740 -0.0327
  354loPI   C2A 5656   8.108   6.889   9.767  0.1354 -0.0278 -0.1348
  354loPI   C3A 5657   8.065   6.881   9.320 -0.0080 -0.0579 -0.1113
  354loPI   C4A 5658   8.073   6.931   8.925 -0.1110  0.0802  0.1903
  354loPI   C5A 5659   7.907   6.832   8.550 -0.0318 -0.2183 -0.0775
  354loPI   C6A 5660   8.100   6.604   8.209  0.2735 -0.1740  0.2190
  354loPI   C1B 5661   8.381   6.406   9.993  0.0709  0.1867  0.0303
  354loPI   C2B 5662   8.365   6.453   9.512  0.0414  0.0984  0.2543
  354loPI   C3B 5663   8.332   6.518   9.054 -0.2672 -0.1843  0.0278
  354loPI   C4B 5664   8.358   6.540   8.597  0.1879  0.1627 -0.0995
  355loPI    C1 5665  12.500   6.111  10.829  0.0874  0.1739  0.0123
  355loPI    C2 5666  12.610   5.910  11.156 -0.0356 -0.0596 -0.0877
  355loPI    C3 5667  12.270   6.120  11.156 -0.0465 -0.0773 -0.0725
  355loPI   PO4 5668  12.675   5.969  10.652  0.3015  0.0585  0.2933
  355loPI   GL1 5669  12.958   6.070  10.298  0.0090 -0.2630  0.1224
  355loPI   GL2 5670  13.369   6.188  10.292 -0.0847 -0.4531  0.0746
  355loPI   C1A 5671  12.992   6.213   9.882  0.3491  0.1073 -0.1601
  355loPI   C2A 5672  12.932   6.433   9.524  0.0857 -0.1224 -0.2086
  355loPI   C3A 5673  12.667   6.723   9.449  0.0974  0.0049 -0.2652
  355loPI   C4A 5674  12.652   6.972   9.226 -0.0518 -0.3946 -0.2886
  355loPI   C5A 5675  12.562   6.954   8.786  0.3887  0.1414  0.2528
  355loPI   C6A 5676  12.807   7.163   8.486  0.3591 -0.3022  0.1591
  355loPI   C1B 5677  13.654   6.067  10.037  0.1970 -0.0464 -0.2332
  355loPI   C2B 5678  13.826   5.793   9.832  0.2227  0.3363  0.4326
  355loPI   C3B 5679  13.810   5.537   9.420  0.1210  0.2693 -0.2230
  355loPI   C4B 5680  13.956   5.529   8.941  0.1140 -0.2191  0.1522
  356loPI    C1 5681   3.981  10.971  11.430  0.0617 -0.1791  0.0558
  356loPI    C2 5682   3.737  10.775  11.181  0.0002  0.1782 -0.1710
  356loPI    C3 5683   3.774  10.653  11.560  0.0044 -0.2995 -0.3185
  356loPI   PO4 5684   3.937  11.251  11.305 -0.1720  0.1217  0.2186
  356loPI   GL1 5685   4.165  11.281  10.857  0.1127 -0.3336  0.1278
  356loPI   GL2 5686   3.826  11.146  10.838  0.1349 -0.1931  0.2661
  356loPI   C1A 5687   3.966  11.336  10.360 -0.3164 -0.2657  0.2350
  356loPI   C2A 5688   3.893  11.356   9.929  0.3147 -0.3263  0.2090
  356loPI   C3A 5689   3.969  11.463   9.598  0.1402  0.3633  0.0367
  356loPI   C4A 5690   3.981  11.423   9.203 -0.0427  0.0271  0.2312
  356loPI   C5A 5691   3.981  11.608   8.784  0.0551  0.1436  0.1130
  356loPI   C6A 5692   3.871  11.674   8.414 -0.0905  0.2567  0.0583
  356loPI   C1B 5693   3.658  10.951  10.400  0.1499 -0.3019  0.1846
  356loPI   C2B 5694   3.712  10.920   9.856 -0.2718 -0.0336  0.1346
  356loPI   C3B 5695   3.700  11.067   9.465  0.1236 -0.0173  0.0707
  356loPI   C4B 5696   3.798  11.031   8.939  0.2301  0.0886 -0.4324
  357loPI    C1 5697   7.480  16.130  11.493  0.3735  0.0031 -0.3335
  357loPI    C2 5698   7.350  15.804  11.684 -0.1530  0.4973  0.1907
  357loPI    C3 5699   7.718  15.944  11.755  0.1066 -0.0099 -0.0965
  357loPI   PO4 5700   7.500  16.066  11.151  0.0778 -0.0831  0.5091
  357loPI   GL1 5701   7.342  16.204  10.680  0.0032 -0.0552 -0.0393
  357loPI   GL2 5702   7.409  16.459  10.548 -0.1600  0.1594 -0.0836
  357loPI   C1A 5703   6.973  16.290  10.448  0.0449  0.0287  0.0433
  357loPI   C2A 5704   6.885  16.299   9.999  0.0112 -0.2550  0.0228
  357loPI   C3A 5705   6.827  16.338   9.514  0.1210  0.0468 -0.3579
  357loPI   C4A 5706   6.829  16.328   9.124 -0.2618 -0.3149 -0.0221
  357loPI   C5A 5707   6.927  16.093   8.756 -0.3926 -0.0760  0.1190
  357loPI   C6A 5708   7.220  15.877   8.631 -0.2269  0.0345  0.1675
  357loPI   C1B 5709   7.367  16.366  10.137  0.3971  0.1086  0.2177
  357loPI   C2B 5710   7.320  16.387   9.742  0.3335  0.0503  0.0221
  357loPI   C3B 5711   7.336  16.376   9.321  0.1687 -0.1131  0.3027
  357loPI   C4B 5712   7.406  16.390   8.870  0.3279  0.2818  0.1262
  358loPI    C1 5713   3.833   8.556  11.601 -0.1167  0.0292  0.0609
  358loPI    C2 5714   3.727   8.326  11.911  0.1507 -0.0353  0.1072
  358loPI    C3 5715   3.919   8.671  11.974  0.0394  0.0433  0.0213
  358loPI   PO4 5716   3.921   8.348  11.334  0.3011  0.0013 -0.2029
  358loPI   GL1 5717   3.993   8.412  10.982  0.0898 -0.2945  0.0828
  358loPI   GL2 5718   4.206   8.633  10.871 -0.2536  0.1837 -0.2925
  358loPI   C1A 5719   3.778   8.201  10.674  0.1618 -0.2044  0.1191
  358loPI   C2A 5720   3.675   8.269  10.249 -0.1396 -0.0961 -0.3594
  358loPI   C3A 5721   3.688   8.269   9.869 -0.1247 -0.0911 -0.1570
  358loPI   C4A 5722   3.715   8.239   9.473 -0.3290  0.1340  0.0160
  358loPI   C5A 5723   3.703   8.253   9.037 -0.0276  0.0773 -0.0539
  358loPI   C6A 5724   3.588   8.299   8.520 -0.1325  0.2037 -0.2065
  358loPI   C1B 5725   4.064   8.598  10.414  0.1894  0.0768  0.0935
  358loPI   C2B 5726   3.909   8.718  10.017 -0.0262  0.0821 -0.1387
  358loPI   C3B 5727   3.999   8.710   9.549 -0.0433  0.2579  0.0896
  358loPI   C4B 5728   3.950   8.655   9.179  0.1992  0.1579  0.1673
  359loPI    C1 5729  12.200   0.378  11.268  0.1602  0.0036 -0.2048
  359loPI    C2 5730  12.320   0.728  11.421 -0.1694  0.0299  0.0045
  359loPI    C3 5731  12.390   0.388  11.620  0.0628 -0.0168 -0.1516
  359loPI   PO4 5732  12.190   0.479  10.977  0.1409 -0.2962  0.0740
  359loPI   GL1 5733  12.149   0.482  10.494  0.0267  0.1282 -0.1863
  359loPI   GL2 5734  12.397   0.433  10.534 -0.1156 -0.1239  0.0019
  359loPI   C1A 5735  12.096   0.277  10.042 -0.1402 -0.2490 -0.0934
  359loPI   C2A 5736  12.418   0.167   9.727  0.0251 -0.0248  0.0275
  359loPI   C3A 5737  12.431   0.049   9.374  0.0074  0.0206  0.1185
  359loPI   C4A 5738  12.430   0.128   9.044  0.0641  0.2154  0.2151
  359loPI   C5A 5739  12.301   0.192   8.620  0.1818  0.1459 -0.2344
  359loPI   C6A 5740  12.163   0.208   8.246 -0.2207  0.1537  0.0024
  359loPI   C1B 5741  12.542   0.472  10.166  0.1760 -0.0338  0.0742
  359loPI   C2B 5742  12.740   0.660   9.765  0.0428  0.0682  0.3171
  359loPI   C3B 5743  12.634   0.518   9.294 -0.0663  0.0943 -0.0551
  359loPI   C4B 5744  12.573   0.669   8.903 -0.0746  0.1331 -0.4141
  360loPI    C1 5745  16.707  12.768  11.613  0.1758 -0.2471 -0.2164
  360loPI    C2 5746  16.412  12.607  11.831  0.1932  0.0287  0.0167
  360loPI    C3 5747  16.787  12.472  11.869  0.1504 -0.1115 -0.0505
  360loPI   PO4 5748  16.584  12.798  11.321  0.0066  0.3020  0.0479
  360loPI   GL1 5749  16.659  12.816  10.901  0.3177 -0.2903  0.1165
  360loPI   GL2 5750  16.296  12.788  10.875 -0.0364 -0.3668  0.1668
  360loPI   C1A 5751  16.952  12.735  10.508 -0.3162  0.2345 -0.2294
  360loPI   C2A 5752  17.126  12.747  10.188 -0.0623  0.2036 -0.1385
  360loPI   C3A 5753  17.042  12.785   9.723  0.0855  0.5088  0.3116
  360loPI   C4A 5754  16.994  12.724   9.352  0.3150  0.1703 -0.0353
  360loPI   C5A 5755  17.043  12.769   8.892  0.0490  0.0006 -0.2408
  360loPI   C6A 5756  17.432  12.783   8.759 -0.0469 -0.0762  0.1213
  360loPI   C1B 5757  16.456  12.812  10.433 -0.0507  0.0577 -0.1390
  360loPI   C2B 5758  16.550  12.735   9.972  0.2422  0.1213  0.3747
  360loPI   C3B 5759  16.550  12.766   9.509 -0.0390  0.0063 -0.0608
  360loPI   C4B 5760  16.586  12.733   9.054  0.1836 -0.2081  0.0991
  361loPI    C1 5761   3.697  16.313  11.270 -0.1013 -0.1041 -0.0309
  361loPI    C2 5762   3.375  16.215  11.486 -0.1514  0.0150 -0.0507
  361loPI    C3 5763   3.647  16.467  11.636 -0.1049 -0.0274 -0.0634
  361loPI   PO4 5764   3.657  16.346  11.070  0.1922  0.0665 -0.0374
  361loPI   GL1 5765   3.348  16.389  10.784  0.0555 -0.1160 -0.2673
  361loPI   GL2 5766   3.483  16.638  10.576 -0.0524  0.1316  0.0822
  361loPI   C1A 5767   3.224  16.265  10.443  0.2004 -0.2674  0.0417
  361loPI   C2A 5768   3.247  16.385   9.942 -0.1511  0.2574  0.3482
  361loPI   C3A 5769   3.166  16.348   9.629  0.0768  0.1404  0.2928
  361loPI   C4A 5770   3.134  16.360   9.198 -0.2480 -0.2656  0.2450
  361loPI   C5A 5771   3.220  16.372   8.781  0.1930 -0.0454  0.1831
  361loPI   C6A 5772   3.538  16.409   8.494  0.2072  0.0521 -0.0049
  361loPI   C1B 5773   3.497  16.750  10.092 -0.2622  0.1438 -0.2775
  361loPI   C2B 5774   3.456  16.827   9.662 -0.0215 -0.0534 -0.1375
  361loPI   C3B 5775   3.333  16.822   9.339  0.1728  0.0526 -0.2762
  361loPI   C4B 5776   3.444  16.817   8.917  0.1123 -0.0987 -0.0213
  362loPI    C1 5777  13.379  13.292  11.591  0.1292 -0.1302  0.4900
  362loPI    C2 5778  13.382  12.923  11.745  0.0214 -0.1393  0.4712
  362loPI    C3 5779  13.094  13.181  11.849 -0.2445 -0.2523  0.0383
  362loPI   PO4 5780  13.350  13.367  11.374 -0.0759  0.1007  0.1663
  362loPI   GL1 5781  13.137  13.272  10.953 -0.1207  0.1172  0.2908
  362loPI   GL2 5782  13.325  13.322  10.702 -0.1858  0.0494  0.1062
  362loPI   C1A 5783  12.960  13.590  10.563  0.3236  0.3159 -0.1626
  362loPI   C2A 5784  12.963  13.735  10.088  0.2008  0.2004  0.0580
  362loPI   C3A 5785  13.042  13.662   9.535  0.2200 -0.4154  0.0821
  362loPI   C4A 5786  12.953  13.626   9.135  0.0649  0.2363 -0.5152
  362loPI   C5A 5787  12.945  13.695   8.709  0.1274  0.0876  0.1269
  362loPI   C6A 5788  13.075  13.597   8.365  0.5427 -0.0025  0.1713
  362loPI   C1B 5789  13.208  13.322  10.207 -0.1282  0.0414  0.2142
  362loPI   C2B 5790  13.230  13.286   9.847  0.0935 -0.1608  0.2858
  362loPI   C3B 5791  13.245  13.211   9.540  0.0896 -0.1100  0.3700
  362loPI   C4B 5792  13.258  13.230   9.150 -0.0306  0.1759  0.0698
  363loPI    C1 5793  10.877   7.032  11.437  0.0319 -0.0117 -0.1638
  363loPI    C2 5794  10.573   6.989  11.693  0.1822  0.0205  0.0221
  363loPI    C3 5795  10.944   7.048  11.831  0.2511  0.1297 -0.2050
  363loPI   PO4 5796  10.830   7.292  11.204 -0.2169  0.0570  0.2766
  363loPI   GL1 5797  11.005   7.416  10.831 -0.1181  0.3389 -0.3717
  363loPI   GL2 5798  10.713   7.316  10.584  0.0811  0.2893  0.1656
  363loPI   C1A 5799  11.184   7.711  10.580  0.3028  0.2482 -0.0166
  363loPI   C2A 5800  11.227   7.790  10.171  0.2700  0.3539  0.1244
  363loPI   C3A 5801  11.252   7.889   9.872 -0.1546 -0.0440  0.0131
  363loPI   C4A 5802  11.140   7.904   9.379  0.1772 -0.2656 -0.0925
  363loPI   C5A 5803  11.204   7.670   8.952 -0.4456 -0.0418  0.1581
  363loPI   C6A 5804  11.363   7.295   8.743  0.0814 -0.1690  0.0073
  363loPI   C1B 5805  10.498   7.368  10.249 -0.2027 -0.0339 -0.2273
  363loPI   C2B 5806  10.463   7.351   9.792  0.0252 -0.0416  0.0269
  363loPI   C3B 5807  10.371   7.305   9.414  0.0098  0.2339  0.1139
  363loPI   C4B 5808  10.376   7.495   8.942  0.1695  0.0645  0.0268
  364loPI    C1 5809   8.921  10.334  11.778  0.0017 -0.1392 -0.0993
  364loPI    C2 5810   8.733  10.561  12.049  0.2527 -0.0188 -0.0228
  364loPI    C3 5811   8.733  10.162  12.086  0.0949 -0.0147  0.0282
  364loPI   PO4 5812   8.916  10.489  11.493  0.1371 -0.0768 -0.3171
  364loPI   GL1 5813   8.826  10.283  11.054 -0.0795 -0.1814 -0.0094
  364loPI   GL2 5814   9.140  10.491  11.025  0.1115 -0.1342 -0.2966
  364loPI   C1A 5815   8.641  10.387  10.667  0.1698 -0.0618  0.1314
  364loPI   C2A 5816   8.654  10.431  10.209  0.1439 -0.0171  0.2800
  364loPI   C3A 5817   8.504  10.451   9.810 -0.1662 -0.0807  0.1266
  364loPI   C4A 5818   8.585  10.520   9.372  0.0506  0.2872 -0.2526
  364loPI   C5A 5819   8.808  10.513   9.024  0.0212 -0.0560 -0.2574
  364loPI   C6A 5820   8.844  10.929   8.861  0.0260 -0.0797  0.3053
  364loPI   C1B 5821   9.173  10.410  10.588 -0.0270 -0.1438 -0.0657
  364loPI   C2B 5822   9.157  10.532  10.161  0.1168  0.0183  0.0211
  364loPI   C3B 5823   9.080  10.473   9.761 -0.1048 -0.2270 -0.0666
  364loPI   C4B 5824   9.124  10.509   9.371 -0.1183  0.3008 -0.1291
  365loPI    C1 5825  11.991   8.016  11.393 -0.1719 -0.2873 -0.0074
  365loPI    C2 5826  11.734   8.231  11.612  0.1029  0.0409  0.0004
  365loPI    C3 5827  12.104   8.162  11.748  0.2272  0.1185 -0.2902
  365loPI   PO4 5828  11.907   8.038  11.245 -0.0348 -0.5725 -0.0630
  365loPI   GL1 5829  11.909   8.026  10.757 -0.0317 -0.1563  0.1742
  365loPI   GL2 5830  12.026   8.363  10.755 -0.1861  0.1302  0.1355
  365loPI   C1A 5831  11.704   7.839  10.452 -0.0322 -0.0989 -0.1008
  365loPI   C2A 5832  11.752   7.877  10.022 -0.0499  0.1245 -0.2961
  365loPI   C3A 5833  11.667   7.823   9.591 -0.1302 -0.2601  0.1001
  365loPI   C4A 5834  11.644   7.893   9.220 -0.0199 -0.1220 -0.2362
  365loPI   C5A 5835  11.651   7.938   8.800  0.0404  0.0352  0.0396
  365loPI   C6A 5836  11.609   7.554   8.453 -0.1851 -0.3136 -0.5062
  365loPI   C1B 5837  11.986   8.275  10.295 -0.2147 -0.3506 -0.3025
  365loPI   C2B 5838  11.970   8.318   9.873 -0.0889  0.2527 -0.2027
  365loPI   C3B 5839  11.845   8.321   9.412 -0.3609 -0.0007 -0.0035
  365loPI   C4B 5840  11.964   8.362   9.013  0.1003 -0.0994  0.3166
  366loPI    C1 5841   8.891   1.921  10.699  0.0149  0.0417 -0.0741
  366loPI    C2 5842   9.208   1.932  10.944  0.1064 -0.2592 -0.1740
  366loPI    C3 5843   8.906   2.191  10.994  0.2870 -0.0845  0.0308
  366loPI   PO4 5844   8.990   1.924  10.456 -0.0182  0.1909  0.0318
  366loPI   GL1 5845   9.014   1.562  10.228 -0.3486 -0.0060 -0.1743
  366loPI   GL2 5846   8.654   1.690  10.166  0.0709  0.1147 -0.0234
  366loPI   C1A 5847   8.872   1.389   9.802 -0.0716 -0.1734 -0.0674
  366loPI   C2A 5848   8.887   1.067   9.513  0.0916 -0.2850 -0.0227
  366loPI   C3A 5849   8.935   1.245   9.065  0.1523 -0.0582  0.1050
  366loPI   C4A 5850   9.262   1.486   8.882  0.1341 -0.1394  0.1254
  366loPI   C5A 5851   9.217   1.857   8.580 -0.3837  0.1729 -0.0615
  366loPI   C6A 5852   9.147   2.216   8.339 -0.4050  0.1516  0.1915
  366loPI   C1B 5853   8.826   1.838   9.745 -0.2622 -0.1133 -0.1966
  366loPI   C2B 5854   8.782   1.972   9.437  0.0073 -0.2536  0.0963
  366loPI   C3B 5855   8.986   1.985   9.046 -0.0359 -0.0527 -0.0521
  366loPI   C4B 5856   8.787   2.122   8.633  0.0480 -0.3190  0.1375
  367loPI    C1 5857  16.826   6.927  11.452 -0.1605 -0.2107  0.4153
  367loPI    C2 5858  17.030   7.242  11.592 -0.1393 -0.0885  0.1162
  367loPI    C3 5859  16.634   7.219  11.647 -0.1758  0.1023 -0.0524
  367loPI   PO4 5860  16.913   6.978  11.164  0.2080  0.0818 -0.1123
  367loPI   GL1 5861  16.661   7.071  10.811 -0.2468 -0.1032  0.3029
  367loPI   GL2 5862  16.452   7.308  10.797 -0.1499 -0.1361  0.4054
  367loPI   C1A 5863  16.814   6.919  10.379 -0.0608  0.2801  0.2693
  367loPI   C2A 5864  16.806   6.952   9.986 -0.4403  0.0296  0.1906
  367loPI   C3A 5865  16.809   6.944   9.515  0.0906 -0.2911 -0.1236
  367loPI   C4A 5866  16.748   7.071   9.039  0.1510  0.1085  0.0933
  367loPI   C5A 5867  16.584   7.398   8.762 -0.1397  0.2662  0.0845
  367loPI   C6A 5868  16.507   7.429   8.319 -0.0622  0.1327  0.2055
  367loPI   C1B 5869  16.496   7.436  10.359  0.2333  0.1130  0.2978
  367loPI   C2B 5870  16.517   7.332  10.039  0.0852 -0.0242  0.2146
  367loPI   C3B 5871  16.562   7.406   9.663  0.2020 -0.3226  0.1175
  367loPI   C4B 5872  16.515   7.443   9.281  0.3385 -0.1828  0.1893
  368loPI    C1 5873  12.175   6.485  10.812 -0.2398 -0.0003  0.1664
  368loPI    C2 5874  11.991   6.624  11.139 -0.0630  0.3305  0.1295
  368loPI    C3 5875  12.380   6.698  11.081  0.0426 -0.1967  0.1116
  368loPI   PO4 5876  12.081   6.542  10.632  0.0732  0.0360  0.2817
  368loPI   GL1 5877  12.055   6.372  10.121  0.2072  0.1291 -0.2647
  368loPI   GL2 5878  11.904   6.152  10.027 -0.1041  0.0163 -0.0038
  368loPI   C1A 5879  11.763   6.627   9.855  0.2582 -0.1442  0.2403
  368loPI   C2A 5880  11.765   7.031   9.684 -0.4844 -0.0069  0.0942
  368loPI   C3A 5881  11.978   7.396   9.485 -0.1490  0.0870  0.0414
  368loPI   C4A 5882  12.310   7.368   9.210 -0.1028  0.0775 -0.0298
  368loPI   C5A 5883  12.403   7.506   8.764 -0.0830  0.2414 -0.4063
  368loPI   C6A 5884  12.596   7.535   8.184 -0.0309  0.0217  0.1009
  368loPI   C1B 5885  11.786   6.223   9.602 -0.1358  0.1031 -0.1925
  368loPI   C2B 5886  11.613   6.101   9.308 -0.4053 -0.0478  0.3076
  368loPI   C3B 5887  11.568   5.666   9.128 -0.3263 -0.2552  0.2185
  368loPI   C4B 5888  11.556   5.185   9.184  0.2354 -0.2662  0.0804
  369loPI    C1 5889  16.649   7.960  11.295  0.0424  0.0258 -0.0939
  369loPI    C2 5890  16.941   8.086  11.537  0.0909  0.0355 -0.1569
  369loPI    C3 5891  16.782   7.723  11.588  0.0816  0.0483 -0.0933
  369loPI   PO4 5892  16.684   8.140  11.089  0.0928 -0.1809 -0.0451
  369loPI   GL1 5893  16.856   8.269  10.794 -0.2265 -0.0056 -0.3099
  369loPI   GL2 5894  16.497   8.334  10.641 -0.1593 -0.0384 -0.0593
  369loPI   C1A 5895  17.044   8.302  10.380  0.3800 -0.3507 -0.1644
  369loPI   C2A 5896  17.134   8.180   9.957 -0.4256 -0.0929 -0.1313
  369loPI   C3A 5897  17.101   8.279   9.556  0.1200 -0.2035  0.0591
  369loPI   C4A 5898  17.011   8.216   9.143 -0.0532  0.2197  0.3055
  369loPI   C5A 5899  16.969   8.141   8.733  0.1118  0.1043 -0.0694
  369loPI   C6A 5900  16.904   8.177   8.254  0.2217  0.0679 -0.0695
  369loPI   C1B 5901  16.505   8.245  10.125  0.0448 -0.1409  0.1856
  369loPI   C2B 5902  16.582   8.215   9.702  0.2779  0.1839 -0.0118
  369loPI   C3B 5903  16.503   8.300   9.251 -0.1729  0.2382  0.1728
  369loPI   C4B 5904  16.495   8.303   8.872 -0.3272 -0.3283 -0.0258
  370loPI    C1 5905   4.139   3.559  11.769  0.3762  0.1936  0.0287
  370loPI    C2 5906   3.816   3.533  12.003  0.2898 -0.0234 -0.1120
  370loPI    C3 5907   4.150   3.703  12.142  0.1966 -0.0281  0.1219
  370loPI   PO4 5908   4.145   3.716  11.494  0.0573 -0.2605 -0.1887
  370loPI   GL1 5909   4.151   3.699  11.094 -0.3243 -0.0838 -0.1367
  370loPI   GL2 5910   4.027   3.366  10.972  0.0723 -0.2430 -0.1590
  370loPI   C1A 5911   4.237   3.792  10.702 -0.1044 -0.4519 -0.1018
  370loPI   C2A 5912   4.300   3.771  10.193  0.1927  0.0287  0.0803
  370loPI   C3A 5913   4.257   3.739   9.779  0.2208  0.3194 -0.1090
  370loPI   C4A 5914   4.234   3.789   9.239 -0.0239  0.1962  0.0578
  370loPI   C5A 5915   4.272   3.573   8.856  0.0352 -0.1160 -0.0944
  370loPI   C6A 5916   3.943   3.306   8.669 -0.0041 -0.2743 -0.0558
  370loPI   C1B 5917   4.059   3.345  10.537 -0.0414  0.4049 -0.0723
  370loPI   C2B 5918   4.009   3.333  10.090 -0.0099  0.3620  0.0568
  370loPI   C3B 5919   4.060   3.320   9.645 -0.1596 -0.0932 -0.0193
  370loPI   C4B 5920   3.979   3.270   9.207 -0.0466 -0.0728  0.1227
  371loPI    C1 5921   5.242  13.885  11.340 -0.0192  0.0896  0.1428
  371loPI    C2 5922   4.909  13.679  11.425  0.0472 -0.1189 -0.0905
  371loPI    C3 5923   5.121  13.848  11.720  0.0141 -0.4206  0.1111
  371loPI   PO4 5924   5.252  13.879  11.080 -0.4305 -0.2999  0.0945
  371loPI   GL1 5925   5.401  14.078  10.812 -0.2084  0.3269 -0.2991
  371loPI   GL2 5926   5.099  14.249  10.829 -0.1019 -0.0433  0.1747
  371loPI   C1A 5927   5.570  14.040  10.409  0.1424  0.1868  0.2787
  371loPI   C2A 5928   5.485  14.140   9.929  0.1210  0.0896 -0.1123
  371loPI   C3A 5929   5.570  14.131   9.431 -0.0055 -0.1464 -0.1210
  371loPI   C4A 5930   5.482  14.087   8.941  0.1627 -0.0413 -0.5110
  371loPI   C5A 5931   5.738  14.143   8.538  0.1015  0.1881 -0.3406
  371loPI   C6A 5932   6.082  14.032   8.322  0.0680 -0.1518  0.0986
  371loPI   C1B 5933   5.030  14.147  10.345  0.3218 -0.1967  0.1616
  371loPI   C2B 5934   5.014  14.162   9.901 -0.0466 -0.2380  0.2524
  371loPI   C3B 5935   5.045  14.191   9.468 -0.0045  0.0077  0.1255
  371loPI   C4B 5936   5.035  14.197   9.106 -0.0746 -0.0335  0.0728
  372loPI    C1 5937  15.480   4.997  11.285 -0.0598 -0.0163  0.0762
  372loPI    C2 5938  15.749   4.962  10.991 -0.2727  0.2162 -0.1521
  372loPI    C3 5939  15.804   5.231  11.282  0.0784 -0.2035  0.1848
  372loPI   PO4 5940  15.213   5.001  11.183 -0.1189 -0.0659 -0.1241
  372loPI   GL1 5941  15.271   4.820  10.840 -0.0085  0.0012 -0.0093
  372loPI   GL2 5942  15.413   4.544  10.664 -0.0133 -0.0013 -0.2289
  372loPI   C1A 5943  15.201   5.022  10.447 -0.0531  0.2982  0.2473
  372loPI   C2A 5944  15.218   5.085  10.073  0.0560  0.3130  0.1487
  372loPI   C3A 5945  15.253   5.156   9.692 -0.0569 -0.2410 -0.1002
  372loPI   C4A 5946  15.182   5.222   9.324 -0.2861  0.0416  0.0228
  372loPI   C5A 5947  15.156   5.194   8.859  0.1650 -0.3125 -0.0358
  372loPI   C6A 5948  15.434   5.087   8.392  0.3319 -0.1184 -0.1504
  372loPI   C1B 5949  15.541   4.587  10.261 -0.0046 -0.0014  0.0525
  372loPI   C2B 5950  15.478   4.687   9.787  0.0930  0.1082  0.0666
  372loPI   C3B 5951  15.502   4.738   9.338  0.0551  0.1043  0.1857
  372loPI   C4B 5952  15.487   4.781   8.883 -0.2173 -0.1298 -0.1337
  373loPI    C1 5953   3.649   3.628  11.472  0.0439  0.0558 -0.0605
  373loPI    C2 5954   3.856   3.286  11.486  0.1783  0.1423  0.0865
  373loPI    C3 5955   3.506   3.316  11.677  0.1658  0.0867  0.0727
  373loPI   PO4 5956   3.581   3.674  11.225 -0.3244  0.1040  0.2619
  373loPI   GL1 5957   3.683   3.630  10.756  0.1579 -0.0514  0.1053
  373loPI   GL2 5958   3.601   3.312  10.652  0.0939 -0.1117  0.0905
  373loPI   C1A 5959   3.800   3.794  10.402 -0.0434 -0.0094 -0.0692
  373loPI   C2A 5960   3.765   3.800   9.999 -0.1007  0.1005 -0.2523
  373loPI   C3A 5961   3.735   3.733   9.528 -0.1138 -0.4020  0.0402
  373loPI   C4A 5962   3.659   3.786   9.134  0.0514  0.2626  0.1286
  373loPI   C5A 5963   3.855   3.858   8.687  0.1417  0.4175 -0.0631
  373loPI   C6A 5964   4.071   3.742   8.293  0.2888  0.0214 -0.1390
  373loPI   C1B 5965   3.528   3.358  10.245 -0.0065 -0.1419 -0.1586
  373loPI   C2B 5966   3.555   3.387   9.832 -0.0059  0.0186  0.0774
  373loPI   C3B 5967   3.429   3.357   9.365  0.0677 -0.0893  0.2558
  373loPI   C4B 5968   3.552   3.365   8.908 -0.0393 -0.0860  0.2626
  374loPI    C1 5969   1.229   0.528  11.252 -0.1321 -0.0461  0.0938
  374loPI    C2 5970   1.338   0.857  11.452 -0.2712  0.0354  0.0367
  374loPI    C3 5971   1.189   0.542  11.650 -0.1384  0.0062  0.0912
  374loPI   PO4 5972   1.410   0.496  11.075  0.2732 -0.0935  0.0400
  374loPI   GL1 5973   1.218   0.548  10.689  0.2540  0.0079  0.0896
  374loPI   GL2 5974   1.360   0.477  10.480 -0.0393  0.1426 -0.1004
  374loPI   C1A 5975   1.093   0.904  10.313 -0.2025  0.1715 -0.2941
  374loPI   C2A 5976   1.129   0.972   9.810  0.2262  0.0476 -0.1279
  374loPI   C3A 5977   1.114   1.034   9.373  0.0764  0.1307  0.0568
  374loPI   C4A 5978   1.180   1.009   8.936 -0.0101 -0.1104  0.1649
  374loPI   C5A 5979   1.249   1.293   8.580 -0.2928 -0.1920 -0.1600
  374loPI   C6A 5980   1.249   1.739   8.571  0.0551 -0.1558  0.2219
  374loPI   C1B 5981   1.344   0.485  10.001  0.4086  0.0984  0.1527
  374loPI   C2B 5982   1.402   0.575   9.581  0.3267  0.2063  0.2949
  374loPI   C3B 5983   1.347   0.596   9.172  0.0260  0.3582 -0.1717
  374loPI   C4B 5984   1.357   0.300   8.778  0.0732  0.0840  0.1775
  375loPI    C1 5985   5.944  16.408  11.366 -0.1408  0.2904  0.0104
  375loPI    C2 5986   5.709  16.566  11.648  0.1306  0.3758  0.1926
  375loPI    C3 5987   6.105  16.618  11.666  0.1953 -0.0400  0.0693
  375loPI   PO4 5988   5.784  16.393  11.162  0.2031  0.0558 -0.0159
  375loPI   GL1 5989   5.427  16.399  10.904  0.2577 -0.1233 -0.0018
  375loPI   GL2 5990   5.134  16.520  10.950 -0.1797  0.2225  0.0424
  375loPI   C1A 5991   5.439  16.373  10.490 -0.2035  0.0831 -0.5278
  375loPI   C2A 5992   5.339  16.369  10.077 -0.0138  0.1152  0.0595
  375loPI   C3A 5993   5.350  16.394   9.625  0.3156  0.1733  0.0150
  375loPI   C4A 5994   5.279  16.291   9.285  0.1157  0.0951  0.1338
  375loPI   C5A 5995   5.236  16.428   8.869 -0.1233 -0.0616 -0.2490
  375loPI   C6A 5996   5.629  16.429   8.548 -0.0023  0.0005  0.2531
  375loPI   C1B 5997   4.865  16.375  10.508  0.1828 -0.2147 -0.1193
  375loPI   C2B 5998   4.815  16.355  10.027 -0.1163  0.1543  0.0648
  375loPI   C3B 5999   4.794  16.314   9.597  0.0783  0.0213 -0.3364
  375loPI   C4B 6000   4.772  16.369   9.166  0.1592 -0.2656  0.2638
  376loPI    C1 6001  12.648  17.593  11.229  0.2298  0.0077  0.3068
  376loPI    C2 6002  12.630  17.927  11.449 -0.2857  0.2563 -0.0908
  376loPI    C3 6003  12.827  17.927  11.101 -0.0221  0.0494  0.0544
  376loPI   PO4 6004  12.468  17.554  11.090  0.1475 -0.0402 -0.0772
  376loPI   GL1 6005  12.630  17.607  10.661  0.1516  0.2908  0.3200
  376loPI   GL2 6006  12.399  17.422  10.537  0.3023  0.0734  0.0345
  376loPI   C1A 6007  12.914  17.351  10.343 -0.0422  0.0122  0.3040
  376loPI   C2A 6008  12.894  17.248   9.913  0.0290 -0.0178 -0.1900
  376loPI   C3A 6009  12.925  17.151   9.516 -0.1512  0.0399  0.1077
  376loPI   C4A 6010  12.985  17.216   9.077 -0.0912 -0.1821  0.2949
  376loPI   C5A 6011  12.997  17.310   8.661 -0.0222  0.0219 -0.0378
  376loPI   C6A 6012  12.947  17.272   8.198  0.0991 -0.1569  0.1084
  376loPI   C1B 6013  12.438  17.360  10.029 -0.0708  0.0290  0.0113
  376loPI   C2B 6014  12.384  17.198   9.598 -0.2267 -0.2120 -0.0658
  376loPI   C3B 6015  12.515  17.120   9.165  0.0496  0.1276  0.3601
  376loPI   C4B 6016  12.501  17.268   8.662  0.0602  0.0816 -0.1206
  377loPI    C1 6017   9.716   5.691  11.032  0.1302  0.0814 -0.0793
  377loPI    C2 6018   9.548   6.022  10.882 -0.0898  0.0174  0.0214
  377loPI    C3 6019   9.818   6.051  11.175 -0.1759  0.1039  0.0929
  377loPI   PO4 6020   9.752   5.569  10.689  0.1217  0.0240  0.1137
  377loPI   GL1 6021   9.508   5.847  10.378 -0.2052 -0.0171 -0.0305
  377loPI   GL2 6022   9.216   6.060  10.436  0.1869 -0.2932  0.2144
  377loPI   C1A 6023   9.554   5.632   9.980 -0.0671 -0.1760 -0.1723
  377loPI   C2A 6024   9.353   5.571   9.681 -0.1070  0.0180 -0.1331
  377loPI   C3A 6025   9.361   5.561   9.208  0.2123  0.1243 -0.2967
  377loPI   C4A 6026   9.595   5.900   8.962 -0.0684  0.0488  0.0577
  377loPI   C5A 6027   9.565   6.142   8.607  0.1497  0.2423 -0.3863
  377loPI   C6A 6028   9.524   6.114   8.124 -0.1393 -0.0439  0.2118
  377loPI   C1B 6029   9.171   5.976   9.973  0.0157  0.1617 -0.3166
  377loPI   C2B 6030   9.104   6.010   9.476  0.3380  0.0124  0.2955
  377loPI   C3B 6031   9.142   6.060   9.138  0.0726  0.2106  0.0793
  377loPI   C4B 6032   9.097   5.901   8.730 -0.1454 -0.0231  0.1762
  378loPI    C1 6033   4.359  10.668  11.591 -0.0462 -0.2975 -0.0832
  378loPI    C2 6034   4.395  10.317  11.778  0.0572 -0.2375  0.0107
  378loPI    C3 6035   4.128  10.585  11.907  0.0563 -0.2372  0.0084
  378loPI   PO4 6036   4.263  10.602  11.353 -0.3255 -0.1967 -0.0040
  378loPI   GL1 6037   4.246  10.770  10.948  0.0850 -0.1262 -0.2659
  378loPI   GL2 6038   4.351  10.495  10.818  0.0048  0.0961 -0.2520
  378loPI   C1A 6039   4.189  10.904  10.484  0.1942 -0.1491  0.0261
  378loPI   C2A 6040   4.150  10.963  10.081 -0.0840  0.0177  0.2068
  378loPI   C3A 6041   4.172  11.007   9.666 -0.0639  0.0852 -0.0474
  378loPI   C4A 6042   4.177  10.946   9.321  0.1953 -0.3417 -0.1279
  378loPI   C5A 6043   4.282  11.001   8.865 -0.0660  0.4480  0.0181
  378loPI   C6A 6044   4.180  11.159   8.592 -0.2075  0.2913  0.0083
  378loPI   C1B 6045   4.382  10.487  10.445  0.0297 -0.0686  0.1907
  378loPI   C2B 6046   4.520  10.431  10.010  0.2428 -0.1415  0.0814
  378loPI   C3B 6047   4.453  10.494   9.599 -0.1253 -0.2143 -0.1724
  378loPI   C4B 6048   4.532  10.518   9.131 -0.0300 -0.1856  0.2912
  379loPI    C1 6049  18.067  13.163  11.603 -0.0730 -0.0138 -0.3177
  379loPI    C2 6050  17.725  12.963  11.655 -0.0240  0.0055  0.1142
  379loPI    C3 6051  17.965  13.033  11.967  0.3900 -0.0306 -0.1877
  379loPI   PO4 6052  18.102  13.108  11.395  0.0956 -0.1942 -0.1765
  379loPI   GL1 6053  18.144  13.160  11.007  0.0349  0.3708 -0.2117
  379loPI   GL2 6054  17.927  13.089  10.805  0.0941 -0.2163 -0.1199
  379loPI   C1A 6055  18.348  13.195  10.616 -0.2381  0.0287 -0.0860
  379loPI   C2A 6056  18.408  13.310  10.197 -0.0542 -0.0797  0.2325
  379loPI   C3A 6057  18.361  13.233   9.789 -0.0665  0.0103 -0.1772
  379loPI   C4A 6058  18.283  13.341   9.423 -0.3699 -0.2260  0.0366
  379loPI   C5A 6059  18.263  13.273   9.014 -0.1738 -0.5207  0.0641
  379loPI   C6A 6060  18.218  13.296   8.572 -0.3152  0.0079 -0.0116
  379loPI   C1B 6061  17.900  13.217  10.294 -0.1047 -0.1393  0.1521
  379loPI   C2B 6062  17.788  13.218   9.886 -0.0943  0.0767 -0.1380
  379loPI   C3B 6063  17.792  13.195   9.455  0.2793  0.0456 -0.1403
  379loPI   C4B 6064  17.770  13.200   8.997  0.1766 -0.0268 -0.0857
  380loPI    C1 6065   5.642  17.414  11.319  0.2451 -0.0404 -0.0023
  380loPI    C2 6066   5.616  17.813  11.337 -0.1397 -0.0585 -0.0873
  380loPI    C3 6067   5.526  17.592  11.658 -0.0223 -0.0818 -0.0700
  380loPI   PO4 6068   5.524  17.306  11.139  0.1604  0.1213  0.0968
  380loPI   GL1 6069   5.646  17.138  10.727 -0.1514  0.0085 -0.1207
  380loPI   GL2 6070   5.943  17.164  10.570  0.1753 -0.0079  0.4227
  380loPI   C1A 6071   5.459  17.231  10.237 -0.0918 -0.3341 -0.2731
  380loPI   C2A 6072   5.242  17.239   9.807  0.0971 -0.3021 -0.0502
  380loPI   C3A 6073   5.172  17.272   9.370 -0.1825 -0.0036  0.0848
  380loPI   C4A 6074   5.270  17.302   8.924 -0.3115  0.1161  0.1089
  380loPI   C5A 6075   5.325  17.643   8.632  0.0824  0.2232 -0.0735
  380loPI   C6A 6076   5.368  17.882   8.162 -0.3561 -0.0118 -0.0750
  380loPI   C1B 6077   5.891  17.259  10.061 -0.1131  0.1551 -0.3011
  380loPI   C2B 6078   5.794  17.289   9.648  0.0946  0.1677 -0.2365
  380loPI   C3B 6079   5.720  17.253   9.190  0.0944  0.0572  0.0181
  380loPI   C4B 6080   5.752  17.248   8.697 -0.2363 -0.0168 -0.0571
  381loPI    C1 6081  14.017   7.124  11.230 -0.2114  0.2232  0.0068
  381loPI    C2 6082  14.290   6.960  11.472 -0.1771 -0.0036 -0.1827
  381loPI    C3 6083  14.009   7.202  11.622 -0.1465 -0.1284  0.0808
  381loPI   PO4 6084  14.130   7.125  10.971 -0.2663 -0.0475  0.0247
  381loPI   GL1 6085  14.366   7.169  10.631 -0.0703 -0.3499 -0.2482
  381loPI   GL2 6086  14.207   6.923  10.516  0.1848 -0.0570  0.1709
  381loPI   C1A 6087  14.454   7.373  10.256  0.3050 -0.2887  0.1287
  381loPI   C2A 6088  14.449   7.372   9.829  0.2619 -0.1678  0.3070
  381loPI   C3A 6089  14.482   7.413   9.460  0.2063  0.2801  0.2289
  381loPI   C4A 6090  14.475   7.474   9.044 -0.0373 -0.0080  0.2645
  381loPI   C5A 6091  14.342   7.470   8.602 -0.0255 -0.1724 -0.4743
  381loPI   C6A 6092  13.983   7.629   8.497  0.1456 -0.0204 -0.0331
  381loPI   C1B 6093  14.180   6.969  10.111  0.1705 -0.1462  0.3125
  381loPI   C2B 6094  14.229   6.868   9.693 -0.0968  0.0712 -0.2930
  381loPI   C3B 6095  14.239   6.922   9.205  0.1393 -0.1417 -0.0548
  381loPI   C4B 6096  14.209   6.998   8.803  0.2327  0.0196  0.0642
  382loPI    C1 6097  15.153  17.665  11.250 -0.2034  0.2078  0.3185
  382loPI    C2 6098  15.303  17.297  11.301  0.1007  0.2695 -0.0793
  382loPI    C3 6099  15.350  17.574  11.586  0.1883  0.1050  0.0676
  382loPI   PO4 6100  15.193  17.649  10.934 -0.1407  0.1636 -0.2724
  382loPI   GL1 6101  15.493  17.520  10.813 -0.0331 -0.1346  0.2284
  382loPI   GL2 6102  15.839  17.631  10.783  0.1162 -0.2442  0.1068
  382loPI   C1A 6103  15.566  17.383  10.411  0.1163  0.0292 -0.0385
  382loPI   C2A 6104  15.523  17.375  10.046 -0.0003  0.0067  0.0085
  382loPI   C3A 6105  15.489  17.292   9.663 -0.2546 -0.5141 -0.2425
  382loPI   C4A 6106  15.451  17.288   9.323  0.1218 -0.1300 -0.0205
  382loPI   C5A 6107  15.520  17.266   8.900 -0.2712  0.5101 -0.2715
  382loPI   C6A 6108  15.653  17.175   8.464 -0.0293  0.0273  0.4480
  382loPI   C1B 6109  15.697  17.835  10.401 -0.1195 -0.0729 -0.0956
  382loPI   C2B 6110  15.768  17.861  10.038  0.2947 -0.0448 -0.1848
  382loPI   C3B 6111  15.766  17.685   9.678 -0.1003  0.1975 -0.2085
  382loPI   C4B 6112  15.775  17.765   9.278  0.3557  0.2338 -0.1151
  383loPI    C1 6113   1.363  10.268  11.353  0.2109 -0.0055 -0.0391
  383loPI    C2 6114   1.168  10.609  11.431 -0.0930 -0.1452 -0.1691
  383loPI    C3 6115   1.464  10.488  11.672 -0.0918  0.1261 -0.0299
  383loPI   PO4 6116   1.362  10.303  11.061  0.0588  0.0820 -0.1065
  383loPI   GL1 6117   1.448  10.566  10.702  0.2514  0.1513 -0.0847
  383loPI   GL2 6118   1.643  10.891  10.610 -0.0236 -0.1172  0.0777
  383loPI   C1A 6119   1.393  10.553  10.283  0.2285  0.3582 -0.1192
  383loPI   C2A 6120   1.348  10.575   9.916 -0.1047  0.0236  0.2133
  383loPI   C3A 6121   1.378  10.586   9.448  0.0134  0.0304  0.0136
  383loPI   C4A 6122   1.520  10.547   8.995 -0.1887 -0.0882 -0.1134
  383loPI   C5A 6123   1.492  10.461   8.590  0.0380 -0.3889  0.1502
  383loPI   C6A 6124   1.217  10.560   8.233  0.0967  0.2784  0.0227
  383loPI   C1B 6125   1.626  11.004  10.175 -0.0790 -0.0238  0.1946
  383loPI   C2B 6126   1.572  10.968   9.698 -0.0011  0.3289 -0.0556
  383loPI   C3B 6127   1.640  11.016   9.251  0.0445 -0.1127  0.0415
  383loPI   C4B 6128   1.761  10.902   8.809 -0.2680  0.1516  0.0274
  384loPI    C1 6129   1.940   8.280  11.540 -0.2984 -0.2002  0.0583
  384loPI    C2 6130   1.877   8.436  11.903  0.0795 -0.0514  0.0648
  384loPI    C3 6131   2.144   8.142  11.855  0.1925  0.0802 -0.1258
  384loPI   PO4 6132   1.814   8.541  11.331  0.1190 -0.0871  0.1410
  384loPI   GL1 6133   1.632   8.511  10.947  0.2215  0.0050  0.4078
  384loPI   GL2 6134   1.514   8.280  10.752 -0.1357  0.0983 -0.1675
  384loPI   C1A 6135   1.816   8.655  10.585 -0.1015  0.1773 -0.3488
  384loPI   C2A 6136   1.857   8.685  10.055 -0.1207  0.0296  0.2272
  384loPI   C3A 6137   1.870   8.660   9.607  0.1118  0.1232  0.4909
  384loPI   C4A 6138   1.840   8.798   9.218 -0.4866  0.3857  0.0793
  384loPI   C5A 6139   2.056   9.009   8.866 -0.0014 -0.0265 -0.0679
  384loPI   C6A 6140   2.289   9.356   8.641 -0.0788 -0.3564 -0.3947
  384loPI   C1B 6141   1.664   8.169  10.296 -0.1997  0.1398  0.1530
  384loPI   C2B 6142   1.637   8.273   9.774  0.0898  0.2196  0.1490
  384loPI   C3B 6143   1.593   8.289   9.357  0.0323 -0.1887  0.0137
  384loPI   C4B 6144   1.774   8.356   8.949 -0.0836  0.2237  0.1102
  385loPI    C1 6145  18.079  17.100  11.602 -0.0280  0.0235  0.1581
  385loPI    C2 6146  17.754  17.027  11.824  0.0482  0.1476  0.3132
  385loPI    C3 6147  18.108  16.873  11.930  0.0129 -0.1210  0.0555
  385loPI   PO4 6148  17.998  17.060  11.360 -0.1878  0.0644 -0.1994
  385loPI   GL1 6149  18.101  17.024  11.018  0.1944  0.3061  0.0967
  385loPI   GL2 6150  18.343  16.894  10.990 -0.3167 -0.0137  0.0677
  385loPI   C1A 6151  18.107  17.326  10.675  0.0061  0.1354 -0.0630
  385loPI   C2A 6152  18.131  17.297  10.262 -0.0419 -0.2994  0.0887
  385loPI   C3A 6153  18.193  17.193   9.867  0.0167  0.0818 -0.1386
  385loPI   C4A 6154  18.154  17.224   9.428  0.0131 -0.2223  0.3041
  385loPI   C5A 6155  18.197  17.185   8.979 -0.1925  0.0572 -0.2443
  385loPI   C6A 6156  18.427  17.031   8.679 -0.1651 -0.0906 -0.1126
  385loPI   C1B 6157  18.299  16.864  10.487 -0.0684  0.1923 -0.0133
  385loPI   C2B 6158  18.321  16.758  10.077 -0.0353 -0.0604 -0.1368
  385loPI   C3B 6159  18.456  16.796   9.614  0.3234  0.2103 -0.0962
  385loPI   C4B 6160  18.383  16.821   9.253 -0.0120 -0.1273 -0.0151
  386loPI    C1 6161   4.490   5.069  11.412  0.0066 -0.0973 -0.2735
  386loPI    C2 6162   4.692   5.412  11.448  0.1107 -0.1780 -0.0768
  386loPI    C3 6163   4.512   5.251  11.767  0.0710 -0.3115 -0.1657
  386loPI   PO4 6164   4.366   5.086  11.229 -0.0423  0.3038 -0.0393
  386loPI   GL1 6165   4.182   5.055  10.830 -0.0073 -0.1827  0.1895
  386loPI   GL2 6166   4.496   5.134  10.728  0.2429  0.0275 -0.2450
  386loPI   C1A 6167   4.028   5.103  10.467 -0.0097  0.2152 -0.0659
  386loPI   C2A 6168   4.019   5.119  10.023 -0.0070  0.0868 -0.0179
  386loPI   C3A 6169   4.010   5.046   9.663 -0.2144  0.1921  0.0731
  386loPI   C4A 6170   3.947   5.024   9.247  0.2853 -0.2918 -0.1160
  386loPI   C5A 6171   4.056   4.722   8.869 -0.1128  0.0305 -0.1898
  386loPI   C6A 6172   4.268   4.665   8.508  0.0769 -0.0780 -0.1818
  386loPI   C1B 6173   4.541   5.118  10.262 -0.2011 -0.1031  0.1387
  386loPI   C2B 6174   4.567   5.146   9.739  0.2013  0.0642 -0.1907
  386loPI   C3B 6175   4.574   5.117   9.274 -0.3035 -0.1047  0.2478
  386loPI   C4B 6176   4.326   5.158   8.790 -0.1147 -0.2269 -0.0053
  387loPI    C1 6177   7.545   4.200  11.271 -0.0652  0.0111 -0.1853
  387loPI    C2 6178   7.889   4.000  11.319 -0.0007  0.1272 -0.1587
  387loPI    C3 6179   7.852   4.372  11.461 -0.2250  0.0223  0.0672
  387loPI   PO4 6180   7.500   4.055  11.019  0.1840 -0.3253 -0.0173
  387loPI   GL1 6181   7.417   4.000  10.579 -0.0009 -0.4421 -0.1122
  387loPI   GL2 6182   7.605   4.218  10.537 -0.1503  0.1245 -0.0461
  387loPI   C1A 6183   7.155   4.169  10.224 -0.0215  0.2261  0.2933
  387loPI   C2A 6184   7.035   4.209   9.794 -0.1321  0.2087  0.0130
  387loPI   C3A 6185   7.046   4.199   9.312  0.0670  0.2517 -0.0615
  387loPI   C4A 6186   6.976   4.260   8.912  0.1819 -0.2119 -0.2024
  387loPI   C5A 6187   7.002   4.209   8.577  0.0665  0.0444  0.3017
  387loPI   C6A 6188   7.094   4.476   8.176  0.0182  0.1456 -0.1703
  387loPI   C1B 6189   7.626   4.221  10.068  0.1932  0.0612  0.2209
  387loPI   C2B 6190   7.499   4.205   9.614 -0.0720  0.3627 -0.0491
  387loPI   C3B 6191   7.574   4.255   9.218  0.1229 -0.1462 -0.0433
  387loPI   C4B 6192   7.451   4.357   8.806  0.0228  0.2912  0.1790
  388loPI    C1 6193  14.586  16.916  11.402  0.4018 -0.0050  0.0559
  388loPI    C2 6194  14.711  16.635  11.147 -0.1350 -0.2175  0.0151
  388loPI    C3 6195  14.730  16.569  11.541 -0.0941 -0.2364  0.0101
  388loPI   PO4 6196  14.401  16.965  11.320  0.2133 -0.1191 -0.1778
  388loPI   GL1 6197  14.462  17.070  10.894 -0.0274  0.0860 -0.0403
  388loPI   GL2 6198  14.152  17.024  10.688  0.0490  0.0711  0.0514
  388loPI   C1A 6199  14.688  16.924  10.576  0.2284  0.2766  0.1242
  388loPI   C2A 6200  14.742  16.814  10.103  0.0786  0.0185 -0.1678
  388loPI   C3A 6201  14.747  16.778   9.709  0.0228  0.1179 -0.0448
  388loPI   C4A 6202  14.733  16.849   9.248  0.1913  0.0833  0.0177
  388loPI   C5A 6203  14.722  16.746   8.808 -0.0368  0.0924  0.4717
  388loPI   C6A 6204  14.789  16.753   8.411  0.1221 -0.2211 -0.0436
  388loPI   C1B 6205  14.239  16.887  10.216  0.0676 -0.3265  0.0342
  388loPI   C2B 6206  14.224  16.851   9.786  0.3100 -0.0639  0.1936
  388loPI   C3B 6207  14.244  16.853   9.368 -0.0249 -0.0651 -0.1089
  388loPI   C4B 6208  14.254  16.751   8.970  0.0387 -0.0426 -0.2779
  389loPI    C1 6209  14.761   7.073  11.470  0.0671  0.2044 -0.0782
  389loPI    C2 6210  14.914   7.388  11.665 -0.2539  0.2030  0.1836
  389loPI    C3 6211  14.865   7.039  11.854  0.2345 -0.0548 -0.1442
  389loPI   PO4 6212  14.676   7.163  11.271 -0.2349  0.0879  0.0425
  389loPI   GL1 6213  14.838   7.139  10.791  0.1212 -0.0009  0.1687
  389loPI   GL2 6214  14.772   6.822  10.564  0.2125 -0.0343 -0.2842
  389loPI   C1A 6215  15.034   7.261  10.443  0.0783 -0.0966 -0.3072
  389loPI   C2A 6216  14.930   7.344   9.987 -0.1259 -0.0908  0.1018
  389loPI   C3A 6217  15.035   7.382   9.633  0.3012  0.3637 -0.1612
  389loPI   C4A 6218  14.963   7.478   9.189  0.1438 -0.1413 -0.0330
  389loPI   C5A 6219  14.911   7.442   8.677 -0.2215 -0.1760 -0.1503
  389loPI   C6A 6220  15.147   7.408   8.349  0.0397 -0.1474  0.1674
  389loPI   C1B 6221  14.706   6.918  10.127  0.2343  0.0526 -0.1938
  389loPI   C2B 6222  14.739   6.908   9.751 -0.0175  0.2152  0.1779
  389loPI   C3B 6223  14.736   7.028   9.275 -0.1503 -0.1204 -0.0345
  389loPI   C4B 6224  14.719   7.037   8.844  0.1964 -0.3990  0.2656
  390loPI    C1 6225   1.109  15.194  11.836 -0.0440 -0.0682  0.1332
  390loPI    C2 6226   0.890  15.444  12.058  0.0981  0.1329  0.0490
  390loPI    C3 6227   1.273  15.375  12.152  0.0121 -0.1889  0.1737
  390loPI   PO4 6228   0.996  15.267  11.567 -0.0693  0.2616  0.3218
  390loPI   GL1 6229   1.123  15.137  11.039  0.0097  0.0982  0.2143
  390loPI   GL2 6230   0.887  15.041  11.008  0.0193  0.0455  0.0229
  390loPI   C1A 6231   1.380  14.956  10.710  0.2563 -0.0238  0.1012
  390loPI   C2A 6232   1.447  15.009  10.275 -0.0124 -0.1778  0.5203
  390loPI   C3A 6233   1.275  14.955   9.777  0.0271  0.0014 -0.0775
  390loPI   C4A 6234   1.409  14.997   9.388  0.0270 -0.0261  0.1564
  390loPI   C5A 6235   1.192  14.971   8.904 -0.0565 -0.0926 -0.0061
  390loPI   C6A 6236   0.785  14.680   8.846  0.0651  0.5010  0.0428
  390loPI   C1B 6237   0.879  15.011  10.553  0.1963  0.2440  0.0789
  390loPI   C2B 6238   0.866  14.974  10.100  0.0654 -0.2869  0.2887
  390loPI   C3B 6239   0.811  15.005   9.628  0.1997  0.0563  0.1102
  390loPI   C4B 6240   0.888  15.030   9.294  0.4165  0.0276  0.4032
  391loPI    C1 6241  15.681  17.139  11.824 -0.1866 -0.1566  0.1059
  391loPI    C2 6242  15.859  17.492  11.764 -0.1948 -0.1572  0.0789
  391loPI    C3 6243  15.544  17.466  12.009 -0.3650 -0.0948 -0.1303
  391loPI   PO4 6244  15.731  17.063  11.555 -0.0324  0.1164 -0.1161
  391loPI   GL1 6245  15.711  17.077  11.117 -0.2674 -0.0985 -0.0939
  391loPI   GL2 6246  15.945  17.186  10.981 -0.0499  0.1627 -0.0977
  391loPI   C1A 6247  15.424  17.031  10.759 -0.3011  0.2917 -0.1147
  391loPI   C2A 6248  15.244  16.898  10.408  0.0857  0.3299  0.0944
  391loPI   C3A 6249  15.255  16.814   9.951 -0.0788  0.3401 -0.0251
  391loPI   C4A 6250  15.281  16.816   9.551 -0.2462  0.0166  0.0807
  391loPI   C5A 6251  15.232  16.833   9.092 -0.1340  0.0710 -0.4581
  391loPI   C6A 6252  15.406  16.753   8.668  0.0000 -0.0800 -0.6019
  391loPI   C1B 6253  16.031  17.178  10.529 -0.1183 -0.0586  0.1595
  391loPI   C2B 6254  16.010  17.324  10.123 -0.0523  0.1508  0.1676
  391loPI   C3B 6255  16.098  17.316   9.618  0.1021  0.0546  0.0825
  391loPI   C4B 6256  15.984  17.259   9.249  0.0240  0.1835  0.0480
  392loPI    C1 6257   7.312   7.093  11.671  0.2214 -0.1469  0.0268
  392loPI    C2 6258   7.108   6.936  11.978 -0.2086  0.0457 -0.1523
  392loPI    C3 6259   7.365   7.236  12.040 -0.0177 -0.1601  0.0683
  392loPI   PO4 6260   7.127   7.098  11.490  0.0156  0.1770 -0.2618
  392loPI   GL1 6261   7.182   7.201  11.084  0.1584 -0.0771  0.2233
  392loPI   GL2 6262   6.945   7.114  10.951 -0.2077 -0.1978 -0.0431
  392loPI   C1A 6263   7.355   7.271  10.685 -0.1237  0.0556 -0.0122
  392loPI   C2A 6264   7.412   7.307  10.286 -0.0024 -0.0878 -0.0191
  392loPI   C3A 6265   7.237   7.399   9.863  0.1866 -0.2428 -0.0366
  392loPI   C4A 6266   7.300   7.390   9.474 -0.1671 -0.0479  0.2146
  392loPI   C5A 6267   7.242   7.435   9.162  0.3024 -0.1668  0.2244
  392loPI   C6A 6268   7.107   7.477   8.764 -0.1085 -0.1068 -0.2037
  392loPI   C1B 6269   6.893   7.240  10.478 -0.0767 -0.0320  0.1964
  392loPI   C2B 6270   6.822   7.333  10.105  0.0330  0.1238 -0.1755
  392loPI   C3B 6271   6.696   7.422   9.692  0.2484  0.2083  0.0379
  392loPI   C4B 6272   6.757   7.323   9.174 -0.0356 -0.1762 -0.1279
  393loPI    C1 6273   9.270   3.419  10.564 -0.2866 -0.0342 -0.2894
  393loPI    C2 6274   9.137   3.521  10.927 -0.2668  0.1048 -0.3204
  393loPI    C3 6275   9.343   3.181  10.877 -0.2485  0.0972 -0.1975
  393loPI   PO4 6276   9.364   3.693  10.502  0.0673  0.2643 -0.1134
  393loPI   GL1 6277   9.221   3.935  10.236 -0.4460  0.0452 -0.0723
  393loPI   GL2 6278   8.924   4.108  10.333 -0.5110  0.0270 -0.0473
  393loPI   C1A 6279   9.270   4.324  10.002 -0.1432  0.1557  0.2084
  393loPI   C2A 6280   9.326   4.626   9.674 -0.0911 -0.1510  0.0180
  393loPI   C3A 6281   9.637   4.589   9.302 -0.2162 -0.1665 -0.0033
  393loPI   C4A 6282   9.722   4.713   8.865  0.1083  0.0405 -0.0160
  393loPI   C5A 6283   9.805   4.643   8.433  0.2006 -0.1882 -0.0551
  393loPI   C6A 6284   9.909   4.345   8.093 -0.2055  0.3523 -0.0673
  393loPI   C1B 6285   8.743   4.148   9.966 -0.2928  0.1974  0.1465
  393loPI   C2B 6286   8.539   4.142   9.557  0.1751 -0.0548  0.1739
  393loPI   C3B 6287   8.506   4.261   9.051 -0.0348  0.1046  0.1806
  393loPI   C4B 6288   8.604   4.296   8.587  0.0963  0.1442 -0.1627
  394loPI    C1 6289   2.679   6.465  11.596 -0.0118 -0.4054  0.3353
  394loPI    C2 6290   2.712   6.661  11.943 -0.2865 -0.1632  0.2284
  394loPI    C3 6291   2.354   6.528  11.822 -0.2317 -0.0529 -0.0634
  394loPI   PO4 6292   2.858   6.276  11.539 -0.3344 -0.1102  0.3232
  394loPI   GL1 6293   2.878   6.125  11.076 -0.1467 -0.2069  0.0259
  394loPI   GL2 6294   3.038   6.430  10.979  0.3819  0.1369  0.2856
  394loPI   C1A 6295   2.933   5.974  10.701  0.0638  0.1838  0.0205
  394loPI   C2A 6296   3.019   5.914  10.342 -0.0372 -0.0532 -0.0636
  394loPI   C3A 6297   2.925   5.914   9.953  0.0280  0.0241  0.0754
  394loPI   C4A 6298   2.901   5.898   9.518 -0.1198 -0.4350 -0.1470
  394loPI   C5A 6299   2.901   5.952   9.058  0.2395  0.0521  0.0254
  394loPI   C6A 6300   2.909   6.146   8.683  0.0479  0.0063 -0.2248
  394loPI   C1B 6301   3.223   6.407  10.635  0.1777 -0.1297  0.1062
  394loPI   C2B 6302   3.322   6.331  10.246  0.2286 -0.0985  0.0193
  394loPI   C3B 6303   3.204   6.379   9.818  0.1207 -0.3607 -0.0353
  394loPI   C4B 6304   3.065   6.428   9.338 -0.1393  0.2368 -0.0171
  395loPI    C1 6305  10.835  15.721  11.344 -0.1949 -0.0653  0.2625
  395loPI    C2 6306  11.207  15.814  11.459 -0.2088  0.0143  0.2441
  395loPI    C3 6307  11.037  15.474  11.584 -0.0804 -0.0878  0.1441
  395loPI   PO4 6308  10.894  15.780  11.013  0.1033  0.1901  0.1477
  395loPI   GL1 6309  10.867  15.876  10.556  0.1145 -0.2095 -0.2800
  395loPI   GL2 6310  11.154  15.842  10.463  0.0522  0.2037  0.0318
  395loPI   C1A 6311  10.692  15.873  10.145  0.1008  0.0472 -0.1107
  395loPI   C2A 6312  10.645  15.939   9.707  0.0816  0.1703 -0.3886
  395loPI   C3A 6313  10.673  15.905   9.236 -0.2106 -0.1441  0.3354
  395loPI   C4A 6314  10.688  16.016   8.862  0.1843  0.3079  0.1443
  395loPI   C5A 6315  10.836  15.953   8.444  0.0997  0.1585 -0.1366
  395loPI   C6A 6316  10.835  16.159   7.975 -0.0390 -0.1015  0.1987
  395loPI   C1B 6317  11.185  15.878  10.061  0.1220 -0.1416 -0.1568
  395loPI   C2B 6318  11.132  15.944   9.582 -0.0071  0.0546 -0.2804
  395loPI   C3B 6319  11.219  15.962   9.205  0.1722  0.2564 -0.1093
  395loPI   C4B 6320  11.234  16.013   8.755 -0.0270  0.0742 -0.1736
  396loPI    C1 6321   4.843   6.917  11.665  0.0471  0.0146 -0.0174
  396loPI    C2 6322   5.048   6.850  12.001  0.0563 -0.3031 -0.0833
  396loPI    C3 6323   4.653   6.791  11.993  0.0260 -0.1079 -0.0762
  396loPI   PO4 6324   5.015   6.756  11.494  0.0795  0.2072 -0.0582
  396loPI   GL1 6325   5.346   6.697  11.125  0.3109  0.2373 -0.4013
  396loPI   GL2 6326   5.521   6.597  10.894 -0.3785 -0.1098 -0.2818
  396loPI   C1A 6327   5.084   6.855  10.798 -0.0238 -0.0251 -0.1623
  396loPI   C2A 6328   5.059   6.823  10.328  0.0799  0.2453 -0.0654
  396loPI   C3A 6329   5.003   6.944   9.967  0.1079  0.1533  0.0493
  396loPI   C4A 6330   4.902   6.835   9.548 -0.2639  0.0291 -0.4628
  396loPI   C5A 6331   4.970   6.874   9.135  0.0148  0.3371  0.0491
  396loPI   C6A 6332   4.776   6.933   8.705  0.0923  0.1683 -0.0184
  396loPI   C1B 6333   5.324   6.405  10.659 -0.1888 -0.4871  0.3704
  396loPI   C2B 6334   5.268   6.418  10.170 -0.1883 -0.2873  0.3909
  396loPI   C3B 6335   5.198   6.501   9.781  0.0549  0.1857 -0.0818
  396loPI   C4B 6336   5.200   6.450   9.315  0.2606 -0.1223 -0.0499
  397loPI    C1 6337   0.744   5.026  11.680 -0.2974  0.0123 -0.0345
  397loPI    C2 6338   0.634   5.401  11.766  0.0612  0.0942  0.0875
  397loPI    C3 6339   0.791   5.169  12.051 -0.1769 -0.1583  0.0173
  397loPI   PO4 6340   0.558   4.933  11.451 -0.2960  0.1864  0.1401
  397loPI   GL1 6341   0.828   4.927  10.994  0.1807  0.0049 -0.1735
  397loPI   GL2 6342   0.505   4.910  10.934 -0.1569 -0.1511 -0.1178
  397loPI   C1A 6343   0.882   5.008  10.542 -0.1764  0.0038  0.1692
  397loPI   C2A 6344   0.855   5.169  10.120  0.0771 -0.0421 -0.3472
  397loPI   C3A 6345   0.820   5.090   9.689 -0.3503  0.0370  0.1220
  397loPI   C4A 6346   0.840   5.098   9.284 -0.3525  0.2377 -0.0190
  397loPI   C5A 6347   0.766   4.962   8.887 -0.0202  0.0506  0.1573
  397loPI   C6A 6348   0.829   5.036   8.468  0.0196 -0.3186  0.2192
  397loPI   C1B 6349   0.406   5.132  10.549  0.1220  0.1748  0.0750
  397loPI   C2B 6350   0.324   5.105  10.112  0.0219 -0.1684  0.1409
  397loPI   C3B 6351   0.311   5.128   9.698 -0.0826  0.0783  0.0868
  397loPI   C4B 6352   0.287   5.072   9.233  0.0089  0.0660 -0.2485
  398loPI    C1 6353   7.367  11.793  11.302 -0.1729  0.1403 -0.0586
  398loPI    C2 6354   7.217  11.725  11.667  0.0582 -0.1673 -0.0165
  398loPI    C3 6355   7.545  11.951  11.624 -0.0630  0.0038 -0.0511
  398loPI   PO4 6356   7.182  11.851  11.158  0.2358  0.3999  0.0896
  398loPI   GL1 6357   7.006  11.996  10.768 -0.0739 -0.0453  0.1628
  398loPI   GL2 6358   6.686  11.863  10.705  0.1055 -0.2532  0.2381
  398loPI   C1A 6359   7.010  12.290  10.428  0.0178 -0.1168 -0.1155
  398loPI   C2A 6360   7.090  12.328   9.968  0.2409 -0.3902 -0.1455
  398loPI   C3A 6361   7.056  12.282   9.490  0.0492 -0.1695 -0.0681
  398loPI   C4A 6362   7.045  12.329   9.083 -0.2422 -0.3509  0.0801
  398loPI   C5A 6363   7.103  12.406   8.672 -0.0759 -0.0356 -0.3007
  398loPI   C6A 6364   6.691  12.139   8.519 -0.1276 -0.0737  0.0710
  398loPI   C1B 6365   6.813  11.859  10.199 -0.1905  0.1667  0.2956
  398loPI   C2B 6366   6.789  11.934   9.788  0.0587 -0.0761 -0.1442
  398loPI   C3B 6367   6.796  11.843   9.329 -0.0726 -0.2671 -0.1298
  398loPI   C4B 6368   6.767  11.897   8.945  0.4059  0.1787  0.2029
  399loPI    C1 6369   3.072   3.514  11.702  0.0994 -0.1098  0.0559
  399loPI    C2 6370   2.695   3.414  11.615  0.1005 -0.0984  0.0381
  399loPI    C3 6371   2.886   3.230  11.914  0.0744 -0.0907  0.0595
  399loPI   PO4 6372   3.146   3.519  11.374  0.2377  0.2191 -0.2337
  399loPI   GL1 6373   3.192   3.637  10.942  0.1500  0.0241 -0.2538
  399loPI   GL2 6374   2.764   3.795  10.781 -0.1172 -0.0080 -0.0909
  399loPI   C1A 6375   3.258   3.736  10.548  0.0838  0.0298  0.0049
  399loPI   C2A 6376   3.230   3.746  10.139 -0.1694 -0.1739 -0.2081
  399loPI   C3A 6377   3.229   3.765   9.726  0.0261 -0.1597  0.0337
  399loPI   C4A 6378   3.174   3.778   9.229  0.2847 -0.0836  0.1123
  399loPI   C5A 6379   2.971   4.107   8.968  0.0100  0.0035 -0.0134
  399loPI   C6A 6380   2.893   4.264   8.596  0.2052  0.1304 -0.2591
  399loPI   C1B 6381   2.723   3.753  10.365  0.0827 -0.0278  0.0452
  399loPI   C2B 6382   2.809   3.810   9.944  0.3259 -0.1582  0.2515
  399loPI   C3B 6383   2.716   3.749   9.471  0.0989  0.1154 -0.1868
  399loPI   C4B 6384   2.679   3.688   9.048 -0.3262  0.2246 -0.1237
  400loPI    C1 6385  12.012   9.574  11.429 -0.2818  0.0762 -0.0569
  400loPI    C2 6386  11.657   9.463  11.574 -0.1953 -0.0587  0.0541
  400loPI    C3 6387  11.978   9.468  11.813 -0.1142  0.0225 -0.0558
  400loPI   PO4 6388  11.966   9.671  11.188  0.2145  0.2503  0.2242
  400loPI   GL1 6389  12.019   9.918  10.885  0.0595  0.1174  0.2692
  400loPI   GL2 6390  12.140   9.644  10.657 -0.2383  0.1566 -0.1487
  400loPI   C1A 6391  11.875  10.029  10.429  0.0445 -0.1241 -0.1589
  400loPI   C2A 6392  11.930  10.036   9.970 -0.1970 -0.0704  0.1770
  400loPI   C3A 6393  11.859  10.089   9.542 -0.0213 -0.3152 -0.0150
  400loPI   C4A 6394  11.928  10.143   9.210 -0.1823 -0.0484 -0.1632
  400loPI   C5A 6395  11.760  10.138   8.724 -0.2192  0.0288  0.2639
  400loPI   C6A 6396  11.882   9.880   8.442 -0.1047 -0.0519  0.0814
  400loPI   C1B 6397  12.167   9.608  10.250 -0.0360  0.2639  0.1188
  400loPI   C2B 6398  12.165   9.636   9.830 -0.0952  0.0298 -0.0678
  400loPI   C3B 6399  12.117   9.682   9.399  0.0457 -0.1874  0.2056
  400loPI   C4B 6400  12.137   9.712   8.904  0.2122  0.0923  0.1032
  401loPI    C1 6401  16.045  14.607  11.748  0.0190  0.1736 -0.0674
  401loPI    C2 6402  16.189  14.263  11.893  0.0992  0.2054 -0.0717
  401loPI    C3 6403  16.066  14.549  12.144  0.0407  0.1772 -0.0682
  401loPI   PO4 6404  15.944  14.559  11.569  0.2000  0.1543 -0.0957
  401loPI   GL1 6405  15.739  14.515  11.293  0.3311 -0.0972 -0.0239
  401loPI   GL2 6406  16.005  14.447  11.112 -0.2377 -0.1165  0.0078
  401loPI   C1A 6407  15.438  14.460  10.958 -0.0924 -0.4349 -0.0453
  401loPI   C2A 6408  15.477  14.628  10.602  0.0523 -0.2220  0.0618
  401loPI   C3A 6409  15.517  14.679  10.203  0.1684 -0.0793 -0.1577
  401loPI   C4A 6410  15.473  14.613   9.838 -0.1687  0.0730  0.0083
  401loPI   C5A 6411  15.554  14.560   9.434  0.1262 -0.1062  0.1858
  401loPI   C6A 6412  15.606  14.505   9.061 -0.0146  0.0664  0.4719
  401loPI   C1B 6413  15.965  14.625  10.712 -0.2047 -0.2126  0.2067
  401loPI   C2B 6414  16.026  14.685  10.278 -0.3892  0.2083  0.2384
  401loPI   C3B 6415  16.055  14.636   9.843  0.2093  0.0633 -0.4299
  401loPI   C4B 6416  16.024  14.600   9.372  0.1311 -0.2006 -0.4756
  402loPI    C1 6417  12.589  10.280  11.421 -0.1349  0.1599 -0.0302
  402loPI    C2 6418  12.913  10.278  11.656 -0.0555  0.0898 -0.1388
  402loPI    C3 6419  12.620  10.543  11.721  0.0782  0.2336 -0.1148
  402loPI   PO4 6420  12.655  10.258  11.224  0.1463  0.1071 -0.0632
  402loPI   GL1 6421  12.753  10.032  10.965  0.1604  0.0815 -0.1115
  402loPI   GL2 6422  12.619   9.861  10.806 -0.0665 -0.2585  0.3917
  402loPI   C1A 6423  12.929  10.119  10.550  0.1510 -0.1258 -0.3789
  402loPI   C2A 6424  12.978  10.120  10.166 -0.0428  0.1062 -0.1117
  402loPI   C3A 6425  12.896  10.066   9.818 -0.3055 -0.2725  0.0960
  402loPI   C4A 6426  12.874  10.068   9.361 -0.1959 -0.1196  0.2791
  402loPI   C5A 6427  12.877  10.033   8.906 -0.0522 -0.1373  0.2312
  402loPI   C6A 6428  13.250  10.135   8.559 -0.0607  0.1937 -0.1192
  402loPI   C1B 6429  12.663   9.738  10.415  0.0250 -0.0458 -0.1623
  402loPI   C2B 6430  12.658   9.687  10.040 -0.0488 -0.2661 -0.1666
  402loPI   C3B 6431  12.656   9.652   9.674  0.2537 -0.3884 -0.2651
  402loPI   C4B 6432  12.617   9.656   9.165 -0.1531  0.3359  0.1627
  403loPI    C1 6433  16.882  13.962  11.508  0.1221  0.2854  0.2065
  403loPI    C2 6434  16.496  13.999  11.608  0.0155  0.3011 -0.1924
  403loPI    C3 6435  16.778  14.175  11.831 -0.1824  0.0724  0.2540
  403loPI   PO4 6436  16.879  13.983  11.261 -0.0053 -0.2193 -0.1683
  403loPI   GL1 6437  16.936  13.947  10.838  0.2449  0.2087  0.1688
  403loPI   GL2 6438  17.071  13.709  10.684 -0.0114 -0.1317 -0.2408
  403loPI   C1A 6439  16.741  14.102  10.417 -0.1091  0.4194 -0.3186
  403loPI   C2A 6440  16.821  14.058   9.975  0.2366  0.2733  0.1930
  403loPI   C3A 6441  16.730  14.066   9.516  0.0124 -0.1013  0.1865
  403loPI   C4A 6442  16.843  14.074   9.177 -0.0948  0.1279 -0.2127
  403loPI   C5A 6443  16.639  14.010   8.759 -0.0044 -0.0474 -0.2333
  403loPI   C6A 6444  16.248  13.943   8.513  0.0642 -0.3083  0.0285
  403loPI   C1B 6445  17.041  13.657  10.178  0.0919 -0.0604 -0.0451
  403loPI   C2B 6446  17.076  13.628   9.726  0.1534  0.1969 -0.0932
  403loPI   C3B 6447  17.036  13.618   9.294  0.0258 -0.0823 -0.2400
  403loPI   C4B 6448  16.925  13.593   8.939 -0.2339  0.7481  0.1155
  404loPI    C1 6449   6.202   0.384  11.569 -0.0067  0.1218  0.1157
  404loPI    C2 6450   5.949   0.082  11.636  0.0754  0.0569  0.1358
  404loPI    C3 6451   5.982   0.378  11.903  0.2207 -0.0748  0.2647
  404loPI   PO4 6452   6.092   0.500  11.286 -0.1173  0.2405 -0.0266
  404loPI   GL1 6453   5.863   0.518  10.875  0.1541  0.0026 -0.2299
  404loPI   GL2 6454   5.780   0.911  10.766 -0.3259  0.0465 -0.1192
  404loPI   C1A 6455   6.040   0.491  10.512 -0.1382 -0.1457 -0.0555
  404loPI   C2A 6456   6.019   0.586  10.046  0.1135  0.0245 -0.1278
  404loPI   C3A 6457   6.060   0.587   9.625  0.3142 -0.0814  0.3176
  404loPI   C4A 6458   6.040   0.703   9.250 -0.0028 -0.1687  0.0610
  404loPI   C5A 6459   6.030   0.605   8.853 -0.1264  0.2450  0.3144
  404loPI   C6A 6460   6.207   0.719   8.478  0.1350  0.4812 -0.0469
  404loPI   C1B 6461   5.674   1.026  10.301  0.2155  0.0278  0.1415
  404loPI   C2B 6462   5.792   1.001   9.899  0.0410 -0.0972 -0.2129
  404loPI   C3B 6463   5.755   1.080   9.513 -0.1376 -0.3775  0.3210
  404loPI   C4B 6464   5.772   1.097   9.070  0.2019  0.1078  0.1759
  405loPI    C1 6465   0.914   8.513  11.566 -0.0489  0.0987  0.0748
  405loPI    C2 6466   0.633   8.709  11.771 -0.0895  0.0320  0.0833
  405loPI    C3 6467   0.895   8.477  11.964 -0.1760 -0.0921  0.0528
  405loPI   PO4 6468   0.649   8.443  11.304 -0.1320  0.1462  0.1322
  405loPI   GL1 6469   0.354   8.572  11.009 -0.4797  0.1993 -0.1542
  405loPI   GL2 6470   0.163   8.332  10.851  0.0191 -0.0430 -0.1637
  405loPI   C1A 6471   0.254   8.705  10.553  0.0477  0.1292  0.2737
  405loPI   C2A 6472   0.370   8.800  10.099 -0.3177  0.1521 -0.1971
  405loPI   C3A 6473   0.342   8.739   9.675  0.1670  0.0309  0.0641
  405loPI   C4A 6474   0.312   8.664   9.238 -0.0539 -0.1473 -0.0132
  405loPI   C5A 6475   0.247   8.650   8.780  0.0304 -0.2201 -0.1033
  405loPI   C6A 6476  -0.050   8.381   8.897 -0.0784  0.1557  0.0935
  405loPI   C1B 6477  -0.003   8.220  10.507  0.1956  0.2942 -0.0769
  405loPI   C2B 6478   0.106   8.277  10.219 -0.2051  0.0319  0.0822
  405loPI   C3B 6479   0.087   8.296   9.810  0.2824  0.1234 -0.1006
  405loPI   C4B 6480   0.103   8.239   9.393  0.1046 -0.0713 -0.0593
  406loPI    C1 6481  13.561   4.491  11.236  0.0241  0.0148  0.0867
  406loPI    C2 6482  13.430   4.660  11.574  0.3021  0.3620  0.0262
  406loPI    C3 6483  13.722   4.387  11.587  0.0906  0.1351  0.0922
  406loPI   PO4 6484  13.396   4.611  11.069  0.2235 -0.0419 -0.0834
  406loPI   GL1 6485  13.423   4.793  10.606 -0.1485  0.2081  0.1467
  406loPI   GL2 6486  13.156   4.502  10.564 -0.0062  0.1057  0.0925
  406loPI   C1A 6487  13.421   4.843  10.247 -0.1634 -0.0169  0.0858
  406loPI   C2A 6488  13.410   4.768   9.833 -0.1224 -0.1715  0.1073
  406loPI   C3A 6489  13.254   5.024   9.469  0.2325  0.4133  0.0802
  406loPI   C4A 6490  13.510   5.186   9.154 -0.0634 -0.0775 -0.3179
  406loPI   C5A 6491  13.696   5.115   8.743 -0.1200  0.3302 -0.1706
  406loPI   C6A 6492  13.830   5.373   8.444 -0.0048  0.0873 -0.4091
  406loPI   C1B 6493  13.124   4.444  10.177 -0.1338  0.1466  0.0559
  406loPI   C2B 6494  13.120   4.388   9.716  0.2793  0.0932 -0.2179
  406loPI   C3B 6495  12.926   4.185   9.311  0.0616 -0.1379  0.0598
  406loPI   C4B 6496  12.996   4.172   8.878  0.0764  0.1075  0.1071
  407loPI    C1 6497  10.762   9.799  11.317 -0.0286  0.0213  0.1220
  407loPI    C2 6498  10.420   9.626  11.430  0.0078 -0.0806  0.0770
  407loPI    C3 6499  10.689   9.735  11.705 -0.0890  0.0588  0.1168
  407loPI   PO4 6500  10.695   9.833  11.074  0.0375  0.0712  0.0966
  407loPI   GL1 6501  10.755   9.705  10.610 -0.1438  0.1390 -0.2085
  407loPI   GL2 6502  10.844  10.052  10.603 -0.0789  0.2209 -0.1872
  407loPI   C1A 6503  10.572   9.583  10.322 -0.2627 -0.0739  0.1455
  407loPI   C2A 6504  10.602   9.569   9.850  0.1050 -0.0088  0.0600
  407loPI   C3A 6505  10.644   9.596   9.443 -0.2590 -0.1201 -0.0180
  407loPI   C4A 6506  10.559   9.688   9.001 -0.0620  0.0034 -0.0605
  407loPI   C5A 6507  10.523   9.723   8.541  0.0296  0.0518  0.0119
  407loPI   C6A 6508  10.407   9.983   8.232  0.1548  0.1072 -0.0786
  407loPI   C1B 6509  10.893  10.052  10.202 -0.0257 -0.1266  0.0558
  407loPI   C2B 6510  10.903   9.985   9.811  0.2738 -0.1585  0.1228
  407loPI   C3B 6511  10.850  10.029   9.330  0.4327 -0.1526  0.0206
  407loPI   C4B 6512  10.865  10.083   8.924  0.4532  0.0971 -0.1344
  408loPI    C1 6513  17.814  17.516  11.698 -0.0311 -0.0600  0.0085
  408loPI    C2 6514  17.682  17.890  11.751  0.0574 -0.0262 -0.0088
  408loPI    C3 6515  17.990  17.755  11.966  0.1185 -0.0418 -0.1053
  408loPI   PO4 6516  17.783  17.511  11.341  0.0160  0.2643 -0.2521
  408loPI   GL1 6517  17.665  17.627  10.951 -0.1590  0.1620 -0.3544
  408loPI   GL2 6518  17.681  17.239  10.898  0.1143 -0.3708 -0.0964
  408loPI   C1A 6519  17.748  17.632  10.493  0.1777 -0.0104  0.0882
  408loPI   C2A 6520  17.849  17.733  10.150  0.1101  0.1509  0.0500
  408loPI   C3A 6521  17.845  17.680   9.620  0.0946 -0.3090 -0.0504
  408loPI   C4A 6522  17.841  17.660   9.147  0.0300  0.0422 -0.0071
  408loPI   C5A 6523  17.847  17.479   8.753  0.2377  0.4412  0.1308
  408loPI   C6A 6524  17.992  17.177   8.452 -0.2486  0.2015 -0.0916
  408loPI   C1B 6525  17.422  17.216  10.571  0.0470 -0.0303 -0.1014
  408loPI   C2B 6526  17.489  17.330  10.200 -0.1014  0.2996 -0.0970
  408loPI   C3B 6527  17.621  17.348   9.896  0.1747 -0.2149 -0.1347
  408loPI   C4B 6528  17.671  17.243   9.473  0.1778 -0.1114  0.0369
  409loPI    C1 6529   7.648   0.819  11.162  0.0897  0.1993  0.0837
  409loPI    C2 6530   7.457   0.606  11.441  0.0684 -0.0863 -0.1454
  409loPI    C3 6531   7.672   0.925  11.547  0.0290 -0.1681  0.1926
  409loPI   PO4 6532   7.509   0.719  10.939 -0.0639  0.2258 -0.4752
  409loPI   GL1 6533   7.648   0.505  10.636 -0.0063 -0.2821 -0.1355
  409loPI   GL2 6534   7.404   0.226  10.529  0.0675  0.2514 -0.1216
  409loPI   C1A 6535   7.713   0.564  10.270  0.0112 -0.1502 -0.0339
  409loPI   C2A 6536   7.652   0.588   9.823  0.0660  0.4253  0.2740
  409loPI   C3A 6537   7.587   0.653   9.372  0.1044 -0.1157  0.2042
  409loPI   C4A 6538   7.644   0.680   8.950 -0.2625  0.0696  0.0757
  409loPI   C5A 6539   7.551   0.737   8.610  0.1100  0.0126 -0.2573
  409loPI   C6A 6540   7.644   1.104   8.388  0.3014  0.3417 -0.0212
  409loPI   C1B 6541   7.343   0.225  10.049 -0.0574  0.3529  0.0909
  409loPI   C2B 6542   7.341   0.165   9.703  0.3593 -0.0328 -0.0806
  409loPI   C3B 6543   7.343   0.215   9.308 -0.1354  0.1640  0.2699
  409loPI   C4B 6544   7.327   0.216   8.956  0.0194 -0.3021 -0.0623
  410loPI    C1 6545  11.365  15.059  11.629  0.0201  0.1859  0.0990
  410loPI    C2 6546  11.637  14.766  11.599  0.0528  0.2089  0.1680
  410loPI    C3 6547  11.379  14.769  11.905 -0.0962  0.1278  0.0448
  410loPI   PO4 6548  11.276  15.097  11.277 -0.0407 -0.0562  0.2885
  410loPI   GL1 6549  11.369  15.106  10.799  0.0378 -0.4885  0.2481
  410loPI   GL2 6550  11.151  14.710  10.859 -0.0789 -0.0001 -0.1875
  410loPI   C1A 6551  11.229  15.016  10.426  0.0178 -0.0678 -0.1256
  410loPI   C2A 6552  11.167  14.980  10.039 -0.1450 -0.3164 -0.0761
  410loPI   C3A 6553  11.206  15.086   9.603 -0.2408 -0.2134 -0.2358
  410loPI   C4A 6554  11.121  15.010   9.154 -0.1511  0.2384  0.2981
  410loPI   C5A 6555  11.157  14.964   8.728 -0.0048  0.1314 -0.3297
  410loPI   C6A 6556  10.843  14.803   8.448 -0.2751 -0.2986 -0.0638
  410loPI   C1B 6557  11.003  14.599  10.400  0.0579 -0.1197 -0.0582
  410loPI   C2B 6558  10.953  14.565   9.982 -0.2664  0.2264  0.0675
  410loPI   C3B 6559  10.895  14.548   9.510 -0.0920  0.0550 -0.1040
  410loPI   C4B 6560  10.874  14.581   9.077  0.1926 -0.2206 -0.1960
  411loPI    C1 6561  15.053   3.514  11.321  0.2052 -0.0545 -0.0992
  411loPI    C2 6562  14.743   3.649  11.534  0.2277  0.0037 -0.1032
  411loPI    C3 6563  14.726   3.288  11.363  0.2301 -0.0657  0.0413
  411loPI   PO4 6564  15.054   3.666  11.106 -0.2029  0.0379  0.2934
  411loPI   GL1 6565  14.884   3.634  10.690  0.0502 -0.0596  0.0249
  411loPI   GL2 6566  14.948   3.820  10.424  0.2189  0.2667  0.2071
  411loPI   C1A 6567  15.130   3.367  10.326  0.1301 -0.0208 -0.0849
  411loPI   C2A 6568  15.227   3.267   9.835 -0.1786  0.1948  0.4018
  411loPI   C3A 6569  15.204   3.385   9.403  0.0513 -0.0674  0.0902
  411loPI   C4A 6570  15.196   3.227   8.996  0.1766 -0.0865  0.0416
  411loPI   C5A 6571  15.001   3.246   8.728  0.1192  0.0703 -0.0024
  411loPI   C6A 6572  14.627   3.186   8.412  0.1083  0.1882  0.2039
  411loPI   C1B 6573  14.939   3.777   9.971  0.1104  0.0045  0.2492
  411loPI   C2B 6574  15.035   3.817   9.565  0.1128  0.2728  0.4175
  411loPI   C3B 6575  14.995   3.900   9.286 -0.0334 -0.0326 -0.1663
  411loPI   C4B 6576  15.069   3.801   8.847  0.0570 -0.0165 -0.0285
  412loPI    C1 6577   1.675   2.581  11.621  0.2992  0.1722 -0.2557
  412loPI    C2 6578   1.610   2.814  11.940  0.1176  0.0107 -0.1722
  412loPI    C3 6579   1.893   2.532  11.952  0.0673 -0.0381 -0.1304
  412loPI   PO4 6580   1.706   2.727  11.429  0.2534 -0.2814  0.0850
  412loPI   GL1 6581   1.790   2.614  11.038 -0.1244  0.3108 -0.0391
  412loPI   GL2 6582   1.674   2.247  10.905  0.0537  0.0088 -0.2242
  412loPI   C1A 6583   1.606   2.665  10.621 -0.2020  0.1532 -0.0689
  412loPI   C2A 6584   1.610   2.808  10.289 -0.0948  0.0814  0.1216
  412loPI   C3A 6585   1.581   2.725   9.827 -0.0458 -0.3287 -0.0984
  412loPI   C4A 6586   1.579   2.924   9.429  0.1010 -0.1062  0.1282
  412loPI   C5A 6587   1.641   2.961   8.990  0.0021  0.1714 -0.1183
  412loPI   C6A 6588   1.760   3.329   8.717  0.1467 -0.0537 -0.1147
  412loPI   C1B 6589   1.856   2.242  10.484 -0.0371 -0.0354 -0.0413
  412loPI   C2B 6590   1.911   2.371  10.135 -0.0468 -0.0214  0.0333
  412loPI   C3B 6591   1.892   2.347   9.753 -0.1096  0.0783  0.1892
  412loPI   C4B 6592   1.911   2.358   9.393 -0.1847  0.1123  0.0890
  413loPI    C1 6593  11.597   4.488  10.647 -0.2647  0.1032  0.0767
  413loPI    C2 6594  11.599   4.471  11.046  0.1926  0.0661  0.0781
  413loPI    C3 6595  11.655   4.138  10.831  0.2221  0.1297 -0.0131
  413loPI   PO4 6596  11.817   4.720  10.610 -0.1032  0.1579 -0.0041
  413loPI   GL1 6597  12.016   4.761  10.257 -0.2867 -0.1341 -0.0307
  413loPI   GL2 6598  11.930   5.118  10.154  0.2033  0.0115  0.0761
  413loPI   C1A 6599  12.198   4.632   9.820  0.0044  0.0747 -0.2627
  413loPI   C2A 6600  12.239   4.613   9.363  0.2139  0.0769 -0.0799
  413loPI   C3A 6601  12.129   4.565   8.922  0.2418  0.1119 -0.2324
  413loPI   C4A 6602  12.201   4.900   8.605 -0.1009  0.0107  0.4163
  413loPI   C5A 6603  12.157   5.221   8.420  0.2860  0.0080  0.3593
  413loPI   C6A 6604  12.127   5.549   8.043  0.3077 -0.1621 -0.3492
  413loPI   C1B 6605  11.819   5.078   9.757 -0.0283  0.1769  0.3633
  413loPI   C2B 6606  11.997   5.038   9.382  0.0299  0.0158 -0.0653
  413loPI   C3B 6607  12.389   5.037   9.098 -0.2370 -0.1778 -0.0769
  413loPI   C4B 6608  12.606   5.174   8.667  0.1969  0.2459 -0.0015
  414loPI    C1 6609   7.984   9.465  11.466  0.1143  0.2258 -0.0358
  414loPI    C2 6610   8.031   9.465  11.863  0.1410  0.1833 -0.0390
  414loPI    C3 6611   8.010   9.811  11.665  0.1431  0.2044 -0.0023
  414loPI   PO4 6612   7.814   9.307  11.383  0.1344 -0.0017  0.0855
  414loPI   GL1 6613   7.713   9.215  10.984  0.0507  0.0956  0.1863
  414loPI   GL2 6614   8.005   9.137  10.787  0.1064 -0.1456 -0.0186
  414loPI   C1A 6615   7.349   9.145  10.686  0.1955 -0.0830 -0.2821
  414loPI   C2A 6616   7.377   9.162  10.212 -0.1519 -0.1927  0.0212
  414loPI   C3A 6617   7.339   9.107   9.710  0.0711 -0.0371 -0.1194
  414loPI   C4A 6618   7.385   9.081   9.305 -0.0302  0.3461  0.0096
  414loPI   C5A 6619   7.284   9.141   8.820 -0.3758 -0.1555  0.3483
  414loPI   C6A 6620   7.093   8.714   8.613 -0.0902 -0.2773  0.0469
  414loPI   C1B 6621   7.895   9.131  10.343 -0.2390 -0.2292 -0.2190
  414loPI   C2B 6622   7.821   9.112   9.875 -0.0853 -0.3794  0.3751
  414loPI   C3B 6623   7.898   9.208   9.435 -0.2019  0.5207 -0.0466
  414loPI   C4B 6624   7.775   9.246   9.025 -0.1637  0.0152  0.4618
  415loPI    C1 6625   9.889  11.361  11.827  0.0496 -0.5166 -0.1780
  415loPI    C2 6626  10.097  11.494  12.142 -0.2669 -0.1463 -0.1175
  415loPI    C3 6627  10.134  11.113  12.024  0.0526 -0.2204  0.2030
  415loPI   PO4 6628   9.909  11.641  11.718  0.0588  0.1411  0.0641
  415loPI   GL1 6629   9.771  11.694  11.345 -0.0136  0.0984  0.1669
  415loPI   GL2 6630   9.879  11.775  11.075 -0.2570 -0.2198 -0.0321
  415loPI   C1A 6631   9.601  11.389  11.124  0.2513  0.4256 -0.2856
  415loPI   C2A 6632   9.592  11.298  10.635 -0.2234  0.0863 -0.2103
  415loPI   C3A 6633   9.571  11.310  10.207  0.0722  0.0619  0.1383
  415loPI   C4A 6634   9.545  11.395   9.753  0.0597  0.0649  0.1196
  415loPI   C5A 6635   9.508  11.434   9.372 -0.0031 -0.0400  0.0544
  415loPI   C6A 6636   9.528  11.552   9.059  0.1056  0.1619 -0.1148
  415loPI   C1B 6637   9.848  11.751  10.600 -0.0888 -0.0434 -0.3543
  415loPI   C2B 6638   9.825  11.851  10.203 -0.0516  0.1843 -0.1471
  415loPI   C3B 6639   9.820  11.807   9.758  0.0632 -0.2175 -0.1365
  415loPI   C4B 6640   9.780  11.891   9.381  0.2003 -0.4085  0.0013
  416loPI    C1 6641  17.324   7.663  11.412  0.1424  0.1491 -0.0000
  416loPI    C2 6642  17.538   7.426  11.652 -0.0177  0.0966  0.0922
  416loPI    C3 6643  17.262   7.671  11.807 -0.0807  0.1054 -0.0325
  416loPI   PO4 6644  17.157   7.624  11.288  0.1455 -0.3035 -0.1631
  416loPI   GL1 6645  16.972   7.761  10.921 -0.1904 -0.0304 -0.0364
  416loPI   GL2 6646  16.707   7.721  10.754 -0.1713 -0.0719 -0.0727
  416loPI   C1A 6647  17.217   7.782  10.623  0.2179  0.1513 -0.2319
  416loPI   C2A 6648  17.291   7.805  10.232 -0.3158  0.0915  0.2076
  416loPI   C3A 6649  17.289   7.772   9.768  0.6354  0.1190  0.1335
  416loPI   C4A 6650  17.301   7.886   9.386 -0.1023  0.4625  0.2387
  416loPI   C5A 6651  17.230   7.794   8.973 -0.1090 -0.2074 -0.3904
  416loPI   C6A 6652  17.104   7.332   8.833 -0.0859  0.1756  0.0547
  416loPI   C1B 6653  16.743   7.870  10.313 -0.1408  0.0225 -0.1019
  416loPI   C2B 6654  16.745   7.770   9.921  0.1073  0.1069 -0.0663
  416loPI   C3B 6655  16.801   7.835   9.503  0.0057  0.1296 -0.0006
  416loPI   C4B 6656  16.720   7.837   9.056 -0.0452 -0.0454  0.1892
  417loPI    C1 6657   9.737  15.845  11.490  0.1452 -0.1841 -0.2238
  417loPI    C2 6658   9.778  15.483  11.656  0.1841 -0.1517 -0.1623
  417loPI    C3 6659   9.896  15.809  11.856  0.0145 -0.0925 -0.1574
  417loPI   PO4 6660   9.704  15.774  11.185  0.1315  0.2406 -0.0665
  417loPI   GL1 6661   9.590  15.934  10.819 -0.0223 -0.0003  0.1766
  417loPI   GL2 6662   9.218  15.806  10.760 -0.1217  0.2162 -0.1288
  417loPI   C1A 6663   9.644  15.853  10.370 -0.0446 -0.0205  0.0122
  417loPI   C2A 6664   9.698  15.823  10.005  0.3411 -0.1443 -0.1611
  417loPI   C3A 6665   9.713  15.928   9.563 -0.0259 -0.2502  0.0393
  417loPI   C4A 6666   9.703  16.041   9.107 -0.0787  0.0965 -0.1247
  417loPI   C5A 6667   9.831  15.926   8.578  0.1036  0.1600  0.4468
  417loPI   C6A 6668   9.582  15.837   8.198 -0.0154 -0.2601 -0.3512
  417loPI   C1B 6669   9.169  15.798  10.362 -0.2236  0.1400  0.0053
  417loPI   C2B 6670   9.129  15.853   9.967  0.1011  0.0749  0.2309
  417loPI   C3B 6671   9.204  15.922   9.549 -0.1530 -0.3131 -0.0048
  417loPI   C4B 6672   9.228  15.988   9.062  0.1934  0.2759 -0.0749
  418loPI    C1 6673  11.847  15.279  11.433  0.1008 -0.0594  0.1862
  418loPI    C2 6674  11.580  15.496  11.636  0.1516  0.2784 -0.0987
  418loPI    C3 6675  11.952  15.633  11.585  0.2565  0.0089 -0.0734
  418loPI   PO4 6676  11.799  15.229  11.223 -0.0220  0.1015  0.3931
  418loPI   GL1 6677  11.892  15.080  10.813 -0.1745 -0.2880 -0.2667
  418loPI   GL2 6678  12.192  15.188  10.595 -0.0643  0.2639  0.0444
  418loPI   C1A 6679  11.752  15.079  10.328  0.0352 -0.0652  0.0569
  418loPI   C2A 6680  11.698  14.951   9.851 -0.3134 -0.4872  0.1845
  418loPI   C3A 6681  11.656  14.992   9.411 -0.1447 -0.1274 -0.5498
  418loPI   C4A 6682  11.609  14.952   8.936 -0.1264  0.0551  0.0269
  418loPI   C5A 6683  11.805  14.955   8.531 -0.1596 -0.0728 -0.2583
  418loPI   C6A 6684  11.784  15.370   8.145 -0.0171 -0.0398 -0.0117
  418loPI   C1B 6685  12.234  15.025  10.129  0.3377  0.1666 -0.0661
  418loPI   C2B 6686  12.232  15.038   9.755 -0.2090 -0.1759  0.0306
  418loPI   C3B 6687  12.220  15.029   9.349 -0.1067  0.2707  0.2702
  418loPI   C4B 6688  12.187  15.045   8.954 -0.4272  0.0632 -0.0883
  419loPI    C1 6689  12.741  11.245  11.472  0.1261  0.0177  0.0713
  419loPI    C2 6690  12.500  11.025  11.704 -0.1248  0.1408 -0.0679
  419loPI    C3 6691  12.606  11.394  11.818  0.0721  0.0537  0.0350
  419loPI   PO4 6692  12.620  11.155  11.249  0.0291  0.0371 -0.0943
  419loPI   GL1 6693  12.585  11.348  10.801 -0.1877  0.0028 -0.1353
  419loPI   GL2 6694  12.531  11.713  10.741  0.0379 -0.0926  0.0819
  419loPI   C1A 6695  12.635  11.413  10.372  0.0122  0.3984 -0.0398
  419loPI   C2A 6696  12.641  11.439   9.952  0.0869 -0.0099 -0.0990
  419loPI   C3A 6697  12.597  11.442   9.541 -0.2572  0.0469  0.2289
  419loPI   C4A 6698  12.600  11.558   9.030  0.2405 -0.0744  0.1892
  419loPI   C5A 6699  12.673  11.500   8.649 -0.0879  0.2563 -0.0008
  419loPI   C6A 6700  12.671  11.507   8.163  0.0282  0.3266  0.0309
  419loPI   C1B 6701  12.340  11.853  10.262 -0.1887 -0.4117  0.2432
  419loPI   C2B 6702  12.337  11.885   9.838 -0.0140 -0.2266 -0.0618
  419loPI   C3B 6703  12.362  11.868   9.376 -0.1019 -0.2011  0.0598
  419loPI   C4B 6704  12.341  12.051   8.905  0.1109  0.1729 -0.2494
  420loPI    C1 6705   8.228   1.867  11.224 -0.2070 -0.0529 -0.0314
  420loPI    C2 6706   8.393   1.684  11.540  0.3218  0.1749 -0.1632
  420loPI    C3 6707   8.018   1.823  11.562  0.2189 -0.1462  0.2293
  420loPI   PO4 6708   8.339   1.786  10.939 -0.2411  0.1033  0.0008
  420loPI   GL1 6709   8.239   1.796  10.517 -0.0419 -0.1224  0.4964
  420loPI   GL2 6710   8.153   1.426  10.500  0.3176  0.0386 -0.4172
  420loPI   C1A 6711   7.948   1.886  10.146  0.0761 -0.5103  0.0128
  420loPI   C2A 6712   7.770   2.016   9.757  0.0456 -0.0570 -0.2861
  420loPI   C3A 6713   7.714   1.979   9.300 -0.0084  0.1035 -0.1543
  420loPI   C4A 6714   7.880   1.904   8.871 -0.1280 -0.1412 -0.0479
  420loPI   C5A 6715   7.695   2.047   8.497 -0.2185 -0.1647 -0.0406
  420loPI   C6A 6716   7.842   2.357   8.433 -0.2342 -0.0163 -0.1614
  420loPI   C1B 6717   8.209   1.468  10.055 -0.1326 -0.1462  0.3528
  420loPI   C2B 6718   8.141   1.494   9.626  0.1345 -0.4806 -0.1203
  420loPI   C3B 6719   8.121   1.532   9.114 -0.1467  0.1030  0.2698
  420loPI   C4B 6720   8.535   1.781   8.906 -0.1974 -0.1058  0.1527
  421loPI    C1 6721   0.800   0.841  11.481  0.0171  0.0320  0.1914
  421loPI    C2 6722   0.649   1.208  11.527 -0.3544 -0.0846 -0.0544
  421loPI    C3 6723   0.548   0.916  11.782 -0.1993 -0.0609  0.0357
  421loPI   PO4 6724   0.720   0.816  11.190  0.1300  0.1117  0.2376
  421loPI   GL1 6725   0.811   0.827  10.705  0.1548  0.0408  0.1260
  421loPI   GL2 6726   0.880   1.143  10.690 -0.0307  0.0480 -0.3055
  421loPI   C1A 6727   0.857   0.479  10.232 -0.1061 -0.4190 -0.3074
  421loPI   C2A 6728   0.869   0.530   9.810  0.1596 -0.2269  0.1186
  421loPI   C3A 6729   0.876   0.603   9.367  0.0139  0.1034 -0.0338
  421loPI   C4A 6730   0.832   0.629   8.945 -0.1204 -0.2181  0.3755
  421loPI   C5A 6731   1.024   0.769   8.572  0.1586  0.2919 -0.1403
  421loPI   C6A 6732   1.096   1.020   8.227  0.1634 -0.0489  0.2260
  421loPI   C1B 6733   0.824   1.357  10.394  0.2219  0.1898  0.4592
  421loPI   C2B 6734   0.878   1.434   9.983 -0.1770  0.0685  0.0361
  421loPI   C3B 6735   0.938   1.449   9.585  0.2683 -0.0167  0.0219
  421loPI   C4B 6736   0.887   1.490   9.124 -0.0385  0.0638  0.2720
  422loPI    C1 6737  10.498   8.709  11.130 -0.1666  0.1258 -0.1355
  422loPI    C2 6738  10.366   8.682  11.507  0.0210 -0.0623 -0.0815
  422loPI    C3 6739  10.756   8.636  11.427  0.0114  0.1723 -0.2765
  422loPI   PO4 6740  10.434   8.942  10.948  0.3373 -0.2282 -0.1045
  422loPI   GL1 6741  10.343   9.163  10.549  0.0140 -0.2256 -0.2519
  422loPI   GL2 6742  10.026   9.063  10.579  0.2643  0.0901  0.1806
  422loPI   C1A 6743  10.392   9.197  10.064  0.3591  0.0217 -0.0924
  422loPI   C2A 6744  10.336   9.240   9.555  0.1393 -0.2957  0.1483
  422loPI   C3A 6745  10.324   9.287   9.182 -0.0074 -0.0202  0.1440
  422loPI   C4A 6746  10.448   9.214   8.775  0.0719 -0.2874 -0.2882
  422loPI   C5A 6747  10.580   9.213   8.442  0.0282  0.2941 -0.0653
  422loPI   C6A 6748  10.521   9.482   8.072 -0.0537  0.0243 -0.0715
  422loPI   C1B 6749   9.912   9.148  10.204 -0.3358 -0.0520 -0.0411
  422loPI   C2B 6750   9.871   9.175   9.793  0.1663  0.0024  0.1830
  422loPI   C3B 6751   9.760   9.230   9.384 -0.0125  0.1977  0.2000
  422loPI   C4B 6752   9.827   9.248   8.890 -0.1183  0.0646  0.3071
  423loPI    C1 6753   2.809  10.237  11.647  0.1472 -0.0485  0.1661
  423loPI    C2 6754   2.818  10.624  11.746 -0.1211  0.0731 -0.2568
  423loPI    C3 6755   2.533  10.387  11.894  0.0732  0.0213  0.0425
  423loPI   PO4 6756   2.843  10.276  11.302 -0.0259  0.0006 -0.0367
  423loPI   GL1 6757   2.602  10.159  11.040  0.0427 -0.1271  0.0772
  423loPI   GL2 6758   2.504  10.455  10.925 -0.4788 -0.1288 -0.0397
  423loPI   C1A 6759   2.651   9.976  10.654  0.2076 -0.3535  0.2809
  423loPI   C2A 6760   2.628   9.982  10.202  0.2024  0.0406  0.2385
  423loPI   C3A 6761   2.651  10.061   9.696  0.1442  0.0677  0.3501
  423loPI   C4A 6762   2.754  10.010   9.236  0.1361 -0.0851  0.0631
  423loPI   C5A 6763   2.744  10.201   8.898 -0.1491 -0.2038  0.1081
  423loPI   C6A 6764   2.902  10.164   8.470 -0.1009  0.1333  0.0661
  423loPI   C1B 6765   2.444  10.433  10.563 -0.0441  0.2953 -0.2831
  423loPI   C2B 6766   2.443  10.457  10.134 -0.2622  0.2189 -0.0811
  423loPI   C3B 6767   2.355  10.516   9.775 -0.1266  0.1526 -0.0905
  423loPI   C4B 6768   2.389  10.649   9.290 -0.0510 -0.2558  0.2053
  424loPI    C1 6769   2.739   2.080  11.650 -0.0464 -0.1509 -0.0405
  424loPI    C2 6770   2.433   2.320  11.743 -0.1379 -0.2722 -0.0257
  424loPI    C3 6771   2.756   2.308  11.978 -0.1221 -0.1450 -0.0403
  424loPI   PO4 6772   2.773   2.093  11.338 -0.0781 -0.2168 -0.2676
  424loPI   GL1 6773   2.771   2.067  10.944 -0.1342  0.0568 -0.1002
  424loPI   GL2 6774   2.643   1.876  10.691 -0.0231 -0.1654 -0.1319
  424loPI   C1A 6775   2.877   2.325  10.636  0.0311  0.3832 -0.0405
  424loPI   C2A 6776   3.001   2.424  10.179  0.0615  0.1513 -0.0358
  424loPI   C3A 6777   2.881   2.377   9.756 -0.0867 -0.2459  0.2146
  424loPI   C4A 6778   2.934   2.485   9.340  0.0515  0.1624  0.1682
  424loPI   C5A 6779   2.899   2.461   8.906 -0.1419  0.0401 -0.3843
  424loPI   C6A 6780   2.636   2.538   8.698  0.0438  0.0917  0.0856
  424loPI   C1B 6781   2.644   1.778  10.246 -0.3164  0.0770  0.0118
  424loPI   C2B 6782   2.654   1.918   9.793 -0.0352  0.0145  0.1614
  424loPI   C3B 6783   2.702   1.916   9.394 -0.1140  0.2287  0.1172
  424loPI   C4B 6784   2.771   1.981   8.932 -0.2601  0.1815 -0.0895
  425loPI    C1 6785  15.625  10.980  11.411  0.0148  0.0214  0.0159
  425loPI    C2 6786  15.244  11.067  11.494  0.0678  0.1358  0.1428
  425loPI    C3 6787  15.502  10.996  11.791  0.2043  0.3131  0.0684
  425loPI   PO4 6788  15.669  11.140  11.177 -0.0538  0.1255  0.0165
  425loPI   GL1 6789  15.799  11.250  10.842 -0.2127  0.0101  0.2876
  425loPI   GL2 6790  16.135  11.453  10.967  0.0634  0.3469  0.0112
  425loPI   C1A 6791  15.762  11.424  10.351 -0.0400  0.0924 -0.1303
  425loPI   C2A 6792  15.750  11.447   9.892  0.1226  0.0516 -0.1462
  425loPI   C3A 6793  15.788  11.449   9.513 -0.0934 -0.3067 -0.0717
  425loPI   C4A 6794  15.725  11.437   9.102 -0.0865 -0.1151 -0.2371
  425loPI   C5A 6795  15.857  11.562   8.585  0.0716 -0.2837 -0.1798
  425loPI   C6A 6796  16.054  11.813   8.280 -0.1497  0.1653 -0.3288
  425loPI   C1B 6797  16.245  11.345  10.551 -0.3889 -0.2421  0.0007
  425loPI   C2B 6798  16.314  11.481  10.182  0.4020 -0.2837 -0.0182
  425loPI   C3B 6799  16.266  11.413   9.732  0.1751 -0.0076 -0.1127
  425loPI   C4B 6800  16.272  11.397   9.263  0.2089  0.1253  0.0661
  426loPI    C1 6801   7.553  12.576  11.531 -0.1278  0.0978  0.0644
  426loPI    C2 6802   7.904  12.666  11.701  0.0399 -0.2983 -0.0594
  426loPI    C3 6803   7.620  12.480  11.913 -0.1168  0.0600  0.0531
  426loPI   PO4 6804   7.500  12.365  11.355  0.0426  0.2993  0.0853
  426loPI   GL1 6805   7.433  12.220  10.990  0.0319 -0.0573 -0.1587
  426loPI   GL2 6806   7.497  11.889  10.757  0.1655 -0.0092 -0.1146
  426loPI   C1A 6807   7.587  12.285  10.475  0.1208 -0.0206 -0.0778
  426loPI   C2A 6808   7.584  12.267  10.078 -0.2553 -0.2276 -0.0899
  426loPI   C3A 6809   7.540  12.293   9.611 -0.0004 -0.3136 -0.1772
  426loPI   C4A 6810   7.584  12.238   9.260  0.0007 -0.0926  0.0613
  426loPI   C5A 6811   7.516  12.321   8.905  0.2680 -0.0324 -0.0876
  426loPI   C6A 6812   7.510  12.142   8.477  0.0380 -0.0314  0.1283
  426loPI   C1B 6813   7.343  11.912  10.346  0.0209  0.0963 -0.0093
  426loPI   C2B 6814   7.317  11.863   9.945 -0.1828  0.1099 -0.3083
  426loPI   C3B 6815   7.305  11.822   9.626 -0.0443 -0.1572  0.2214
  426loPI   C4B 6816   7.285  11.918   9.128  0.0039  0.0641  0.0799
  427loPI    C1 6817   8.927  15.868  11.685 -0.2787 -0.2649 -0.0733
  427loPI    C2 6818   9.294  15.715  11.729 -0.1107  0.0444 -0.3578
  427loPI    C3 6819   9.052  15.747  12.046  0.1224 -0.1216 -0.1591
  427loPI   PO4 6820   8.833  15.745  11.430 -0.3696 -0.0275  0.0696
  427loPI   GL1 6821   8.805  15.644  11.082 -0.2418  0.0424  0.0907
  427loPI   GL2 6822   8.961  15.447  10.931 -0.2392 -0.2022  0.2825
  427loPI   C1A 6823   8.737  15.805  10.669  0.0928  0.0218 -0.1008
  427loPI   C2A 6824   8.698  15.814  10.306 -0.1070  0.2826  0.0129
  427loPI   C3A 6825   8.643  15.886   9.861  0.0653 -0.3547 -0.0144
  427loPI   C4A 6826   8.706  15.923   9.487 -0.3242  0.1704  0.4045
  427loPI   C5A 6827   8.671  15.928   9.051  0.2044  0.0131  0.1531
  427loPI   C6A 6828   8.751  15.636   8.744 -0.3139  0.1293  0.0769
  427loPI   C1B 6829   8.938  15.390  10.488 -0.0546  0.1873 -0.0588
  427loPI   C2B 6830   8.943  15.423  10.115  0.2656 -0.0076  0.2047
  427loPI   C3B 6831   8.898  15.467   9.697 -0.1482  0.1837  0.1535
  427loPI   C4B 6832   8.921  15.553   9.253  0.2137 -0.1004 -0.0137
  428loPI    C1 6833   0.547   0.012  11.437 -0.2335  0.1729  0.1083
  428loPI    C2 6834   0.784   0.321  11.528  0.2585 -0.1411 -0.0673
  428loPI    C3 6835   0.781  -0.004  11.761  0.1566 -0.2224 -0.1809
  428loPI   PO4 6836   0.601  -0.054  11.048  0.3417  0.2028  0.0886
  428loPI   GL1 6837   0.672   0.056  10.655 -0.3691  0.1633 -0.0792
  428loPI   GL2 6838   0.433   0.263  10.676  0.1442  0.1783  0.0995
  428loPI   C1A 6839   0.653   0.008  10.268  0.0475  0.1562  0.1297
  428loPI   C2A 6840   0.655   0.090   9.788  0.1338 -0.1627 -0.3488
  428loPI   C3A 6841   0.660   0.125   9.310  0.1992  0.0121  0.1597
  428loPI   C4A 6842   0.626   0.187   8.921  0.1294  0.1891 -0.1031
  428loPI   C5A 6843   0.930   0.274   8.539 -0.2506  0.0832 -0.1688
  428loPI   C6A 6844   0.948   0.521   8.132  0.5805 -0.2126  0.1600
  428loPI   C1B 6845   0.364   0.500  10.392 -0.1740 -0.0397 -0.0142
  428loPI   C2B 6846   0.363   0.657   9.928 -0.0393 -0.1212  0.0303
  428loPI   C3B 6847   0.414   0.570   9.563 -0.4669 -0.2407 -0.0079
  428loPI   C4B 6848   0.366   0.660   9.130 -0.0066 -0.1802 -0.1849
  429loPI    C1 6849  11.348  17.006  11.304 -0.3326 -0.1463 -0.0025
  429loPI    C2 6850  11.240  16.693  11.529  0.0674 -0.2152  0.1014
  429loPI    C3 6851  11.525  16.943  11.657  0.2242 -0.1920 -0.2804
  429loPI   PO4 6852  11.349  16.821  11.033  0.1214  0.0368  0.0866
  429loPI   GL1 6853  11.190  16.743  10.607 -0.3295 -0.0787  0.4656
  429loPI   GL2 6854  10.856  16.863  10.584  0.0842 -0.0709  0.1776
  429loPI   C1A 6855  11.226  16.683  10.166  0.0126  0.1738  0.1795
  429loPI   C2A 6856  11.185  16.762   9.726  0.4053  0.1515  0.1352
  429loPI   C3A 6857  11.167  16.787   9.325  0.0532 -0.1084  0.3477
  429loPI   C4A 6858  11.289  16.867   8.940  0.1804  0.1005  0.2187
  429loPI   C5A 6859  11.229  16.896   8.528  0.0920 -0.1192 -0.3403
  429loPI   C6A 6860  11.585  16.909   8.220  0.0574  0.1068  0.1776
  429loPI   C1B 6861  10.674  16.773  10.124  0.1417 -0.1757 -0.0454
  429loPI   C2B 6862  10.602  16.833   9.763 -0.1599  0.3143 -0.0893
  429loPI   C3B 6863  10.629  16.798   9.284  0.2616  0.0882 -0.0788
  429loPI   C4B 6864  10.744  16.845   8.929  0.1201 -0.3277  0.0607
  430loPI    C1 6865  10.136   4.444  10.854  0.2237  0.0209 -0.2145
  430loPI    C2 6866  10.418   4.430  11.138  0.1401  0.2816 -0.1154
  430loPI    C3 6867  10.059   4.587  11.220  0.0790  0.2600 -0.3363
  430loPI   PO4 6868  10.196   4.223  10.710  0.1479  0.0702 -0.0013
  430loPI   GL1 6869  10.370   4.053  10.354  0.0639  0.0762 -0.2790
  430loPI   GL2 6870  10.263   4.372  10.261  0.0382  0.2438  0.0338
  430loPI   C1A 6871  10.475   3.844  10.050  0.0280 -0.2527  0.1462
  430loPI   C2A 6872  10.331   3.690   9.771 -0.2373 -0.2176  0.0873
  430loPI   C3A 6873  10.330   3.360   9.556 -0.4259  0.2395 -0.0368
  430loPI   C4A 6874  10.037   3.064   9.356 -0.0738  0.1228 -0.0214
  430loPI   C5A 6875   9.911   2.849   9.003 -0.0703  0.0279 -0.0233
  430loPI   C6A 6876   9.778   2.597   8.722 -0.1157 -0.1727  0.0402
  430loPI   C1B 6877  10.265   4.212   9.842 -0.1801  0.2448  0.0816
  430loPI   C2B 6878  10.529   4.202   9.491 -0.3138 -0.3977  0.1097
  430loPI   C3B 6879  10.694   4.395   9.144 -0.0967  0.2601  0.1075
  430loPI   C4B 6880  10.849   4.543   8.685  0.1058  0.0658 -0.0227
  431loPI    C1 6881   2.982  11.289  11.453 -0.1625  0.0814 -0.0932
  431loPI    C2 6882   2.644  11.207  11.651 -0.0174 -0.0248  0.1149
  431loPI    C3 6883   2.996  11.184  11.839  0.1324 -0.2235 -0.1826
  431loPI   PO4 6884   2.910  11.257  11.198 -0.0567  0.1055 -0.0844
  431loPI   GL1 6885   3.061  11.279  10.836 -0.0414 -0.1019 -0.2044
  431loPI   GL2 6886   2.901  11.381  10.551  0.0631  0.0901  0.2159
  431loPI   C1A 6887   3.193  10.925  10.528  0.0839 -0.0374 -0.0639
  431loPI   C2A 6888   3.187  10.797  10.126 -0.1857 -0.0356 -0.0201
  431loPI   C3A 6889   3.249  10.934   9.684 -0.3528  0.0349  0.1166
  431loPI   C4A 6890   3.233  10.996   9.164  0.2832 -0.3380  0.0062
  431loPI   C5A 6891   3.435  10.827   8.714  0.1240  0.2356 -0.0539
  431loPI   C6A 6892   3.538  10.665   8.258 -0.1057  0.0478  0.0689
  431loPI   C1B 6893   2.898  11.297   9.978  0.1613  0.1915  0.1683
  431loPI   C2B 6894   2.925  11.329   9.456 -0.3524  0.3036 -0.0491
  431loPI   C3B 6895   3.015  11.367   8.900 -0.0959  0.1843  0.1432
  431loPI   C4B 6896   3.006  11.444   8.483  0.1981 -0.0666  0.1114
  432loPI    C1 6897   0.873   2.761  11.664 -0.0667 -0.1411 -0.0655
  432loPI    C2 6898   1.194   2.551  11.777 -0.1099 -0.0543  0.2276
  432loPI    C3 6899   1.083   2.874  11.985 -0.1635  0.1426 -0.0987
  432loPI   PO4 6900   0.783   2.647  11.418 -0.0368  0.2424 -0.1285
  432loPI   GL1 6901   0.796   2.851  10.997  0.1420  0.2251  0.0218
  432loPI   GL2 6902   0.590   2.726  10.767 -0.0670  0.0187 -0.0593
  432loPI   C1A 6903   0.883   3.094  10.583  0.1192  0.0778 -0.1298
  432loPI   C2A 6904   0.858   3.253  10.210  0.1598  0.2474 -0.0947
  432loPI   C3A 6905   0.855   3.227   9.694  0.3816 -0.0525 -0.2266
  432loPI   C4A 6906   0.821   3.311   9.195 -0.0486  0.0798  0.0820
  432loPI   C5A 6907   0.793   3.397   8.789 -0.0377 -0.1712 -0.0667
  432loPI   C6A 6908   0.670   3.374   8.385 -0.1004  0.0665  0.0609
  432loPI   C1B 6909   0.617   2.815  10.299  0.0676  0.1563 -0.1540
  432loPI   C2B 6910   0.596   2.862   9.923 -0.1473  0.2254 -0.1284
  432loPI   C3B 6911   0.559   2.896   9.397  0.0030 -0.3798 -0.0931
  432loPI   C4B 6912   0.705   2.748   8.962 -0.0895  0.0309  0.2197
  433loPI    C1 6913   9.258  10.732  11.731 -0.1349 -0.0296 -0.0222
  433loPI    C2 6914   9.129  10.876  12.082  0.2236  0.2040  0.0191
  433loPI    C3 6915   9.317  10.523  12.067 -0.0056  0.0801  0.0246
  433loPI   PO4 6916   9.172  10.948  11.616 -0.0651  0.2953 -0.0650
  433loPI   GL1 6917   9.117  11.143  11.295  0.0319  0.1092  0.3692
  433loPI   GL2 6918   8.819  10.971  11.131  0.1063 -0.1607 -0.4016
  433loPI   C1A 6919   9.129  11.374  10.914 -0.0197  0.0091  0.3331
  433loPI   C2A 6920   9.102  11.347  10.449 -0.0228  0.0057  0.2226
  433loPI   C3A 6921   9.055  11.350  10.036 -0.1301 -0.0757  0.2611
  433loPI   C4A 6922   9.049  11.470   9.559 -0.2211  0.2615  0.0585
  433loPI   C5A 6923   9.067  11.364   9.188 -0.2279 -0.4627 -0.0728
  433loPI   C6A 6924   9.072  11.374   8.737  0.0580 -0.0100 -0.3657
  433loPI   C1B 6925   8.851  10.809  10.728  0.0042  0.0558  0.4031
  433loPI   C2B 6926   8.844  10.933  10.230 -0.3393  0.0274 -0.3274
  433loPI   C3B 6927   8.881  10.893   9.729 -0.5511 -0.1803 -0.2439
  433loPI   C4B 6928   8.792  10.939   9.395  0.2261  0.0928 -0.0181
  434loPI    C1 6929   8.291   3.574  10.864 -0.0888 -0.0753 -0.0093
  434loPI    C2 6930   8.646   3.566  11.049  0.0006 -0.1356 -0.1809
  434loPI    C3 6931   8.358   3.810  11.180  0.0226 -0.2603  0.1075
  434loPI   PO4 6932   8.350   3.533  10.619 -0.0630 -0.0633 -0.0668
  434loPI   GL1 6933   8.291   3.184  10.363  0.1932 -0.1982  0.0237
  434loPI   GL2 6934   8.028   3.395  10.293 -0.2086 -0.1003 -0.0918
  434loPI   C1A 6935   8.236   2.880   9.904  0.0904  0.1398 -0.0983
  434loPI   C2A 6936   8.285   2.853   9.505 -0.1604 -0.1369  0.2817
  434loPI   C3A 6937   8.412   2.794   9.162 -0.0029 -0.0341  0.2038
  434loPI   C4A 6938   8.771   2.765   8.840 -0.3010  0.2930  0.1437
  434loPI   C5A 6939   9.136   2.519   8.785  0.3679 -0.0641  0.0789
  434loPI   C6A 6940   9.332   2.255   8.807  0.0986 -0.0168 -0.1849
  434loPI   C1B 6941   8.161   3.357   9.894 -0.1432  0.1686 -0.0210
  434loPI   C2B 6942   8.065   3.294   9.435 -0.2482 -0.0986  0.0082
  434loPI   C3B 6943   8.194   3.292   9.102 -0.0766 -0.1561 -0.0526
  434loPI   C4B 6944   8.219   3.331   8.639  0.2870 -0.0022 -0.0328
  435loPI    C1 6945   2.594  15.834  11.671 -0.0451  0.2428  0.0295
  435loPI    C2 6946   2.905  15.923  11.906  0.1436 -0.2907 -0.0025
  435loPI    C3 6947   2.557  15.813  12.068  0.0963 -0.1014  0.0278
  435loPI   PO4 6948   2.646  15.753  11.466  0.2632  0.1213  0.2502
  435loPI   GL1 6949   2.588  15.850  11.055  0.1805  0.0779  0.3406
  435loPI   GL2 6950   2.342  15.715  10.911 -0.0896  0.1154 -0.4152
  435loPI   C1A 6951   2.735  16.134  10.810 -0.1883 -0.1017  0.0090
  435loPI   C2A 6952   2.721  16.280  10.313 -0.3403 -0.2486  0.2331
  435loPI   C3A 6953   2.716  16.338   9.898  0.3388  0.0083  0.2081
  435loPI   C4A 6954   2.657  16.353   9.461  0.1600  0.0871 -0.0330
  435loPI   C5A 6955   2.559  16.407   9.039  0.2040  0.0569 -0.0262
  435loPI   C6A 6956   2.705  16.236   8.560  0.0619 -0.2942 -0.0128
  435loPI   C1B 6957   2.399  15.909  10.472 -0.1776 -0.2041 -0.0646
  435loPI   C2B 6958   2.419  15.823   9.953  0.3178  0.2589 -0.1007
  435loPI   C3B 6959   2.347  15.875   9.560  0.0649 -0.0449 -0.2044
  435loPI   C4B 6960   2.369  15.967   9.169  0.1731 -0.0756  0.1397
  436loPI    C1 6961   0.251   0.913  11.303  0.0961 -0.3044  0.1867
  436loPI    C2 6962  -0.070   0.770  11.495 -0.2676  0.1632 -0.0533
  436loPI    C3 6963   0.082   1.125  11.597  0.0469  0.0408 -0.0851
  436loPI   PO4 6964   0.165   0.897  11.013 -0.2008  0.1878 -0.5440
  436loPI   GL1 6965  -0.117   0.989  10.664  0.1865  0.3341 -0.2558
  436loPI   GL2 6966  -0.412   1.040  10.571 -0.0154  0.1167 -0.1909
  436loPI   C1A 6967  -0.034   0.953  10.243  0.1187 -0.2189 -0.0288
  436loPI   C2A 6968   0.071   1.070   9.816 -0.0117 -0.2987  0.0288
  436loPI   C3A 6969   0.099   1.001   9.484 -0.0803  0.1456 -0.2061
  436loPI   C4A 6970   0.097   1.122   9.066 -0.0383 -0.1928  0.2592
  436loPI   C5A 6971   0.247   0.853   8.695 -0.0495 -0.3559  0.0176
  436loPI   C6A 6972   0.559   0.672   8.514  0.1109  0.0057 -0.0445
  436loPI   C1B 6973  -0.493   1.086  10.152 -0.3395  0.0209 -0.2036
  436loPI   C2B 6974  -0.432   1.044   9.734  0.1294 -0.0663  0.1257
  436loPI   C3B 6975  -0.495   1.062   9.274 -0.2868  0.1094 -0.0094
  436loPI   C4B 6976  -0.462   1.047   8.834 -0.2228 -0.1424 -0.0705
  437loPI    C1 6977   5.513  12.928  11.581 -0.1349  0.0704 -0.0817
  437loPI    C2 6978   5.861  12.914  11.779 -0.0757 -0.0921 -0.1943
  437loPI    C3 6979   5.541  13.087  11.947  0.0147 -0.0908 -0.0216
  437loPI   PO4 6980   5.524  13.033  11.393  0.0767 -0.0520 -0.2064
  437loPI   GL1 6981   5.696  13.108  11.027 -0.0424  0.1472 -0.0949
  437loPI   GL2 6982   5.935  13.212  11.019  0.1908 -0.2464  0.1172
  437loPI   C1A 6983   5.519  13.033  10.643 -0.1196  0.0440  0.1708
  437loPI   C2A 6984   5.551  13.167  10.183  0.0305  0.0291  0.0048
  437loPI   C3A 6985   5.526  13.256   9.785 -0.2591 -0.1167 -0.2129
  437loPI   C4A 6986   5.484  13.289   9.466  0.3500 -0.0931 -0.1858
  437loPI   C5A 6987   5.582  13.341   9.065 -0.0554  0.2339  0.3231
  437loPI   C6A 6988   5.966  13.325   8.881  0.2858 -0.1822 -0.1401
  437loPI   C1B 6989   5.999  13.144  10.605 -0.3459  0.1676 -0.4859
  437loPI   C2B 6990   6.060  13.114  10.209 -0.0041 -0.0061 -0.0762
  437loPI   C3B 6991   6.018  13.233   9.747  0.1125  0.0362 -0.0808
  437loPI   C4B 6992   6.018  13.208   9.346  0.0205  0.2034 -0.2333
  438loPI    C1 6993   4.341   6.847  11.549 -0.2314 -0.0545  0.0208
  438loPI    C2 6994   4.076   6.917  11.841 -0.0272 -0.0786  0.2145
  438loPI    C3 6995   4.391   7.159  11.793 -0.2447  0.1315 -0.2109
  438loPI   PO4 6996   4.233   6.815  11.301 -0.1025 -0.1782 -0.2554
  438loPI   GL1 6997   4.184   6.908  10.958 -0.1549 -0.3721  0.1189
  438loPI   GL2 6998   4.299   7.217  10.899  0.0467 -0.0586  0.1273
  438loPI   C1A 6999   4.021   6.851  10.568 -0.1803  0.1953 -0.0649
  438loPI   C2A 7000   4.006   6.887  10.106  0.0307  0.1189 -0.0028
  438loPI   C3A 7001   3.973   6.848   9.692 -0.0013  0.0854 -0.2089
  438loPI   C4A 7002   3.994   6.851   9.187 -0.3414  0.1485 -0.0566
  438loPI   C5A 7003   4.119   6.957   8.815  0.2520  0.1129 -0.0515
  438loPI   C6A 7004   3.876   7.055   8.442  0.0316 -0.1091  0.0442
  438loPI   C1B 7005   4.262   7.270  10.389 -0.1467  0.0641 -0.0413
  438loPI   C2B 7006   4.255   7.338  10.046 -0.4860 -0.0667 -0.1644
  438loPI   C3B 7007   4.226   7.327   9.665 -0.3079  0.1433  0.1633
  438loPI   C4B 7008   4.245   7.333   9.225  0.1155  0.0951 -0.2622
  439loPI    C1 7009   0.815   4.358  11.385  0.1261  0.0239 -0.0395
  439loPI    C2 7010   0.966   4.542  11.706 -0.1017  0.0174  0.0731
  439loPI    C3 7011   1.005   4.146  11.665 -0.1224  0.0102  0.1219
  439loPI   PO4 7012   0.894   4.460  11.177 -0.1954 -0.1667  0.1252
  439loPI   GL1 7013   0.636   4.429  10.828  0.1357  0.1902  0.0112
  439loPI   GL2 7014   0.519   4.170  10.647  0.3328  0.0503  0.1456
  439loPI   C1A 7015   0.589   4.650  10.434 -0.0755  0.1945 -0.1597
  439loPI   C2A 7016   0.606   4.652   9.949 -0.1015 -0.0961  0.2335
  439loPI   C3A 7017   0.574   4.663   9.528  0.1794  0.0725  0.2304
  439loPI   C4A 7018   0.438   4.629   9.075  0.0537  0.0350 -0.0404
  439loPI   C5A 7019   0.551   4.608   8.565  0.2996 -0.2398 -0.3170
  439loPI   C6A 7020   0.817   4.497   8.278  0.1489  0.2150  0.0924
  439loPI   C1B 7021   0.322   4.195  10.213 -0.2051  0.2251  0.0727
  439loPI   C2B 7022   0.309   4.209   9.799 -0.0760  0.2059 -0.1545
  439loPI   C3B 7023   0.381   4.195   9.321 -0.0148 -0.1135  0.0357
  439loPI   C4B 7024   0.362   4.233   8.886  0.1780  0.1543  0.2167
  440loPI    C1 7025  15.252   2.665  11.667  0.1733 -0.0735  0.2107
  440loPI    C2 7026  14.989   2.959  11.728 -0.1545 -0.2763 -0.1741
  440loPI    C3 7027  15.357   2.986  11.881 -0.2170  0.2713 -0.0974
  440loPI   PO4 7028  15.205   2.559  11.378  0.1224 -0.0773  0.2279
  440loPI   GL1 7029  15.209   2.604  10.904 -0.1929 -0.3071  0.2818
  440loPI   GL2 7030  15.381   2.868  10.886  0.3448 -0.0529  0.0444
  440loPI   C1A 7031  15.244   2.434  10.438 -0.1278 -0.0870  0.0866
  440loPI   C2A 7032  15.236   2.494  10.076 -0.1021 -0.0122  0.0256
  440loPI   C3A 7033  15.213   2.435   9.614 -0.1807 -0.1448  0.1064
  440loPI   C4A 7034  15.216   2.468   9.271  0.0440  0.3379 -0.0570
  440loPI   C5A 7035  15.298   2.621   8.885 -0.0120  0.2208 -0.1108
  440loPI   C6A 7036  15.513   2.761   8.494  0.0216  0.0116 -0.1185
  440loPI   C1B 7037  15.391   2.920  10.422 -0.1815  0.0878  0.0592
  440loPI   C2B 7038  15.549   2.871   9.947 -0.2233 -0.1624 -0.1423
  440loPI   C3B 7039  15.465   2.878   9.558 -0.1315  0.0800  0.0006
  440loPI   C4B 7040  15.558   2.918   9.173 -0.2418  0.0513 -0.2855
  441loPI    C1 7041   1.912   9.349  11.672  0.1893 -0.1594  0.3866
  441loPI    C2 7042   2.047   9.709  11.780 -0.0804  0.0534  0.0354
  441loPI    C3 7043   1.755   9.534  11.990  0.0096  0.0640  0.1711
  441loPI   PO4 7044   1.809   9.427  11.390 -0.2129  0.0349 -0.0004
  441loPI   GL1 7045   1.748   9.520  10.982 -0.1477 -0.0865 -0.1797
  441loPI   GL2 7046   1.719   9.906  10.964 -0.0441 -0.2239 -0.2024
  441loPI   C1A 7047   1.913   9.462  10.553  0.0017 -0.0698 -0.0573
  441loPI   C2A 7048   1.876   9.612  10.066  0.1926  0.0334  0.1998
  441loPI   C3A 7049   1.940   9.623   9.695  0.3079 -0.2016 -0.0341
  441loPI   C4A 7050   1.929   9.685   9.201  0.1815 -0.1374 -0.0035
  441loPI   C5A 7051   2.116   9.863   8.730 -0.0993  0.2953 -0.2707
  441loPI   C6A 7052   2.409  10.054   8.570  0.0123 -0.1038  0.2623
  441loPI   C1B 7053   1.641  10.036  10.569 -0.0773 -0.1947 -0.1411
  441loPI   C2B 7054   1.637  10.070  10.166 -0.0526  0.1275 -0.0655
  441loPI   C3B 7055   1.726  10.161   9.801 -0.0937 -0.1184 -0.1434
  441loPI   C4B 7056   1.605  10.133   9.353 -0.1608 -0.0140 -0.0014
  442loPI    C1 7057  10.616   9.119  11.413 -0.0225  0.2068 -0.0624
  442loPI    C2 7058  10.741   9.249  11.770  0.2232 -0.4586  0.1086
  442loPI    C3 7059  10.366   9.117  11.725  0.2058 -0.4173  0.1317
  442loPI   PO4 7060  10.841   9.141  11.248  0.0964 -0.1174 -0.2006
  442loPI   GL1 7061  11.028   9.398  10.941 -0.0205  0.0754  0.1306
  442loPI   GL2 7062  10.856   9.200  10.709 -0.0209 -0.1105 -0.0932
  442loPI   C1A 7063  11.168   9.529  10.474 -0.2385  0.1377 -0.1781
  442loPI   C2A 7064  11.136   9.574  10.064  0.1986 -0.1904 -0.1398
  442loPI   C3A 7065  11.159   9.646   9.612 -0.3169 -0.1646  0.0207
  442loPI   C4A 7066  11.109   9.595   9.180 -0.1874 -0.0829  0.0703
  442loPI   C5A 7067  10.978   9.570   8.762 -0.0739 -0.0015 -0.2224
  442loPI   C6A 7068  11.076   9.190   8.586  0.0006 -0.1331 -0.1570
  442loPI   C1B 7069  10.902   9.142  10.265  0.2067  0.3847 -0.1903
  442loPI   C2B 7070  10.904   9.140   9.872  0.5188 -0.2945 -0.1573
  442loPI   C3B 7071  10.895   9.167   9.443 -0.2588 -0.1710  0.0517
  442loPI   C4B 7072  10.852   9.191   9.049  0.1411  0.1218 -0.0579
  443loPI    C1 7073   4.373   1.865  11.338 -0.1318  0.0261 -0.1603
  443loPI    C2 7074   4.557   2.124  11.581 -0.0448 -0.0944 -0.0972
  443loPI    C3 7075   4.325   1.836  11.734 -0.0872 -0.0956 -0.1635
  443loPI   PO4 7076   4.557   1.964  11.051 -0.2953 -0.2818 -0.1656
  443loPI   GL1 7077   4.400   1.938  10.702 -0.1442  0.0091 -0.0949
  443loPI   GL2 7078   4.122   1.738  10.547 -0.2437 -0.3346  0.0937
  443loPI   C1A 7079   4.287   2.002  10.157  0.0779 -0.1441  0.1557
  443loPI   C2A 7080   4.188   1.902   9.700 -0.1470 -0.1198  0.0253
  443loPI   C3A 7081   4.187   1.945   9.195 -0.2359  0.1880 -0.2888
  443loPI   C4A 7082   4.311   1.791   8.766 -0.0155  0.2696  0.0489
  443loPI   C5A 7083   4.794   1.640   8.653  0.0330 -0.0564  0.2125
  443loPI   C6A 7084   5.009   1.473   8.276  0.0474 -0.2333  0.1065
  443loPI   C1B 7085   3.739   1.948  10.415  0.1416 -0.1038  0.0294
  443loPI   C2B 7086   3.680   1.963   9.966 -0.0810  0.3728  0.0184
  443loPI   C3B 7087   3.763   1.971   9.424  0.0405  0.0784  0.2242
  443loPI   C4B 7088   3.696   1.949   8.991 -0.1353  0.0789 -0.1534
  444loPI    C1 7089   7.134   3.908  11.388  0.0432  0.1402 -0.2526
  444loPI    C2 7090   7.462   3.679  11.398 -0.0042  0.0741 -0.2075
  444loPI    C3 7091   7.105   3.522  11.488 -0.0273  0.1818 -0.1089
  444loPI   PO4 7092   7.015   4.053  11.057  0.0376 -0.0218 -0.0924
  444loPI   GL1 7093   6.923   4.074  10.666  0.3437  0.0337 -0.0750
  444loPI   GL2 7094   6.931   3.802  10.651 -0.0520 -0.2276 -0.2345
  444loPI   C1A 7095   6.657   4.194  10.468  0.0388  0.2159 -0.0410
  444loPI   C2A 7096   6.511   4.254  10.007 -0.0796  0.1974 -0.3071
  444loPI   C3A 7097   6.514   4.250   9.603  0.0876 -0.1247 -0.0404
  444loPI   C4A 7098   6.505   4.159   9.150 -0.3166 -0.0613  0.3410
  444loPI   C5A 7099   6.481   3.895   8.765  0.2940 -0.5839 -0.1970
  444loPI   C6A 7100   6.268   3.560   8.471  0.1012  0.1884  0.2211
  444loPI   C1B 7101   6.912   3.609  10.286  0.0198 -0.0905  0.0077
  444loPI   C2B 7102   6.736   3.811   9.902  0.0819 -0.0681  0.0776
  444loPI   C3B 7103   6.765   3.824   9.532  0.0268 -0.1575 -0.2326
  444loPI   C4B 7104   6.897   3.757   9.110 -0.1136  0.1835  0.4840
  445loPI    C1 7105  14.884   4.598  11.245  0.0940 -0.0007 -0.1163
  445loPI    C2 7106  14.554   4.593  11.471 -0.0727  0.0568 -0.3559
  445loPI    C3 7107  14.776   4.924  11.449  0.2034 -0.0908  0.0890
  445loPI   PO4 7108  14.850   4.531  11.053  0.0056 -0.0153 -0.0798
  445loPI   GL1 7109  14.655   4.351  10.684 -0.0280 -0.1372  0.0198
  445loPI   GL2 7110  14.585   4.078  10.624 -0.1792 -0.0245 -0.2734
  445loPI   C1A 7111  14.910   4.614  10.441  0.2965 -0.1762 -0.0707
  445loPI   C2A 7112  14.978   4.596   9.975 -0.1434 -0.2476  0.0714
  445loPI   C3A 7113  14.942   4.655   9.555 -0.0060  0.3093 -0.1644
  445loPI   C4A 7114  14.945   4.772   9.094 -0.0075  0.0734 -0.0140
  445loPI   C5A 7115  15.126   4.632   8.681 -0.1652 -0.1477  0.0481
  445loPI   C6A 7116  15.319   4.633   8.254 -0.0136 -0.0118  0.0088
  445loPI   C1B 7117  14.629   4.132  10.179 -0.0216  0.0805 -0.1558
  445loPI   C2B 7118  14.725   4.197   9.711  0.1335  0.2759 -0.1360
  445loPI   C3B 7119  14.721   4.340   9.254  0.0311  0.1225 -0.4312
  445loPI   C4B 7120  14.718   4.259   8.902 -0.1187  0.1816  0.1309
  446loPI    C1 7121   1.722   8.883  11.861 -0.2887 -0.0458 -0.2743
  446loPI    C2 7122   1.501   9.150  12.061  0.0989  0.1307 -0.0716
  446loPI    C3 7123   1.462   8.759  12.138  0.0321  0.1774  0.1375
  446loPI   PO4 7124   1.591   8.983  11.506  0.0502  0.0980 -0.0566
  446loPI   GL1 7125   1.721   9.013  11.029  0.0148 -0.0848 -0.2800
  446loPI   GL2 7126   2.107   9.077  10.900 -0.0483  0.0217 -0.0855
  446loPI   C1A 7127   1.650   9.106  10.688  0.1402 -0.0403 -0.1205
  446loPI   C2A 7128   1.725   9.146  10.224 -0.3297  0.1938 -0.1342
  446loPI   C3A 7129   1.626   9.147   9.847  0.1052  0.1505  0.1781
  446loPI   C4A 7130   1.670   9.290   9.451  0.0008 -0.1592 -0.0258
  446loPI   C5A 7131   1.619   9.236   9.074 -0.1486  0.0254 -0.0482
  446loPI   C6A 7132   1.270   9.384   8.751 -0.0867  0.1313 -0.0569
  446loPI   C1B 7133   2.165   9.037  10.448 -0.1961  0.1345 -0.1897
  446loPI   C2B 7134   2.242   9.121  10.063 -0.0266  0.2139  0.0357
  446loPI   C3B 7135   2.089   9.105   9.726 -0.0610  0.2548  0.2259
  446loPI   C4B 7136   2.181   9.247   9.277  0.3048 -0.1186 -0.2098
  447loPI    C1 7137   4.711   3.593  11.593 -0.2493  0.1715 -0.0034
  447loPI    C2 7138   4.920   3.795  11.867  0.1253  0.0043 -0.1596
  447loPI    C3 7139   4.593   3.591  11.975  0.2180  0.0127  0.1462
  447loPI   PO4 7140   4.701   3.752  11.412 -0.1049  0.1599  0.1344
  447loPI   GL1 7141   4.653   3.809  10.957  0.0574  0.0722 -0.1872
  447loPI   GL2 7142   4.965   3.734  10.861  0.2356  0.2244 -0.3218
  447loPI   C1A 7143   4.598   4.156  10.765  0.0961  0.0038  0.0451
  447loPI   C2A 7144   4.521   4.197  10.286 -0.0669 -0.1184  0.0310
  447loPI   C3A 7145   4.588   4.220   9.924  0.0222 -0.3509 -0.0361
  447loPI   C4A 7146   4.487   4.245   9.481  0.0100  0.0820 -0.0757
  447loPI   C5A 7147   4.568   4.240   9.017  0.0068  0.3332 -0.0677
  447loPI   C6A 7148   4.293   4.091   8.681  0.0904  0.1552  0.3068
  447loPI   C1B 7149   4.772   3.742  10.459 -0.0480  0.1756  0.0133
  447loPI   C2B 7150   4.740   3.685  10.023  0.1061 -0.2560 -0.1573
  447loPI   C3B 7151   4.741   3.837   9.585  0.2075 -0.1217  0.2040
  447loPI   C4B 7152   4.762   3.811   9.190  0.2849  0.1659  0.0220
  448loPI    C1 7153   0.586  17.130  11.651 -0.1114 -0.0912  0.0671
  448loPI    C2 7154   0.743  17.464  11.805 -0.0014 -0.0182 -0.1964
  448loPI    C3 7155   0.422  17.297  11.975  0.1679  0.0095  0.1601
  448loPI   PO4 7156   0.573  17.110  11.414  0.0090 -0.0285 -0.1100
  448loPI   GL1 7157   0.749  17.127  10.974 -0.1214 -0.1048 -0.0102
  448loPI   GL2 7158   0.583  17.412  10.865 -0.2654  0.0385  0.0125
  448loPI   C1A 7159   0.824  16.857  10.666  0.4701  0.0996  0.0365
  448loPI   C2A 7160   0.896  16.727  10.226 -0.0885 -0.3654 -0.0807
  448loPI   C3A 7161   0.927  16.768   9.816  0.2539  0.1489  0.2597
  448loPI   C4A 7162   0.909  16.767   9.362 -0.0225  0.1723 -0.3749
  448loPI   C5A 7163   0.812  16.826   8.936 -0.0327  0.3054  0.0432
  448loPI   C6A 7164   1.014  16.987   8.567 -0.1497 -0.2354 -0.1572
  448loPI   C1B 7165   0.572  17.272  10.466 -0.1564  0.2218 -0.1198
  448loPI   C2B 7166   0.631  17.120  10.055  0.3426 -0.0970 -0.0634
  448loPI   C3B 7167   0.620  17.229   9.569 -0.0667 -0.1455  0.1911
  448loPI   C4B 7168   0.677  17.277   9.150 -0.0568 -0.3546 -0.1643
  449loPI    C1 7169  11.575  13.777  11.603 -0.0153 -0.2873 -0.0008
  449loPI    C2 7170  11.473  13.757  11.989 -0.1221 -0.2450 -0.0264
  449loPI    C3 7171  11.814  13.590  11.863  0.1238  0.1037  0.1607
  449loPI   PO4 7172  11.453  13.902  11.502  0.4420 -0.0813 -0.0343
  449loPI   GL1 7173  11.294  14.109  11.104 -0.1731 -0.0334  0.3467
  449loPI   GL2 7174  11.503  13.926  10.852 -0.0839 -0.1010  0.0534
  449loPI   C1A 7175  11.287  14.290  10.685 -0.1872  0.3429  0.1394
  449loPI   C2A 7176  11.202  14.063  10.221 -0.0368 -0.4554  0.0171
  449loPI   C3A 7177  11.193  14.132   9.833 -0.2346  0.3932 -0.0716
  449loPI   C4A 7178  11.190  14.074   9.464 -0.1182 -0.2256  0.0590
  449loPI   C5A 7179  11.087  14.098   9.003  0.1440 -0.2832 -0.4099
  449loPI   C6A 7180  11.193  13.859   8.677  0.1022 -0.2196 -0.1037
  449loPI   C1B 7181  11.437  13.729  10.511 -0.1019  0.1465 -0.2104
  449loPI   C2B 7182  11.434  13.659  10.083 -0.0637 -0.0117 -0.0409
  449loPI   C3B 7183  11.398  13.604   9.597 -0.3569  0.0644  0.0029
  449loPI   C4B 7184  11.400  13.662   9.190  0.1108 -0.0026 -0.4095
  450loPI    C1 7185   0.791   6.884  11.644  0.0489  0.1187 -0.1167
  450loPI    C2 7186   0.499   7.157  11.642 -0.0179  0.0523  0.1796
  450loPI    C3 7187   0.433   6.794  11.796  0.1188 -0.0798 -0.0670
  450loPI   PO4 7188   0.841   6.914  11.291  0.3336  0.1935  0.0100
  450loPI   GL1 7189   0.906   6.892  10.852  0.0635  0.3595  0.2037
  450loPI   GL2 7190   0.607   7.102  10.806 -0.1244  0.1885 -0.1229
  450loPI   C1A 7191   0.884   6.886  10.359 -0.2287 -0.0842  0.0456
  450loPI   C2A 7192   0.927   6.849   9.902  0.1346  0.0843 -0.0932
  450loPI   C3A 7193   0.846   6.831   9.442  0.2046 -0.2225  0.2084
  450loPI   C4A 7194   0.867   6.830   9.033  0.1895 -0.2440 -0.1610
  450loPI   C5A 7195   1.163   6.901   8.760 -0.0381 -0.3523 -0.0821
  450loPI   C6A 7196   1.541   6.602   8.564  0.1229 -0.0463 -0.2270
  450loPI   C1B 7197   0.554   7.391  10.402  0.1947  0.0631 -0.5043
  450loPI   C2B 7198   0.668   7.365   9.953 -0.0475  0.1846  0.2450
  450loPI   C3B 7199   0.642   7.301   9.512 -0.1501 -0.1259 -0.1382
  450loPI   C4B 7200   0.658   7.340   9.012 -0.1211 -0.2817 -0.1304
  451loPI    C1 7201  15.573  12.609  11.554 -0.1356  0.0061  0.1491
  451loPI    C2 7202  15.717  12.364  11.835  0.1324  0.0190  0.0259
  451loPI    C3 7203  15.873  12.729  11.789  0.1284 -0.0040 -0.1767
  451loPI   PO4 7204  15.545  12.433  11.352  0.1287  0.0148 -0.0526
  451loPI   GL1 7205  15.695  12.070  11.091  0.1227  0.0985  0.0240
  451loPI   GL2 7206  15.688  12.374  10.893  0.3802  0.1356 -0.0563
  451loPI   C1A 7207  15.918  11.897  10.701  0.0991  0.0217  0.1261
  451loPI   C2A 7208  15.876  11.979  10.280  0.0139  0.0978 -0.1553
  451loPI   C3A 7209  16.077  11.852   9.989 -0.1476  0.3765 -0.0999
  451loPI   C4A 7210  15.962  11.923   9.617 -0.1664 -0.0390 -0.2037
  451loPI   C5A 7211  16.037  11.862   9.245 -0.1507 -0.0969  0.3005
  451loPI   C6A 7212  16.155  11.791   8.890  0.0562  0.2082  0.0309
  451loPI   C1B 7213  15.625  12.375  10.452  0.0344  0.2586 -0.0389
  451loPI   C2B 7214  15.654  12.336  10.025  0.0688  0.3295  0.2030
  451loPI   C3B 7215  15.739  12.367   9.644 -0.0236 -0.0352  0.0264
  451loPI   C4B 7216  15.780  12.265   9.180 -0.0947  0.0550 -0.2883
  452loPI    C1 7217   2.825  15.224  11.491 -0.0630  0.0325  0.1876
  452loPI    C2 7218   3.119  15.423  11.676 -0.0289  0.0856  0.0771
  452loPI    C3 7219   2.752  15.416  11.835 -0.0195  0.1996  0.1046
  452loPI   PO4 7220   2.870  15.353  11.200  0.0595 -0.1424 -0.1730
  452loPI   GL1 7221   2.965  15.612  10.867 -0.0348  0.0607  0.1319
  452loPI   GL2 7222   3.167  15.921  10.827 -0.2915  0.1923 -0.1193
  452loPI   C1A 7223   2.618  15.492  10.622 -0.2175  0.1511 -0.0243
  452loPI   C2A 7224   2.642  15.420  10.166  0.2130 -0.2056  0.2972
  452loPI   C3A 7225   2.679  15.393   9.693  0.1399 -0.2778 -0.0382
  452loPI   C4A 7226   2.707  15.514   9.226 -0.0254 -0.0120 -0.2892
  452loPI   C5A 7227   2.523  15.614   8.876  0.0567 -0.0697 -0.4200
  452loPI   C6A 7228   2.576  15.794   8.445 -0.2454  0.0372 -0.0815
  452loPI   C1B 7229   2.964  15.820  10.371 -0.1497 -0.0378 -0.1526
  452loPI   C2B 7230   2.927  15.793  10.015 -0.2447 -0.2124  0.1366
  452loPI   C3B 7231   2.898  15.857   9.560  0.0442 -0.0282 -0.2603
  452loPI   C4B 7232   2.849  15.981   9.012 -0.1747 -0.0573 -0.0365
  453loPI    C1 7233   6.842   9.385  11.394  0.0245 -0.0303 -0.0349
  453loPI    C2 7234   7.033   9.047  11.492  0.1883  0.0172 -0.1858
  453loPI    C3 7235   6.881   9.281  11.779  0.3405 -0.0307 -0.0647
  453loPI   PO4 7236   6.762   9.313  11.196 -0.0623  0.0719  0.2423
  453loPI   GL1 7237   6.880   9.117  10.848 -0.1353  0.2328  0.2055
  453loPI   GL2 7238   7.096   8.828  11.014  0.2137 -0.1963 -0.0087
  453loPI   C1A 7239   6.779   9.102  10.403 -0.1723  0.3695  0.0041
  453loPI   C2A 7240   6.757   9.097   9.946 -0.0304 -0.2284 -0.0479
  453loPI   C3A 7241   6.857   9.146   9.481  0.1896  0.6164  0.1601
  453loPI   C4A 7242   6.838   9.093   8.977 -0.3500 -0.3460  0.2593
  453loPI   C5A 7243   6.773   9.195   8.543 -0.1548  0.2242  0.2174
  453loPI   C6A 7244   7.154   9.215   8.352  0.0386  0.3578 -0.1138
  453loPI   C1B 7245   7.092   8.714  10.534 -0.0021 -0.1998  0.0314
  453loPI   C2B 7246   7.119   8.761  10.088 -0.1504  0.0036 -0.5292
  453loPI   C3B 7247   7.063   8.685   9.702 -0.1432 -0.1070 -0.1009
  453loPI   C4B 7248   7.026   8.722   9.277  0.0906  0.0037 -0.1958
  454loPI    C1 7249   4.210   8.234  11.766  0.1117 -0.0853 -0.0311
  454loPI    C2 7250   4.383   8.588  11.835 -0.1072  0.0093  0.0417
  454loPI    C3 7251   4.291   8.347  12.141  0.0055 -0.0942 -0.0051
  454loPI   PO4 7252   4.359   8.195  11.472 -0.0631  0.3131  0.2941
  454loPI   GL1 7253   4.496   8.263  11.008  0.0824  0.4784  0.3137
  454loPI   GL2 7254   4.796   8.086  10.944  0.0699 -0.1397  0.1983
  454loPI   C1A 7255   4.255   8.187  10.654 -0.0670  0.1806 -0.1317
  454loPI   C2A 7256   4.277   8.138  10.218  0.0455  0.4667 -0.0560
  454loPI   C3A 7257   4.169   8.211   9.736 -0.0300  0.1282  0.0498
  454loPI   C4A 7258   4.254   8.296   9.283  0.0058  0.2337 -0.0954
  454loPI   C5A 7259   4.225   8.222   8.938 -0.3665  0.0829 -0.1891
  454loPI   C6A 7260   4.414   8.119   8.600 -0.1534  0.0369  0.3440
  454loPI   C1B 7261   4.841   8.172  10.535  0.1392  0.0140 -0.1691
  454loPI   C2B 7262   4.752   8.202  10.010 -0.0488 -0.0329  0.1797
  454loPI   C3B 7263   4.714   8.180   9.552  0.1354 -0.3784  0.0725
  454loPI   C4B 7264   4.727   8.187   9.139  0.0969 -0.0539 -0.1024
  455loPI    C1 7265   4.630  15.104  11.471  0.1544 -0.1293 -0.1606
  455loPI    C2 7266   4.889  15.375  11.610  0.1670 -0.1518 -0.1402
  455loPI    C3 7267   4.838  15.029  11.804 -0.1593  0.0093  0.0703
  455loPI   PO4 7268   4.612  15.147  11.130  0.0182 -0.1499  0.1550
  455loPI   GL1 7269   4.293  15.132  10.756  0.2764  0.2068 -0.1626
  455loPI   GL2 7270   4.437  14.929  10.714 -0.3064  0.0319  0.0618
  455loPI   C1A 7271   3.971  15.372  10.655  0.0979 -0.1095 -0.0738
  455loPI   C2A 7272   3.752  15.461  10.200 -0.1453  0.0171 -0.2236
  455loPI   C3A 7273   3.700  15.465   9.679 -0.0062 -0.0817 -0.0203
  455loPI   C4A 7274   3.741  15.557   9.240 -0.1746 -0.2747  0.0194
  455loPI   C5A 7275   3.698  15.494   8.799 -0.0054 -0.0599 -0.0514
  455loPI   C6A 7276   3.429  15.604   8.376  0.2188 -0.3198 -0.0902
  455loPI   C1B 7277   4.461  14.993  10.288  0.2348 -0.0715 -0.1198
  455loPI   C2B 7278   4.648  14.980   9.899  0.0637  0.0952 -0.1402
  455loPI   C3B 7279   4.597  15.100   9.555 -0.2209 -0.1926  0.1094
  455loPI   C4B 7280   4.536  15.124   9.029  0.3255 -0.1069  0.1298
  456loPI    C1 7281  17.030  10.712  11.561  0.0061 -0.2972  0.1033
  456loPI    C2 7282  17.079  10.563  11.929  0.0315 -0.2371  0.1243
  456loPI    C3 7283  17.322  10.851  11.796 -0.2394  0.0391  0.2165
  456loPI   PO4 7284  16.996  10.478  11.299 -0.3969  0.0411  0.1552
  456loPI   GL1 7285  17.153  10.478  10.873  0.2167  0.0636  0.0158
  456loPI   GL2 7286  17.142  10.199  10.889 -0.2234 -0.0274 -0.0772
  456loPI   C1A 7287  17.330  10.594  10.447 -0.0499 -0.0263 -0.1026
  456loPI   C2A 7288  17.357  10.503   9.972 -0.1695  0.1495 -0.1780
  456loPI   C3A 7289  17.326  10.516   9.542 -0.2982  0.0938 -0.1098
  456loPI   C4A 7290  17.346  10.537   9.107 -0.1093 -0.0327 -0.0553
  456loPI   C5A 7291  17.366  10.371   8.667  0.0163 -0.1291  0.1857
  456loPI   C6A 7292  17.392  10.198   8.304  0.0445 -0.0310  0.1779
  456loPI   C1B 7293  17.031  10.076  10.371 -0.0682 -0.3872 -0.2376
  456loPI   C2B 7294  17.022  10.107  10.019  0.3150 -0.0353  0.0283
  456loPI   C3B 7295  17.035  10.126   9.531 -0.3189  0.0134 -0.1332
  456loPI   C4B 7296  17.022  10.132   9.022 -0.0082  0.0019 -0.1088
  457loPI    C1 7297  16.139  15.415  11.714 -0.1004 -0.3472 -0.3008
  457loPI    C2 7298  16.222  15.055  11.869 -0.1521 -0.2065  0.0629
  457loPI    C3 7299  15.842  15.170  11.822 -0.1358 -0.2044 -0.0685
  457loPI   PO4 7300  16.310  15.438  11.564  0.0452 -0.2605  0.1887
  457loPI   GL1 7301  16.347  15.476  11.222  0.1604  0.5004 -0.2313
  457loPI   GL2 7302  15.968  15.454  11.142 -0.0804  0.2810  0.0943
  457loPI   C1A 7303  16.550  15.467  10.890  0.1962 -0.2300 -0.0959
  457loPI   C2A 7304  16.516  15.509  10.486  0.2057 -0.1012 -0.0195
  457loPI   C3A 7305  16.549  15.481  10.072 -0.0510  0.3805 -0.0510
  457loPI   C4A 7306  16.589  15.457   9.648  0.0029 -0.3686 -0.1376
  457loPI   C5A 7307  16.534  15.524   9.239 -0.1148  0.1164 -0.2740
  457loPI   C6A 7308  16.515  15.649   8.793  0.4127 -0.1487  0.1494
  457loPI   C1B 7309  15.970  15.543  10.758 -0.0020  0.0810  0.0724
  457loPI   C2B 7310  16.030  15.505  10.220  0.0817  0.1372 -0.3041
  457loPI   C3B 7311  16.043  15.416   9.859 -0.0085  0.2190 -0.0235
  457loPI   C4B 7312  16.077  15.475   9.456 -0.1249 -0.2591  0.2547
  458loPI    C1 7313   9.652   1.314  10.925 -0.0711  0.1326  0.1879
  458loPI    C2 7314   9.851   1.624  10.769  0.0050  0.0483  0.1165
  458loPI    C3 7315   9.669   1.661  11.123  0.3059  0.0700  0.2722
  458loPI   PO4 7316   9.504   1.188  10.672  0.2422  0.0129  0.0621
  458loPI   GL1 7317   9.455   1.251  10.212  0.2049  0.2061 -0.3089
  458loPI   GL2 7318   9.763   1.441  10.253 -0.0756 -0.1235 -0.1225
  458loPI   C1A 7319   9.422   1.204   9.762 -0.1695  0.0194  0.1816
  458loPI   C2A 7320   9.443   1.142   9.247  0.0501  0.1157  0.2591
  458loPI   C3A 7321   9.606   1.177   8.791 -0.0986 -0.1910  0.2776
  458loPI   C4A 7322   9.997   1.168   8.618 -0.0795  0.3013  0.0085
  458loPI   C5A 7323  10.352   1.369   8.757  0.0449  0.0908  0.1754
  458loPI   C6A 7324  10.769   1.581   8.856  0.1714  0.2069 -0.2868
  458loPI   C1B 7325  10.053   1.450  10.007  0.2416 -0.4204 -0.0181
  458loPI   C2B 7326  10.494   1.761   9.715 -0.1691  0.1833 -0.3391
  458loPI   C3B 7327  10.509   2.082   9.375  0.2030 -0.0714  0.1186
  458loPI   C4B 7328  10.706   2.124   8.907  0.2813  0.1057  0.1206
  459loPI    C1 7329   4.824  11.379  11.458  0.0869 -0.1448 -0.0774
  459loPI    C2 7330   4.784  11.017  11.623 -0.1127 -0.0483  0.0907
  459loPI    C3 7331   4.904  11.327  11.847  0.1514 -0.0279 -0.0745
  459loPI   PO4 7332   4.860  11.325  11.213  0.1610 -0.4158  0.1408
  459loPI   GL1 7333   5.109  11.458  10.852  0.0147 -0.0275  0.1066
  459loPI   GL2 7334   5.304  11.623  10.784 -0.3320 -0.0963  0.3686
  459loPI   C1A 7335   5.033  11.324  10.360 -0.0792  0.3359  0.0337
  459loPI   C2A 7336   5.023  11.339   9.907  0.0732 -0.0445 -0.0347
  459loPI   C3A 7337   4.948  11.450   9.486  0.0922 -0.1016  0.0550
  459loPI   C4A 7338   4.911  11.413   9.044  0.1664 -0.1071 -0.0174
  459loPI   C5A 7339   4.889  11.655   8.728 -0.0931 -0.2118 -0.0236
  459loPI   C6A 7340   4.830  11.981   8.468 -0.2737 -0.2104 -0.1913
  459loPI   C1B 7341   5.304  11.789  10.290  0.0627  0.0176  0.0920
  459loPI   C2B 7342   5.239  11.908   9.832 -0.1775 -0.1070 -0.1123
  459loPI   C3B 7343   5.201  11.928   9.369  0.0129  0.2156  0.0576
  459loPI   C4B 7344   5.209  11.890   8.967 -0.0247 -0.0602  0.2337
  460loPI    C1 7345   4.032   6.047  11.723  0.0100  0.2474 -0.0228
  460loPI    C2 7346   3.633   6.024  11.752  0.0127  0.0590 -0.1250
  460loPI    C3 7347   3.859   6.018  12.082 -0.0591 -0.0405 -0.0773
  460loPI   PO4 7348   4.136   6.224  11.465  0.0311 -0.1379 -0.4054
  460loPI   GL1 7349   4.194   6.145  11.109 -0.3406 -0.1004  0.4117
  460loPI   GL2 7350   4.360   6.376  11.053 -0.2535 -0.1131 -0.0089
  460loPI   C1A 7351   4.057   5.949  10.671 -0.2530 -0.1936  0.2640
  460loPI   C2A 7352   4.062   6.035  10.230  0.1041  0.5175  0.4122
  460loPI   C3A 7353   3.968   5.937   9.776  0.1039  0.1715 -0.2021
  460loPI   C4A 7354   3.926   6.035   9.334  0.2908  0.0586  0.2851
  460loPI   C5A 7355   3.945   5.927   8.952 -0.0034  0.1346  0.2501
  460loPI   C6A 7356   3.630   5.868   8.792  0.1713  0.3358  0.1049
  460loPI   C1B 7357   4.267   6.447  10.604 -0.2630 -0.0041 -0.4268
  460loPI   C2B 7358   4.276   6.462  10.176  0.3502 -0.2296  0.0367
  460loPI   C3B 7359   4.199   6.394   9.789 -0.3151  0.0634 -0.0105
  460loPI   C4B 7360   4.197   6.473   9.365  0.3220  0.0085 -0.1405
  461loPI    C1 7361   4.885   4.922  11.633  0.2873 -0.0394 -0.3055
  461loPI    C2 7362   5.081   4.628  11.822  0.2503 -0.0210 -0.2379
  461loPI    C3 7363   4.841   4.872  12.028 -0.0346 -0.1952 -0.3577
  461loPI   PO4 7364   5.083   5.035  11.439 -0.0710  0.0833  0.2563
  461loPI   GL1 7365   5.011   5.280  11.045  0.1743 -0.1927  0.1266
  461loPI   GL2 7366   5.083   5.056  10.810  0.0678 -0.1115  0.1197
  461loPI   C1A 7367   4.865   5.462  10.711  0.2329  0.2298 -0.2381
  461loPI   C2A 7368   4.840   5.556  10.202 -0.0309 -0.1064 -0.1251
  461loPI   C3A 7369   4.689   5.614   9.780  0.0527  0.0299 -0.0942
  461loPI   C4A 7370   4.782   5.549   9.398  0.3437 -0.2727 -0.0760
  461loPI   C5A 7371   4.655   5.493   8.954 -0.0046  0.0843  0.0002
  461loPI   C6A 7372   4.709   5.331   8.529 -0.0036 -0.1270  0.3685
  461loPI   C1B 7373   5.024   5.037  10.422 -0.1660 -0.0054  0.0478
  461loPI   C2B 7374   5.070   5.162   9.918  0.0880 -0.1300 -0.0940
  461loPI   C3B 7375   5.016   5.099   9.503 -0.0208  0.1846 -0.0149
  461loPI   C4B 7376   5.070   5.239   9.047 -0.1392 -0.0812 -0.0150
  462loPI    C1 7377   8.929  13.121  11.736 -0.0229 -0.2222 -0.0022
  462loPI    C2 7378   9.320  13.156  11.811  0.0085 -0.0654 -0.2294
  462loPI    C3 7379   9.069  13.049  12.104  0.2110 -0.0982 -0.0653
  462loPI   PO4 7380   8.976  13.104  11.363 -0.2059 -0.1496 -0.1787
  462loPI   GL1 7381   9.124  13.343  11.026 -0.3113  0.1894 -0.2425
  462loPI   GL2 7382   9.334  13.156  10.724  0.0969  0.2992  0.0761
  462loPI   C1A 7383   8.989  13.536  10.641 -0.1941 -0.0611  0.0697
  462loPI   C2A 7384   8.893  13.675  10.270 -0.0877  0.2063 -0.1646
  462loPI   C3A 7385   8.907  13.623   9.771  0.0127 -0.0181 -0.0936
  462loPI   C4A 7386   8.943  13.714   9.342 -0.0712 -0.0531 -0.2177
  462loPI   C5A 7387   9.084  13.954   8.943 -0.3044  0.1468 -0.2269
  462loPI   C6A 7388   9.144  14.266   8.657  0.2519 -0.1840 -0.0028
  462loPI   C1B 7389   9.209  13.234  10.278  0.0558  0.0699  0.2110
  462loPI   C2B 7390   9.116  13.128   9.909  0.2381  0.1468  0.1166
  462loPI   C3B 7391   9.134  13.276   9.465  0.2290 -0.1723 -0.2714
  462loPI   C4B 7392   9.078  13.285   9.150  0.0371 -0.5509 -0.0744
  463loPI    C1 7393   2.358   8.542  11.714 -0.0611 -0.1661  0.0041
  463loPI    C2 7394   2.602   8.285  11.899 -0.1111 -0.1375  0.1106
  463loPI    C3 7395   2.669   8.679  11.926  0.0588 -0.1435 -0.1842
  463loPI   PO4 7396   2.451   8.581  11.388  0.1703  0.1960  0.1654
  463loPI   GL1 7397   2.156   8.621  10.997  0.1488  0.0165 -0.3263
  463loPI   GL2 7398   2.080   8.232  10.985 -0.1153  0.0450 -0.1155
  463loPI   C1A 7399   2.444   8.643  10.624  0.1668 -0.1109 -0.1202
  463loPI   C2A 7400   2.484   8.678  10.109  0.2041  0.0779 -0.0394
  463loPI   C3A 7401   2.386   8.724   9.704 -0.0977 -0.0759 -0.4489
  463loPI   C4A 7402   2.359   8.685   9.317 -0.2996  0.1303  0.1543
  463loPI   C5A 7403   2.358   8.467   8.914  0.1706 -0.0307  0.1467
  463loPI   C6A 7404   2.305   8.380   8.431 -0.1273  0.0804 -0.0104
  463loPI   C1B 7405   2.220   8.140  10.671  0.2150  0.0885  0.1766
  463loPI   C2B 7406   2.116   8.239  10.306 -0.3519 -0.0444 -0.0199
  463loPI   C3B 7407   2.138   8.303   9.936 -0.2271 -0.3276 -0.1497
  463loPI   C4B 7408   2.141   8.189   9.541 -0.1648  0.0590  0.0211
  464loPI    C1 7409   1.415  13.678  11.635 -0.0713  0.1553  0.0910
  464loPI    C2 7410   1.110  13.754  11.882 -0.1286 -0.0250  0.0772
  464loPI    C3 7411   1.483  13.742  12.024 -0.1461  0.0177  0.1274
  464loPI   PO4 7412   1.362  13.852  11.407 -0.1097  0.1105  0.0225
  464loPI   GL1 7413   1.190  13.948  11.036  0.0122 -0.3427 -0.2552
  464loPI   GL2 7414   1.518  13.955  10.834  0.0733  0.0380 -0.1006
  464loPI   C1A 7415   1.126  13.627  10.719 -0.0312 -0.1362  0.2335
  464loPI   C2A 7416   1.134  13.674  10.200  0.1051  0.3268 -0.0788
  464loPI   C3A 7417   1.123  13.678   9.721  0.3912  0.0062 -0.3487
  464loPI   C4A 7418   1.172  13.576   9.297  0.2618  0.1850 -0.2920
  464loPI   C5A 7419   1.090  13.737   8.891 -0.0513  0.1949  0.0279
  464loPI   C6A 7420   0.990  13.589   8.452  0.0589  0.0566  0.0446
  464loPI   C1B 7421   1.357  14.037  10.429  0.1566 -0.2192 -0.1040
  464loPI   C2B 7422   1.386  14.120  10.095  0.0981 -0.0924  0.1618
  464loPI   C3B 7423   1.425  14.046   9.785  0.0996 -0.0927 -0.0252
  464loPI   C4B 7424   1.314  14.061   9.367 -0.1064  0.1449  0.2894
  465loPI    C1 7425   5.093  10.148  11.304 -0.0513 -0.1152  0.0173
  465loPI    C2 7426   5.452  10.325  11.295 -0.0649 -0.0873  0.0180
  465loPI    C3 7427   5.265  10.271  11.644 -0.1588  0.0953 -0.0030
  465loPI   PO4 7428   4.933  10.222  11.177 -0.0495  0.0849 -0.2597
  465loPI   GL1 7429   4.796  10.256  10.767  0.1812 -0.0145 -0.2523
  465loPI   GL2 7430   4.870  10.520  10.623  0.3163  0.0003 -0.0613
  465loPI   C1A 7431   4.643  10.099  10.336 -0.5133 -0.2575 -0.1024
  465loPI   C2A 7432   4.746   9.981   9.887  0.1556 -0.0838  0.0346
  465loPI   C3A 7433   4.772  10.078   9.396 -0.3579  0.1199 -0.0717
  465loPI   C4A 7434   4.581   9.959   8.896 -0.2602 -0.0529 -0.0122
  465loPI   C5A 7435   4.891   9.632   8.558  0.0811 -0.1637  0.1253
  465loPI   C6A 7436   5.215   9.444   8.494  0.1954 -0.1588 -0.1664
  465loPI   C1B 7437   5.024  10.440  10.176 -0.0692 -0.0092 -0.2610
  465loPI   C2B 7438   4.957  10.431   9.735  0.0498  0.2559 -0.1416
  465loPI   C3B 7439   5.022  10.634   9.394 -0.3544  0.1099  0.0066
  465loPI   C4B 7440   5.066  10.592   8.896  0.4044  0.2518  0.1326
  466loPI    C1 7441   9.880  17.289  11.220  0.0803 -0.1641  0.1510
  466loPI    C2 7442   9.505  17.386  11.120  0.1755 -0.0302 -0.0856
  466loPI    C3 7443   9.591  17.277  11.495 -0.0508  0.1965  0.0349
  466loPI   PO4 7444   9.965  17.166  11.060 -0.1764 -0.0675  0.0555
  466loPI   GL1 7445   9.785  17.063  10.722  0.1909  0.1349  0.0156
  466loPI   GL2 7446  10.026  16.953  10.588 -0.1989 -0.1223 -0.2824
  466loPI   C1A 7447   9.432  17.350  10.552  0.1245 -0.2663  0.1896
  466loPI   C2A 7448   9.332  17.249  10.162  0.2356 -0.4104  0.0891
  466loPI   C3A 7449   9.443  17.250   9.694  0.2358 -0.1421 -0.0239
  466loPI   C4A 7450   9.318  17.277   9.267 -0.0559  0.1254  0.0299
  466loPI   C5A 7451   9.428  17.366   8.903 -0.3781 -0.2209  0.2726
  466loPI   C6A 7452   9.550  17.597   8.584 -0.1841  0.1057 -0.2854
  466loPI   C1B 7453  10.142  16.787  10.235 -0.1692 -0.0094 -0.3327
  466loPI   C2B 7454  10.061  16.776   9.869 -0.0520  0.0802 -0.1604
  466loPI   C3B 7455  10.185  16.857   9.452  0.4683  0.1757 -0.0713
  466loPI   C4B 7456  10.194  16.826   9.045 -0.0981 -0.0088  0.0541
  467loPI    C1 7457   6.389  13.199  11.545 -0.1434 -0.0538  0.1506
  467loPI    C2 7458   6.325  12.848  11.725  0.0234 -0.1446  0.0355
  467loPI    C3 7459   6.678  13.033  11.766 -0.0246 -0.0454  0.0034
  467loPI   PO4 7460   6.320  13.146  11.265  0.0306  0.1011  0.0566
  467loPI   GL1 7461   6.415  13.312  10.945 -0.0332 -0.0681  0.0395
  467loPI   GL2 7462   6.629  13.154  10.720 -0.0175  0.0401 -0.3023
  467loPI   C1A 7463   6.302  13.562  10.518 -0.2054  0.0207 -0.0021
  467loPI   C2A 7464   6.398  13.632  10.017  0.0109 -0.1268 -0.2214
  467loPI   C3A 7465   6.317  13.606   9.586 -0.0368  0.0138 -0.1455
  467loPI   C4A 7466   6.285  13.837   9.248 -0.1802  0.0753  0.2330
  467loPI   C5A 7467   6.284  13.721   8.867  0.0076  0.1631 -0.0688
  467loPI   C6A 7468   6.092  13.619   8.517 -0.1499 -0.0836  0.0418
  467loPI   C1B 7469   6.527  13.191  10.248  0.0478  0.1242 -0.2465
  467loPI   C2B 7470   6.555  13.193   9.860 -0.2432  0.0207 -0.1217
  467loPI   C3B 7471   6.523  13.201   9.448  0.2150 -0.1844  0.3365
  467loPI   C4B 7472   6.417  13.227   9.017  0.0395 -0.1978  0.0686
  468loPI    C1 7473   6.645   3.847  11.288 -0.2403  0.0132 -0.0724
  468loPI    C2 7474   6.559   3.679  11.640 -0.0457  0.1695  0.0522
  468loPI    C3 7475   6.691   4.056  11.626 -0.1185  0.1873 -0.1946
  468loPI   PO4 7476   6.693   3.626  11.141 -0.0017  0.2429  0.1843
  468loPI   GL1 7477   6.666   3.364  10.731 -0.0683  0.2016  0.1022
  468loPI   GL2 7478   7.009   3.276  10.643  0.0813  0.2403  0.2890
  468loPI   C1A 7479   6.539   3.276  10.223  0.1998  0.1395  0.1200
  468loPI   C2A 7480   6.482   3.306   9.789 -0.1092 -0.1001  0.2602
  468loPI   C3A 7481   6.503   3.323   9.377 -0.0049 -0.0525 -0.1937
  468loPI   C4A 7482   6.554   3.386   8.915  0.4910  0.1972  0.2920
  468loPI   C5A 7483   6.806   3.204   8.542  0.0763  0.0788  0.0072
  468loPI   C6A 7484   7.184   3.243   8.320 -0.1767 -0.5307 -0.1200
  468loPI   C1B 7485   7.035   3.187  10.117 -0.2788 -0.0399  0.2146
  468loPI   C2B 7486   7.053   3.390   9.749  0.2793 -0.2424  0.0207
  468loPI   C3B 7487   7.021   3.362   9.374 -0.0226  0.2630 -0.0904
  468loPI   C4B 7488   7.094   3.266   8.953 -0.0959  0.0355  0.1334
  469loPI    C1 7489   3.367   0.181  11.157  0.0902  0.0538 -0.0278
  469loPI    C2 7490   3.484   0.314  11.516 -0.0084  0.1510 -0.0315
  469loPI    C3 7491   3.414  -0.076  11.461  0.0950  0.1234  0.0305
  469loPI   PO4 7492   3.544   0.253  10.934  0.2641  0.1779 -0.0484
  469loPI   GL1 7493   3.874   0.476  10.659 -0.0842 -0.2767 -0.1565
  469loPI   GL2 7494   4.112   0.282  10.745  0.0618  0.1416 -0.1065
  469loPI   C1A 7495   3.951   0.480  10.211 -0.2130  0.0926 -0.0200
  469loPI   C2A 7496   3.984   0.580   9.779 -0.2159  0.0415 -0.2769
  469loPI   C3A 7497   3.967   0.557   9.331 -0.0277 -0.2937 -0.0478
  469loPI   C4A 7498   4.003   0.624   8.799  0.3173  0.2756  0.0598
  469loPI   C5A 7499   3.909   0.479   8.383 -0.0246 -0.0719  0.1224
  469loPI   C6A 7500   4.200   0.338   8.016  0.2920 -0.2521 -0.3703
  469loPI   C1B 7501   4.198   0.084  10.369 -0.2389 -0.0491  0.1931
  469loPI   C2B 7502   4.283   0.091   9.930  0.1228  0.1531  0.2059
  469loPI   C3B 7503   4.253   0.129   9.464  0.0328  0.2780 -0.0782
  469loPI   C4B 7504   4.293   0.180   8.990 -0.0717 -0.2928  0.0948
  470loPI    C1 7505   0.868   7.434  11.381 -0.1345  0.0154 -0.0774
  470loPI    C2 7506   0.718   7.619  11.703 -0.2479 -0.2854  0.0461
  470loPI    C3 7507   0.998   7.337  11.747 -0.1645 -0.2317 -0.1308
  470loPI   PO4 7508   0.674   7.481  11.157 -0.2102 -0.0727 -0.1405
  470loPI   GL1 7509   0.693   7.650  10.813  0.2126  0.0986 -0.1353
  470loPI   GL2 7510   1.036   7.812  10.905  0.1888  0.4800  0.3086
  470loPI   C1A 7511   0.876   7.859  10.436 -0.1303  0.2245 -0.0282
  470loPI   C2A 7512   0.898   7.867   9.981  0.0669  0.0835  0.0362
  470loPI   C3A 7513   0.903   7.736   9.617 -0.1437  0.1227  0.1967
  470loPI   C4A 7514   0.804   7.743   9.262  0.0563 -0.2754 -0.1065
  470loPI   C5A 7515   0.873   7.864   8.883  0.1033 -0.3383  0.0775
  470loPI   C6A 7516   0.643   7.732   8.532 -0.0246  0.1602 -0.1515
  470loPI   C1B 7517   1.344   7.686  10.555  0.3728  0.3935 -0.1878
  470loPI   C2B 7518   1.365   7.714  10.126  0.0229  0.0624 -0.0702
  470loPI   C3B 7519   1.445   7.752   9.656 -0.0859 -0.1541 -0.1725
  470loPI   C4B 7520   1.319   7.843   9.217 -0.0518 -0.2163 -0.0071
  471loPI    C1 7521   6.357   0.925  11.379 -0.0188 -0.2247  0.0680
  471loPI    C2 7522   6.460   0.753  11.725 -0.1854  0.0007  0.2325
  471loPI    C3 7523   6.089   0.895  11.675 -0.1933 -0.1238 -0.0776
  471loPI   PO4 7524   6.440   1.166  11.302 -0.0383  0.2274 -0.1466
  471loPI   GL1 7525   6.318   1.207  10.935  0.1617 -0.2020  0.1274
  471loPI   GL2 7526   6.246   0.899  10.854  0.0025 -0.0020  0.0607
  471loPI   C1A 7527   6.442   1.400  10.551  0.1230 -0.2233 -0.1488
  471loPI   C2A 7528   6.596   1.445  10.053  0.1543  0.2058  0.0251
  471loPI   C3A 7529   6.550   1.540   9.618  0.1552 -0.0833 -0.0246
  471loPI   C4A 7530   6.589   1.512   9.075 -0.2261  0.0026 -0.2288
  471loPI   C5A 7531   6.651   1.316   8.716 -0.3480  0.0356  0.0502
  471loPI   C6A 7532   6.464   1.394   8.204 -0.0242  0.1120  0.1688
  471loPI   C1B 7533   6.230   0.944  10.434  0.0336 -0.1353  0.0471
  471loPI   C2B 7534   6.284   1.044  10.084  0.1739  0.0013  0.0800
  471loPI   C3B 7535   6.290   1.063   9.621 -0.1550 -0.2323 -0.0146
  471loPI   C4B 7536   6.364   1.044   9.161  0.2505  0.2395  0.0584
  472loPI    C1 7537   6.990   0.842  11.376  0.2630 -0.2169  0.0168
  472loPI    C2 7538   7.153   0.813  11.741  0.1632  0.2030  0.1000
  472loPI    C3 7539   7.253   1.117  11.501  0.4303 -0.2126 -0.3333
  472loPI   PO4 7540   7.027   0.658  11.258  0.1053  0.2729 -0.2399
  472loPI   GL1 7541   7.010   0.573  10.780 -0.1968 -0.1814 -0.0512
  472loPI   GL2 7542   6.719   0.553  10.605  0.2241  0.0089  0.2467
  472loPI   C1A 7543   7.188   0.588  10.317 -0.1268 -0.1125  0.0862
  472loPI   C2A 7544   7.120   0.598   9.819  0.1267  0.3739  0.2038
  472loPI   C3A 7545   7.086   0.645   9.446  0.3006 -0.0472  0.2812
  472loPI   C4A 7546   7.146   0.649   9.103  0.0661 -0.2401  0.1199
  472loPI   C5A 7547   7.052   0.744   8.668 -0.2684 -0.0071 -0.2198
  472loPI   C6A 7548   6.682   0.886   8.449 -0.1563 -0.3022 -0.3065
  472loPI   C1B 7549   6.640   0.606  10.127 -0.1252  0.0040 -0.1674
  472loPI   C2B 7550   6.609   0.617   9.684  0.0398  0.1432  0.1118
  472loPI   C3B 7551   6.554   0.627   9.290 -0.0825  0.0444  0.2809
  472loPI   C4B 7552   6.547   0.677   8.881  0.1290  0.3581  0.0650
  473loPI    C1 7553  14.860  10.828  11.336  0.1108 -0.0137  0.2150
  473loPI    C2 7554  14.724  10.488  11.496 -0.1538  0.0191  0.0661
  473loPI    C3 7555  14.604  10.840  11.643  0.0497  0.0499  0.1620
  473loPI   PO4 7556  14.826  10.804  11.075  0.0264  0.1178 -0.0830
  473loPI   GL1 7557  15.039  10.670  10.734  0.0473 -0.1979  0.2488
  473loPI   GL2 7558  15.216  10.429  10.619  0.0789 -0.5851 -0.2304
  473loPI   C1A 7559  14.995  10.956  10.414 -0.1731  0.0292  0.1832
  473loPI   C2A 7560  15.052  10.949  10.051 -0.1682 -0.0343 -0.0952
  473loPI   C3A 7561  14.974  10.990   9.634  0.0366  0.0664  0.2776
  473loPI   C4A 7562  14.965  11.069   9.224  0.0800  0.2665  0.0686
  473loPI   C5A 7563  14.971  10.894   8.778 -0.0402  0.1750 -0.1151
  473loPI   C6A 7564  14.753  10.807   8.473  0.0633 -0.1804 -0.0144
  473loPI   C1B 7565  15.267  10.515  10.140 -0.2208 -0.2781  0.2092
  473loPI   C2B 7566  15.229  10.534   9.688 -0.1653  0.0034 -0.4172
  473loPI   C3B 7567  15.222  10.612   9.350 -0.1717 -0.1750  0.2031
  473loPI   C4B 7568  15.335  10.570   9.004  0.0176  0.1562 -0.0354
  474loPI    C1 7569   2.645  14.265  11.121 -0.2905  0.0195 -0.0274
  474loPI    C2 7570   2.272  14.397  11.172 -0.2406  0.0676  0.2242
  474loPI    C3 7571   2.515  14.359  11.487 -0.0166  0.0848  0.0551
  474loPI   PO4 7572   2.681  14.088  11.023 -0.0710 -0.0407 -0.2631
  474loPI   GL1 7573   2.694  13.930  10.640  0.2584 -0.2789 -0.0579
  474loPI   GL2 7574   2.941  14.126  10.618 -0.1284  0.0206  0.3440
  474loPI   C1A 7575   2.428  13.984  10.269  0.0925 -0.1848 -0.0957
  474loPI   C2A 7576   2.352  14.147   9.914  0.0224 -0.2187  0.1849
  474loPI   C3A 7577   2.438  14.108   9.509  0.1476  0.0568 -0.2190
  474loPI   C4A 7578   2.433  14.091   8.994 -0.1526  0.0364 -0.1409
  474loPI   C5A 7579   2.368  14.288   8.533  0.0849  0.0903  0.0301
  474loPI   C6A 7580   2.486  14.604   8.187 -0.3320 -0.0233  0.1439
  474loPI   C1B 7581   2.936  14.075  10.097  0.0011  0.0728 -0.0829
  474loPI   C2B 7582   2.908  14.063   9.632 -0.6338 -0.1056 -0.1405
  474loPI   C3B 7583   2.846  14.107   9.212 -0.1531 -0.1972  0.1731
  474loPI   C4B 7584   2.879  14.138   8.817  0.0874  0.2182  0.0270
  475loPI    C1 7585  13.807  13.209  11.946  0.1931  0.0330 -0.0159
  475loPI    C2 7586  14.131  13.267  12.172  0.1787 -0.2762  0.0889
  475loPI    C3 7587  13.866  12.984  12.271  0.0737 -0.2856 -0.2094
  475loPI   PO4 7588  13.884  13.345  11.688  0.1319 -0.0187  0.4406
  475loPI   GL1 7589  13.859  13.412  11.178  0.0871 -0.3880 -0.1311
  475loPI   GL2 7590  14.123  13.239  11.057  0.1184  0.1010  0.0777
  475loPI   C1A 7591  13.810  13.607  10.817 -0.0133  0.2488 -0.0162
  475loPI   C2A 7592  13.909  13.674  10.430  0.1024  0.3441  0.0070
  475loPI   C3A 7593  13.986  13.680  10.021 -0.0209  0.0284  0.1013
  475loPI   C4A 7594  14.007  13.629   9.530  0.0586  0.2231  0.1924
  475loPI   C5A 7595  14.057  13.640   9.039  0.0778  0.1684  0.5044
  475loPI   C6A 7596  14.046  13.488   8.633  0.0459 -0.2730 -0.3345
  475loPI   C1B 7597  14.180  13.222  10.649  0.2713  0.1297 -0.0970
  475loPI   C2B 7598  14.156  13.131  10.232  0.0059 -0.0488  0.0334
  475loPI   C3B 7599  14.193  13.251   9.772 -0.3422 -0.1711 -0.2036
  475loPI   C4B 7600  14.257  13.211   9.334 -0.1462  0.0969  0.0545
  476loPI    C1 7601  11.914  10.763  11.213 -0.1581  0.0466  0.1583
  476loPI    C2 7602  11.765  10.520  11.494 -0.1558 -0.0865  0.0453
  476loPI    C3 7603  12.068  10.766  11.583 -0.1643 -0.1178  0.1628
  476loPI   PO4 7604  11.819  10.694  11.030  0.3443  0.3482 -0.0188
  476loPI   GL1 7605  11.708  10.946  10.722 -0.0160  0.3780  0.1715
  476loPI   GL2 7606  11.685  11.234  10.573  0.2195 -0.1505  0.1357
  476loPI   C1A 7607  11.835  10.925  10.284 -0.1265  0.2425 -0.3957
  476loPI   C2A 7608  11.888  11.016   9.924 -0.0232  0.0383 -0.0907
  476loPI   C3A 7609  11.961  11.014   9.494  0.1682  0.0373 -0.1389
  476loPI   C4A 7610  11.834  10.989   9.143 -0.2956  0.0831 -0.0124
  476loPI   C5A 7611  11.823  10.913   8.629  0.3073 -0.0687 -0.3415
  476loPI   C6A 7612  12.078  10.880   8.120  0.1395  0.0888 -0.0390
  476loPI   C1B 7613  11.556  11.413  10.209  0.0063 -0.2225 -0.1062
  476loPI   C2B 7614  11.644  11.439   9.758  0.0425  0.2651  0.1419
  476loPI   C3B 7615  11.627  11.417   9.314 -0.1007  0.0601  0.0170
  476loPI   C4B 7616  11.608  11.353   8.845 -0.0288  0.3898  0.0467
  477loPI    C1 7617   4.311   9.800  11.570  0.0182 -0.3212 -0.0923
  477loPI    C2 7618   4.145   9.512  11.792 -0.4334 -0.1180 -0.1538
  477loPI    C3 7619   4.123   9.893  11.911  0.1815 -0.1021 -0.0601
  477loPI   PO4 7620   4.196   9.727  11.271 -0.4178  0.2072 -0.0914
  477loPI   GL1 7621   4.041  10.069  11.019 -0.0276 -0.0353  0.0898
  477loPI   GL2 7622   3.817  10.320  11.003 -0.0253  0.1614  0.0542
  477loPI   C1A 7623   4.204  10.008  10.616 -0.0975  0.3579  0.1594
  477loPI   C2A 7624   4.193  10.038  10.137 -0.1179  0.2000 -0.3015
  477loPI   C3A 7625   4.251  10.052   9.667 -0.1656  0.1564  0.0653
  477loPI   C4A 7626   4.183  10.103   9.241  0.0566  0.1431  0.1126
  477loPI   C5A 7627   4.146  10.267   8.881  0.1419 -0.0970  0.0107
  477loPI   C6A 7628   3.885  10.533   8.587 -0.1369 -0.4039 -0.1998
  477loPI   C1B 7629   3.875  10.554  10.704 -0.0189 -0.0306 -0.0914
  477loPI   C2B 7630   3.877  10.483  10.270 -0.0945 -0.3310  0.0073
  477loPI   C3B 7631   4.031  10.492   9.880 -0.2931  0.0155 -0.0830
  477loPI   C4B 7632   3.956  10.517   9.443  0.2633  0.3131  0.0805
  478loPI    C1 7633   0.401   5.950  11.400 -0.0402 -0.0018 -0.1310
  478loPI    C2 7634   0.740   5.978  11.190  0.0889 -0.0890  0.0624
  478loPI    C3 7635   0.749   5.843  11.566 -0.1578 -0.0645  0.0786
  478loPI   PO4 7636   0.270   6.178  11.354 -0.1321 -0.0331 -0.0673
  478loPI   GL1 7637   0.429   6.306  10.929 -0.4301  0.3442 -0.0614
  478loPI   GL2 7638   0.170   6.306  10.836  0.0040 -0.0458 -0.1500
  478loPI   C1A 7639   0.661   6.489  10.527 -0.1003 -0.0494 -0.1587
  478loPI   C2A 7640   0.552   6.547  10.138 -0.0131  0.0131 -0.0426
  478loPI   C3A 7641   0.528   6.446   9.734  0.0342  0.0378 -0.0413
  478loPI   C4A 7642   0.627   6.380   9.235  0.0322 -0.0733  0.2295
  478loPI   C5A 7643   1.006   6.356   9.009 -0.2520  0.2770 -0.1377
  478loPI   C6A 7644   1.273   6.207   8.742 -0.1661  0.4859 -0.1977
  478loPI   C1B 7645   0.069   6.395  10.443  0.1179  0.0539  0.1822
  478loPI   C2B 7646   0.030   6.481  10.038  0.1249 -0.2592  0.1213
  478loPI   C3B 7647   0.037   6.480   9.538 -0.0278  0.3154 -0.2185
  478loPI   C4B 7648   0.178   6.414   9.068  0.0961 -0.3226 -0.4587
  479loPI    C1 7649   4.640  13.176  11.295  0.0090  0.1031  0.1383
  479loPI    C2 7650   4.269  13.318  11.347 -0.0794 -0.0526 -0.0536
  479loPI    C3 7651   4.484  13.200  11.663 -0.3085 -0.2451  0.0325
  479loPI   PO4 7652   4.726  13.299  11.135 -0.3909 -0.2564  0.3433
  479loPI   GL1 7653   4.844  13.554  10.859 -0.1833 -0.0942 -0.3199
  479loPI   GL2 7654   4.566  13.368  10.670  0.1417 -0.2125  0.0564
  479loPI   C1A 7655   4.903  13.654  10.477 -0.1604 -0.1863 -0.0721
  479loPI   C2A 7656   4.794  13.728  10.020  0.2985 -0.1531 -0.1563
  479loPI   C3A 7657   4.737  13.744   9.524  0.1258  0.3484 -0.4812
  479loPI   C4A 7658   4.650  13.726   9.095  0.0646 -0.1621  0.0885
  479loPI   C5A 7659   4.291  13.687   8.868  0.0010  0.0990 -0.1109
  479loPI   C6A 7660   4.248  13.684   8.436 -0.0125 -0.0656  0.1125
  479loPI   C1B 7661   4.477  13.117  10.305  0.0636 -0.1609  0.1361
  479loPI   C2B 7662   4.486  13.210   9.899 -0.0450 -0.1907 -0.0315
  479loPI   C3B 7663   4.454  13.181   9.396 -0.0536 -0.1643 -0.3599
  479loPI   C4B 7664   4.520  13.209   8.938 -0.0901 -0.0521 -0.0427
  480loPI    C1 7665   9.117   1.433  10.976 -0.0697  0.1074  0.0345
  480loPI    C2 7666   8.799   1.635  11.112  0.0354  0.1932  0.1558
  480loPI    C3 7667   8.927   1.309  11.306 -0.1206  0.0203 -0.0271
  480loPI   PO4 7668   9.105   1.457  10.736  0.2245 -0.0601 -0.2974
  480loPI   GL1 7669   8.940   1.085  10.371  0.1798 -0.1353 -0.0982
  480loPI   GL2 7670   8.609   1.098  10.199 -0.1179 -0.0943  0.2241
  480loPI   C1A 7671   9.151   0.889  10.037 -0.2803  0.0626  0.0248
  480loPI   C2A 7672   9.081   0.627   9.756  0.0860  0.2747 -0.2570
  480loPI   C3A 7673   9.137   0.579   9.316 -0.1328 -0.1564 -0.0079
  480loPI   C4A 7674   9.216   0.869   8.879 -0.0988 -0.0234 -0.0640
  480loPI   C5A 7675   8.973   0.972   8.502  0.2089 -0.0471 -0.2319
  480loPI   C6A 7676   8.913   0.756   8.172 -0.0653  0.2765 -0.0423
  480loPI   C1B 7677   8.364   1.068   9.774  0.1411  0.0152  0.0939
  480loPI   C2B 7678   8.378   1.041   9.421  0.0974  0.2087 -0.2285
  480loPI   C3B 7679   8.473   1.159   9.074  0.1620 -0.2469  0.1508
  480loPI   C4B 7680   8.443   1.159   8.608  0.1927 -0.0366 -0.2515
  481loPI    C1 7681  14.399   2.634  11.267 -0.2550 -0.0658 -0.0521
  481loPI    C2 7682  14.182   2.672  11.601  0.1409 -0.1317  0.2194
  481loPI    C3 7683  14.480   2.928  11.525 -0.0045 -0.0611 -0.1335
  481loPI   PO4 7684  14.204   2.564  11.096 -0.2234  0.0112  0.0958
  481loPI   GL1 7685  14.041   2.592  10.703 -0.0382  0.0011  0.2827
  481loPI   GL2 7686  14.251   2.804  10.612 -0.1632  0.0744  0.0391
  481loPI   C1A 7687  14.114   2.393  10.330 -0.0424 -0.0885 -0.0753
  481loPI   C2A 7688  14.133   2.398   9.940 -0.2663 -0.0778 -0.4126
  481loPI   C3A 7689  14.121   2.359   9.522  0.0282 -0.3183 -0.1999
  481loPI   C4A 7690  14.155   2.377   9.077  0.4854  0.1398  0.1715
  481loPI   C5A 7691  14.022   2.404   8.714  0.0010 -0.0640 -0.0614
  481loPI   C6A 7692  14.354   2.274   8.538 -0.1265  0.3514 -0.0439
  481loPI   C1B 7693  14.454   2.856  10.218  0.1071  0.0338 -0.1404
  481loPI   C2B 7694  14.524   3.069   9.767 -0.0285  0.0264 -0.0203
  481loPI   C3B 7695  14.666   3.406   9.595 -0.0504 -0.0326  0.1922
  481loPI   C4B 7696  14.758   3.502   9.100 -0.1802 -0.1380 -0.0204
  482loPI    C1 7697   2.852   5.384  11.517  0.1207  0.1535  0.0859
  482loPI    C2 7698   2.728   5.542  11.863 -0.0184  0.2348 -0.0006
  482loPI    C3 7699   3.073   5.341  11.848  0.0072  0.2640  0.1770
  482loPI   PO4 7700   2.581   5.359  11.387  0.1449 -0.3050  0.1998
  482loPI   GL1 7701   2.347   5.503  11.097 -0.0380  0.0503 -0.0426
  482loPI   GL2 7702   2.139   5.709  11.087  0.0588 -0.0035 -0.0685
  482loPI   C1A 7703   2.192   5.437  10.661 -0.4948  0.0581  0.1629
  482loPI   C2A 7704   2.254   5.370  10.166  0.3205 -0.2094 -0.1080
  482loPI   C3A 7705   2.140   5.489   9.747 -0.0929  0.1120  0.0702
  482loPI   C4A 7706   2.162   5.485   9.343 -0.0681 -0.3968  0.1491
  482loPI   C5A 7707   2.110   5.612   9.002  0.3952 -0.0706 -0.2753
  482loPI   C6A 7708   2.178   5.517   8.592  0.1879  0.0495 -0.0157
  482loPI   C1B 7709   1.937   5.866  10.657  0.0709 -0.0472 -0.2270
  482loPI   C2B 7710   1.943   5.951  10.185 -0.0178 -0.0744  0.0116
  482loPI   C3B 7711   1.845   5.956   9.670  0.0850  0.3824  0.0142
  482loPI   C4B 7712   1.870   5.979   9.280  0.2001  0.0976 -0.0458
  483loPI    C1 7713   0.796   1.609  11.278 -0.3340 -0.3663  0.0928
  483loPI    C2 7714   1.062   1.310  11.282 -0.1220 -0.1795  0.1997
  483loPI    C3 7715   1.056   1.576  11.581 -0.2469 -0.0225  0.0596
  483loPI   PO4 7716   0.764   1.690  11.047  0.1623  0.1094 -0.0223
  483loPI   GL1 7717   0.990   1.803  10.739  0.0214 -0.2287 -0.0188
  483loPI   GL2 7718   1.281   2.014  10.709 -0.0665 -0.0452  0.3588
  483loPI   C1A 7719   1.133   1.833  10.255 -0.2424 -0.1927 -0.0749
  483loPI   C2A 7720   1.143   1.868   9.862  0.0220 -0.0264  0.1715
  483loPI   C3A 7721   1.123   1.911   9.408 -0.0264  0.0488 -0.0439
  483loPI   C4A 7722   1.152   2.047   8.950 -0.2315 -0.3377 -0.0172
  483loPI   C5A 7723   0.964   2.333   8.644  0.1511 -0.2363  0.1172
  483loPI   C6A 7724   0.842   2.437   8.231  0.1779  0.1110 -0.1538
  483loPI   C1B 7725   1.388   2.302  10.331 -0.1604 -0.0369 -0.0431
  483loPI   C2B 7726   1.436   2.267   9.910 -0.1878  0.3474  0.2379
  483loPI   C3B 7727   1.414   2.366   9.488  0.1198  0.0419  0.0807
  483loPI   C4B 7728   1.464   2.509   8.984  0.4497  0.4090 -0.3786
  484loPI    C1 7729   6.617   6.333  11.387  0.1778 -0.2519 -0.0708
  484loPI    C2 7730   6.266   6.209  11.240 -0.0823  0.1488  0.1913
  484loPI    C3 7731   6.339   6.180  11.632  0.1758  0.0795  0.1398
  484loPI   PO4 7732   6.744   6.252  11.103 -0.0198  0.0019  0.0290
  484loPI   GL1 7733   6.800   6.277  10.629 -0.0930 -0.0530 -0.0042
  484loPI   GL2 7734   6.933   6.592  10.744  0.2477 -0.0745 -0.4075
  484loPI   C1A 7735   7.263   6.376  10.431  0.7725 -0.0348  0.1363
  484loPI   C2A 7736   7.403   6.480  10.012 -0.1330  0.0917 -0.0378
  484loPI   C3A 7737   7.331   6.556   9.633  0.3039 -0.1110 -0.2247
  484loPI   C4A 7738   7.315   6.485   9.151 -0.1179  0.2284  0.0302
  484loPI   C5A 7739   7.389   6.547   8.697 -0.2938  0.3315  0.1182
  484loPI   C6A 7740   7.459   6.510   8.266 -0.0808  0.2435  0.3113
  484loPI   C1B 7741   6.813   6.606  10.256 -0.1325  0.3476  0.0096
  484loPI   C2B 7742   6.843   6.478   9.934  0.1493 -0.0974 -0.0791
  484loPI   C3B 7743   6.887   6.502   9.466 -0.1603  0.2784 -0.0534
  484loPI   C4B 7744   6.778   6.465   9.063 -0.2123 -0.2262 -0.1970
  485loPI    C1 7745  13.532  11.756  11.477 -0.0162 -0.0426  0.1760
  485loPI    C2 7746  13.637  12.133  11.394 -0.1178  0.0140  0.3001
  485loPI    C3 7747  13.850  11.919  11.657  0.0125 -0.0573  0.1385
  485loPI   PO4 7748  13.510  11.569  11.240 -0.0102 -0.1441  0.0530
  485loPI   GL1 7749  13.511  11.729  10.722 -0.2995 -0.2108  0.0641
  485loPI   GL2 7750  13.405  11.956  10.603  0.1339  0.0769  0.2826
  485loPI   C1A 7751  13.621  11.463  10.375 -0.0086 -0.1241 -0.2493
  485loPI   C2A 7752  13.679  11.436   9.932  0.1685  0.0015 -0.1199
  485loPI   C3A 7753  13.696  11.418   9.555 -0.0166 -0.1708 -0.3787
  485loPI   C4A 7754  13.624  11.455   9.185  0.0862  0.1898  0.0074
  485loPI   C5A 7755  13.534  11.514   8.659 -0.1158  0.1082  0.2260
  485loPI   C6A 7756  13.406  11.643   8.280 -0.0173  0.0320 -0.1494
  485loPI   C1B 7757  13.417  11.895  10.125 -0.1909  0.1520  0.1069
  485loPI   C2B 7758  13.494  11.977   9.613 -0.1138  0.1543 -0.1096
  485loPI   C3B 7759  13.388  11.894   9.166 -0.1789 -0.0329 -0.1054
  485loPI   C4B 7760  13.377  11.982   8.640  0.0869 -0.1950 -0.2646
  486loPI    C1 7761  11.035   6.385  10.892  0.1652 -0.1559 -0.1352
  486loPI    C2 7762  10.807   6.537  11.183  0.1285 -0.2120 -0.1346
  486loPI    C3 7763  11.106   6.287  11.273  0.1675 -0.1668 -0.1383
  486loPI   PO4 7764  10.857   6.508  10.718  0.2145 -0.1372  0.1213
  486loPI   GL1 7765  10.730   6.813  10.425  0.1322  0.3073 -0.0480
  486loPI   GL2 7766  10.371   6.973  10.512  0.0381 -0.1617 -0.3521
  486loPI   C1A 7767  10.845   6.936   9.991  0.2101 -0.2512  0.0405
  486loPI   C2A 7768  10.770   7.004   9.549 -0.0905  0.3239 -0.1634
  486loPI   C3A 7769  10.660   6.838   9.108 -0.1452  0.0023 -0.2143
  486loPI   C4A 7770  10.648   6.996   8.675  0.0473  0.0275 -0.0070
  486loPI   C5A 7771  10.415   6.986   8.381 -0.2162  0.0452  0.1587
  486loPI   C6A 7772  10.025   7.017   8.368 -0.2276  0.0951 -0.0906
  486loPI   C1B 7773  10.283   6.862  10.073  0.1021 -0.3883  0.1874
  486loPI   C2B 7774  10.384   6.798   9.681  0.1253 -0.0503  0.3764
  486loPI   C3B 7775  10.151   6.902   9.306  0.2793  0.2051  0.3565
  486loPI   C4B 7776  10.183   6.948   8.871 -0.0623  0.1539 -0.0207
  487loPI    C1 7777  14.818   8.594  11.598  0.1043 -0.0612  0.1604
  487loPI    C2 7778  14.690   8.795  11.920 -0.0076 -0.0743  0.1246
  487loPI    C3 7779  14.806   8.413  11.955 -0.0300 -0.0791  0.1474
  487loPI   PO4 7780  15.100   8.659  11.442  0.3160  0.3731  0.1453
  487loPI   GL1 7781  14.992   8.906  11.082 -0.1809  0.0506  0.0867
  487loPI   GL2 7782  14.648   9.055  10.938  0.2489  0.0428 -0.1487
  487loPI   C1A 7783  15.034   9.101  10.680 -0.2474 -0.1802 -0.0465
  487loPI   C2A 7784  15.020   9.144  10.264  0.0376 -0.0136 -0.0176
  487loPI   C3A 7785  14.959   9.235   9.879 -0.0064 -0.1051  0.2182
  487loPI   C4A 7786  14.949   9.228   9.375  0.2793 -0.1042  0.1229
  487loPI   C5A 7787  14.923   9.254   8.939 -0.1847  0.1712 -0.1575
  487loPI   C6A 7788  14.542   9.316   8.696  0.0689  0.2782 -0.3469
  487loPI   C1B 7789  14.452   9.111  10.556 -0.1196  0.0427  0.5062
  487loPI   C2B 7790  14.405   9.118  10.110 -0.0649 -0.0467  0.0077
  487loPI   C3B 7791  14.454   9.212   9.665  0.1439 -0.1475  0.0631
  487loPI   C4B 7792  14.516   9.211   9.213  0.0116 -0.2626 -0.0753
  488loPI    C1 7793  17.250   3.729  11.270  0.0799  0.2039 -0.0271
  488loPI    C2 7794  17.312   3.694  11.663  0.3468  0.0169 -0.0835
  488loPI    C3 7795  16.940   3.739  11.523  0.2339 -0.0804  0.1785
  488loPI   PO4 7796  17.419   3.965  11.151 -0.1079 -0.3450  0.1530
  488loPI   GL1 7797  17.585   3.968  10.836 -0.0887  0.4995  0.1214
  488loPI   GL2 7798  17.181   3.764  10.763  0.2650 -0.1006  0.1120
  488loPI   C1A 7799  17.529   3.894  10.394  0.1268 -0.0325 -0.0821
  488loPI   C2A 7800  17.632   3.776   9.972  0.2832  0.0380 -0.1367
  488loPI   C3A 7801  17.651   3.768   9.518 -0.2482 -0.1923  0.0910
  488loPI   C4A 7802  17.564   3.724   9.159  0.0098  0.0231 -0.0242
  488loPI   C5A 7803  17.519   3.809   8.787 -0.0088  0.1964 -0.3666
  488loPI   C6A 7804  17.471   3.462   8.457  0.4331  0.1445 -0.0737
  488loPI   C1B 7805  17.085   3.803  10.270 -0.0404 -0.1272 -0.1357
  488loPI   C2B 7806  17.103   3.745   9.919 -0.0336  0.0547  0.1671
  488loPI   C3B 7807  17.127   3.795   9.485  0.0855  0.4074  0.0804
  488loPI   C4B 7808  17.063   3.729   9.092  0.3917 -0.0635 -0.0891
  489loPI    C1 7809   7.204   8.114  11.568  0.3555 -0.0358  0.1526
  489loPI    C2 7810   6.954   7.938  11.826  0.0061  0.0307 -0.1318
  489loPI    C3 7811   7.013   8.334  11.842  0.2378 -0.0084  0.0492
  489loPI   PO4 7812   7.141   8.016  11.278 -0.1378 -0.0450 -0.0905
  489loPI   GL1 7813   6.863   7.652  11.063  0.1968 -0.3167 -0.0800
  489loPI   GL2 7814   6.670   7.874  10.873 -0.0799  0.1897 -0.0019
  489loPI   C1A 7815   7.060   7.618  10.750 -0.0558 -0.0984 -0.1684
  489loPI   C2A 7816   7.120   7.760  10.300  0.0138 -0.2369 -0.1493
  489loPI   C3A 7817   6.962   7.782   9.840  0.0668  0.0628  0.3993
  489loPI   C4A 7818   7.001   7.805   9.427 -0.0849  0.2665  0.3364
  489loPI   C5A 7819   7.080   7.955   8.887  0.0185  0.0220 -0.0577
  489loPI   C6A 7820   7.198   8.230   8.452 -0.0114 -0.3217 -0.0908
  489loPI   C1B 7821   6.649   7.690  10.423 -0.0477  0.3099  0.0026
  489loPI   C2B 7822   6.557   7.844  10.054  0.1582  0.1691 -0.2848
  489loPI   C3B 7823   6.509   7.879   9.682  0.1927 -0.0725  0.0407
  489loPI   C4B 7824   6.509   7.764   9.308 -0.0104 -0.3555 -0.0086
  490loPI    C1 7825   5.108   4.014  11.272 -0.1293 -0.2803  0.0982
  490loPI    C2 7826   4.839   4.289  11.165 -0.1506 -0.3608 -0.0580
  490loPI    C3 7827   4.886   4.196  11.551 -0.0917 -0.0867  0.0032
  490loPI   PO4 7828   5.254   4.105  11.005  0.0490  0.0689 -0.0668
  490loPI   GL1 7829   5.063   4.370  10.655 -0.1542  0.1268  0.3464
  490loPI   GL2 7830   4.895   4.555  10.629 -0.0902  0.1387 -0.1199
  490loPI   C1A 7831   4.990   4.187  10.317 -0.0016  0.0004  0.0879
  490loPI   C2A 7832   5.067   4.220   9.867  0.0808 -0.2004  0.4040
  490loPI   C3A 7833   5.014   4.274   9.470  0.2196  0.2528  0.0694
  490loPI   C4A 7834   5.039   4.235   8.963 -0.0777 -0.1445  0.2714
  490loPI   C5A 7835   4.779   3.811   8.674  0.1178  0.2733  0.0962
  490loPI   C6A 7836   4.596   3.688   8.394  0.2889 -0.4264 -0.1865
  490loPI   C1B 7837   4.746   4.682  10.156 -0.1431  0.1740  0.1157
  490loPI   C2B 7838   4.774   4.633   9.690  0.2744  0.0052 -0.1107
  490loPI   C3B 7839   4.802   4.689   9.257 -0.0151  0.0941  0.0720
  490loPI   C4B 7840   4.712   4.797   8.806  0.1165 -0.0857 -0.0532
  491loPI    C1 7841   9.905  14.879  11.486  0.0776  0.2758 -0.1296
  491loPI    C2 7842   9.543  15.024  11.398 -0.0061  0.1185 -0.0491
  491loPI    C3 7843   9.603  14.836  11.745  0.1039 -0.0282 -0.1463
  491loPI   PO4 7844   9.973  14.801  11.299  0.0298  0.1704  0.4062
  491loPI   GL1 7845  10.203  14.820  10.937  0.1416  0.3566 -0.0355
  491loPI   GL2 7846  10.138  15.070  10.809  0.2165  0.0222  0.4250
  491loPI   C1A 7847   9.958  14.637  10.571 -0.0314 -0.1183  0.0882
  491loPI   C2A 7848   9.890  14.576  10.163 -0.0263 -0.0245  0.0536
  491loPI   C3A 7849   9.935  14.625   9.746 -0.1157 -0.0153 -0.3338
  491loPI   C4A 7850   9.855  14.600   9.310 -0.0743 -0.0373 -0.0281
  491loPI   C5A 7851   9.780  14.580   8.892  0.4225  0.0791  0.1562
  491loPI   C6A 7852   9.849  14.924   8.591  0.2221  0.1922 -0.1363
  491loPI   C1B 7853  10.266  15.010  10.373  0.0740  0.1270 -0.4160
  491loPI   C2B 7854  10.183  14.993   9.920  0.2439  0.0626 -0.5971
  491loPI   C3B 7855  10.183  15.064   9.492  0.1186  0.0144  0.3950
  491loPI   C4B 7856  10.076  15.007   9.040 -0.1187 -0.2002 -0.0153
  492loPI    C1 7857   8.728   5.423  11.047 -0.1058  0.1666 -0.0422
  492loPI    C2 7858   8.775   5.061  11.210  0.0029  0.1244 -0.1657
  492loPI    C3 7859   8.854   5.389  11.425  0.0327  0.0718 -0.0963
  492loPI   PO4 7860   8.436   5.505  10.893 -0.0317 -0.1244  0.1100
  492loPI   GL1 7861   8.144   5.500  10.691 -0.0907 -0.2063 -0.0892
  492loPI   GL2 7862   7.872   5.421  10.531 -0.1752  0.2531 -0.2784
  492loPI   C1A 7863   8.235   5.583  10.253 -0.1189  0.0471  0.0498
  492loPI   C2A 7864   8.290   5.601   9.837 -0.0020 -0.1108  0.0054
  492loPI   C3A 7865   8.371   5.488   9.442  0.2253 -0.0291 -0.0735
  492loPI   C4A 7866   8.325   5.580   9.009  0.0732  0.1634 -0.1871
  492loPI   C5A 7867   8.325   5.659   8.552  0.1597  0.2317  0.2161
  492loPI   C6A 7868   8.268   5.854   8.214  0.1767  0.0715  0.0969
  492loPI   C1B 7869   7.799   5.546  10.109 -0.0706  0.2014  0.5438
  492loPI   C2B 7870   7.771   5.622   9.698  0.1604  0.1398  0.4336
  492loPI   C3B 7871   7.883   5.571   9.336 -0.0202  0.0957 -0.4149
  492loPI   C4B 7872   7.786   5.609   8.929 -0.1496 -0.0196 -0.2451
  493loPI    C1 7873   9.017   0.583  11.041  0.2131  0.0959  0.2099
  493loPI    C2 7874   9.293   0.309  10.946  0.0658 -0.0194  0.1084
  493loPI    C3 7875   9.284   0.465  11.314  0.2259 -0.0617  0.1309
  493loPI   PO4 7876   8.824   0.477  10.911 -0.1000  0.0356  0.0950
  493loPI   GL1 7877   8.895   0.346  10.471  0.0441  0.1436 -0.1817
  493loPI   GL2 7878   8.712   0.611  10.372  0.1690 -0.3129 -0.0559
  493loPI   C1A 7879   8.856   0.228  10.045  0.0638  0.1181 -0.0074
  493loPI   C2A 7880   8.827   0.183   9.624 -0.1722  0.1245 -0.0528
  493loPI   C3A 7881   8.935   0.158   9.242 -0.3047 -0.1658 -0.1244
  493loPI   C4A 7882   8.973   0.250   8.846 -0.1640  0.0323  0.1619
  493loPI   C5A 7883   8.742   0.181   8.501 -0.0773 -0.0029 -0.5545
  493loPI   C6A 7884   8.687   0.276   8.130  0.1613  0.1768 -0.1895
  493loPI   C1B 7885   8.632   0.650   9.964  0.2254 -0.0062  0.0869
  493loPI   C2B 7886   8.650   0.644   9.457  0.3543  0.0818  0.1222
  493loPI   C3B 7887   8.727   0.698   9.060 -0.1494  0.0462 -0.2379
  493loPI   C4B 7888   8.632   0.627   8.654 -0.2288 -0.0771  0.0742
  494loPI    C1 7889   1.568   7.425  11.837 -0.2602  0.0633 -0.0127
  494loPI    C2 7890   1.297   7.655  12.019 -0.0857  0.1728  0.1115
  494loPI    C3 7891   1.382   7.292  12.165 -0.1177  0.1651  0.1110
  494loPI   PO4 7892   1.591   7.481  11.504  0.0480 -0.1543  0.1156
  494loPI   GL1 7893   1.589   7.415  11.038  0.0104  0.2152  0.1478
  494loPI   GL2 7894   1.231   7.402  11.075 -0.1036 -0.0195  0.0440
  494loPI   C1A 7895   1.707   7.293  10.620 -0.1461  0.2232 -0.2082
  494loPI   C2A 7896   1.628   7.304  10.271  0.1811  0.0327 -0.0219
  494loPI   C3A 7897   1.664   7.317   9.900  0.4977  0.1263  0.0455
  494loPI   C4A 7898   1.709   7.290   9.502 -0.3082  0.0857 -0.2530
  494loPI   C5A 7899   1.599   7.417   9.126 -0.0861 -0.0269 -0.0633
  494loPI   C6A 7900   1.631   7.697   8.774  0.1029 -0.3450  0.0683
  494loPI   C1B 7901   1.114   7.251  10.632 -0.0575  0.0960 -0.1476
  494loPI   C2B 7902   1.127   7.274  10.131  0.0831  0.1679 -0.1002
  494loPI   C3B 7903   1.135   7.315   9.740  0.1003  0.1660  0.1443
  494loPI   C4B 7904   1.127   7.346   9.383  0.2950 -0.1745  0.1837
  495loPI    C1 7905  17.349   8.619  11.543 -0.2254  0.1021  0.0565
  495loPI    C2 7906  17.728   8.685  11.655 -0.1565  0.0961 -0.1677
  495loPI    C3 7907  17.428   8.871  11.843 -0.0378  0.1588 -0.0385
  495loPI   PO4 7908  17.424   8.634  11.205 -0.0655  0.0643  0.1323
  495loPI   GL1 7909  17.267   8.587  10.872 -0.3031  0.1561  0.1332
  495loPI   GL2 7910  16.982   8.788  10.853  0.0782 -0.0142  0.0184
  495loPI   C1A 7911  17.260   8.771  10.400 -0.3690 -0.0370  0.3359
  495loPI   C2A 7912  17.297   8.708   9.986 -0.1286  0.0268 -0.2934
  495loPI   C3A 7913  17.291   8.764   9.602  0.1342 -0.1235  0.0372
  495loPI   C4A 7914  17.261   8.685   9.156  0.2046  0.0426  0.1227
  495loPI   C5A 7915  17.085   8.609   8.766 -0.0274 -0.2295 -0.1201
  495loPI   C6A 7916  16.757   8.538   8.482 -0.2689 -0.0571 -0.0621
  495loPI   C1B 7917  16.772   8.729  10.469  0.0601  0.1458  0.0932
  495loPI   C2B 7918  16.757   8.705  10.074 -0.0993 -0.2795  0.0238
  495loPI   C3B 7919  16.716   8.697   9.648 -0.0034  0.2872  0.0760
  495loPI   C4B 7920  16.775   8.694   9.208 -0.1231  0.0409 -0.0547
  496loPI    C1 7921   0.282  10.243  11.552  0.1900  0.1219  0.2127
  496loPI    C2 7922  -0.109  10.260  11.634  0.1249  0.1622 -0.0960
  496loPI    C3 7923   0.150  10.474  11.851 -0.0298  0.1829  0.0707
  496loPI   PO4 7924   0.343  10.260  11.292  0.1426  0.1489 -0.3637
  496loPI   GL1 7925   0.623  10.360  10.908  0.2680  0.1715 -0.1191
  496loPI   GL2 7926   0.534  10.038  10.749  0.0295 -0.0141 -0.0055
  496loPI   C1A 7927   0.393  10.540  10.507 -0.2090  0.0352 -0.3932
  496loPI   C2A 7928   0.351  10.531  10.115 -0.0231 -0.0889  0.0405
  496loPI   C3A 7929   0.317  10.576   9.638  0.0167 -0.2282 -0.1001
  496loPI   C4A 7930   0.346  10.565   9.188 -0.2680 -0.0821  0.0957
  496loPI   C5A 7931   0.577  10.579   8.819 -0.0432 -0.3362 -0.4061
  496loPI   C6A 7932   0.957  10.458   8.779 -0.1086  0.0730  0.2062
  496loPI   C1B 7933   0.557  10.047  10.356 -0.2965 -0.0791  0.0144
  496loPI   C2B 7934   0.576  10.070   9.927 -0.3432  0.1200  0.2596
  496loPI   C3B 7935   0.567  10.160   9.538  0.1363 -0.0306  0.1008
  496loPI   C4B 7936   0.668  10.186   9.104  0.0628  0.1355 -0.0961
  497loPI    C1 7937   4.842   9.663  11.496  0.0551  0.0882  0.1287
  497loPI    C2 7938   4.732  10.017  11.647 -0.0522  0.0614  0.1141
  497loPI    C3 7939   5.036   9.815  11.811  0.0712  0.2045  0.0633
  497loPI   PO4 7940   4.771   9.750  11.207 -0.0677 -0.1120 -0.0229
  497loPI   GL1 7941   4.935   9.770  10.854  0.3201 -0.0059 -0.2010
  497loPI   GL2 7942   5.016   9.469  10.707 -0.1908 -0.0204  0.2391
  497loPI   C1A 7943   5.252   9.978  10.535  0.0504 -0.2055  0.2207
  497loPI   C2A 7944   5.348  10.053  10.088 -0.1811 -0.1256  0.3491
  497loPI   C3A 7945   5.274   9.981   9.639  0.0359  0.2523 -0.2476
  497loPI   C4A 7946   5.218  10.139   9.243  0.0902  0.1279  0.0774
  497loPI   C5A 7947   5.083  10.129   8.823  0.1797 -0.0767  0.2310
  497loPI   C6A 7948   5.373   9.987   8.387  0.0440  0.1908  0.1200
  497loPI   C1B 7949   5.044   9.591  10.310 -0.3753  0.2659 -0.1545
  497loPI   C2B 7950   5.042   9.476   9.872 -0.1558  0.2159  0.4073
  497loPI   C3B 7951   4.907   9.537   9.454  0.0637  0.1536  0.0382
  497loPI   C4B 7952   4.908   9.686   9.120 -0.2873  0.0104  0.0855
  498loPI    C1 7953   9.168  11.771  12.013 -0.0016 -0.0027  0.0266
  498loPI    C2 7954   9.540  11.907  11.960 -0.0565  0.0053 -0.3686
  498loPI    C3 7955   9.480  11.547  12.125  0.1178  0.0788 -0.1392
  498loPI   PO4 7956   9.084  11.807  11.778  0.0971 -0.0864  0.1493
  498loPI   GL1 7957   9.266  11.778  11.335 -0.0352 -0.2842  0.1288
  498loPI   GL2 7958   9.005  11.864  11.211 -0.2401 -0.0492  0.1923
  498loPI   C1A 7959   9.404  11.819  10.872 -0.2425  0.2355 -0.3556
  498loPI   C2A 7960   9.368  11.745  10.450  0.1914  0.0052  0.2375
  498loPI   C3A 7961   9.290  11.777   9.996 -0.2800  0.2772 -0.3623
  498loPI   C4A 7962   9.313  11.911   9.623  0.0895 -0.2400  0.3092
  498loPI   C5A 7963   9.244  11.928   9.170 -0.0471 -0.2378 -0.1894
  498loPI   C6A 7964   8.960  11.896   8.785 -0.1217  0.0528  0.2162
  498loPI   C1B 7965   8.877  11.790  10.790  0.1783  0.0591 -0.3749
  498loPI   C2B 7966   8.828  11.795  10.239 -0.1198  0.0998  0.0172
  498loPI   C3B 7967   8.829  11.859   9.842  0.0757  0.1151  0.1549
  498loPI   C4B 7968   8.800  11.907   9.461  0.1924  0.3724 -0.3513
  499loPI    C1 7969  17.167   1.843  11.201  0.1320 -0.0756  0.2569
  499loPI    C2 7970  17.374   2.185  11.190  0.2855 -0.1760 -0.1212
  499loPI    C3 7971  17.496   1.885  11.425  0.0295  0.0972  0.3778
  499loPI   PO4 7972  17.090   1.847  10.970 -0.2784 -0.0888 -0.2682
  499loPI   GL1 7973  17.309   2.001  10.689 -0.1825 -0.0510 -0.2559
  499loPI   GL2 7974  17.167   2.305  10.667  0.0160  0.0845 -0.1153
  499loPI   C1A 7975  17.484   2.058  10.324  0.0173  0.1131  0.2481
  499loPI   C2A 7976  17.626   1.890  10.033 -0.2055 -0.0538 -0.4421
  499loPI   C3A 7977  17.656   1.932   9.648  0.1504 -0.0438 -0.1603
  499loPI   C4A 7978  17.611   2.012   9.209 -0.3518 -0.0963 -0.1176
  499loPI   C5A 7979  17.739   1.947   8.725  0.1105 -0.2923  0.2986
  499loPI   C6A 7980  18.062   1.853   8.467  0.1170  0.0683  0.0005
  499loPI   C1B 7981  17.242   2.484  10.311 -0.2243 -0.2011 -0.0448
  499loPI   C2B 7982  17.417   2.363   9.875  0.1976  0.0680 -0.3910
  499loPI   C3B 7983  17.335   2.358   9.503 -0.1597  0.3350  0.1035
  499loPI   C4B 7984  17.377   2.388   9.090  0.3705  0.0828 -0.0788
  500loPI    C1 7985  17.421   8.109  11.596 -0.1117  0.1021 -0.1354
  500loPI    C2 7986  17.635   8.069  11.931  0.2082 -0.0078 -0.3478
  500loPI    C3 7987  17.323   8.320  11.921  0.1376 -0.0719  0.0560
  500loPI   PO4 7988  17.622   8.110  11.400  0.0427 -0.0469 -0.0169
  500loPI   GL1 7989  17.688   8.170  10.911  0.0708  0.0984 -0.1186
  500loPI   GL2 7990  17.638   7.891  10.988  0.0699  0.2901  0.0204
  500loPI   C1A 7991  17.515   8.154  10.501 -0.1274 -0.0069 -0.1019
  500loPI   C2A 7992  17.639   8.358  10.067 -0.1235  0.4664  0.0683
  500loPI   C3A 7993  17.598   8.260   9.649  0.3026  0.3174 -0.2332
  500loPI   C4A 7994  17.556   8.283   9.271 -0.0489  0.0674 -0.0656
  500loPI   C5A 7995  17.420   8.319   8.861  0.0833  0.4869 -0.0125
  500loPI   C6A 7996  17.596   8.682   8.645  0.0229  0.4272 -0.0872
  500loPI   C1B 7997  17.853   7.767  10.612  0.1757 -0.0088  0.0034
  500loPI   C2B 7998  17.837   7.842  10.219  0.1799 -0.1439 -0.1148
  500loPI   C3B 7999  17.846   7.818   9.829  0.3094 -0.0966 -0.2665
  500loPI   C4B 8000  17.774   7.762   9.388  0.1218  0.0797 -0.2631
  501loPI    C1 8001   9.884   2.396  10.625  0.1928  0.0402  0.1273
  501loPI    C2 8002   9.910   2.387  11.024  0.0694 -0.0286  0.1340
  501loPI    C3 8003   9.690   2.114  10.831  0.1669 -0.0240  0.0156
  501loPI   PO4 8004   9.866   2.710  10.526 -0.0198  0.1055  0.1682
  501loPI   GL1 8005   9.870   2.873  10.086  0.0366 -0.0378  0.0989
  501loPI   GL2 8006   9.925   3.189   9.857  0.2290  0.0353  0.1180
  501loPI   C1A 8007   9.914   2.621   9.761  0.0531 -0.1115  0.1460
  501loPI   C2A 8008   9.910   2.544   9.365  0.2936  0.0811  0.2893
  501loPI   C3A 8009   9.753   2.293   9.067 -0.1761  0.1018  0.2737
  501loPI   C4A 8010   9.966   2.102   8.771  0.0476  0.2526  0.1429
  501loPI   C5A 8011   9.824   1.668   8.608 -0.1094 -0.0478  0.0628
  501loPI   C6A 8012   9.586   1.546   8.323 -0.0650 -0.5014 -0.0527
  501loPI   C1B 8013   9.551   2.984   9.705 -0.1392  0.0943  0.1902
  501loPI   C2B 8014   9.062   3.033   9.767 -0.2562  0.1335  0.0704
  501loPI   C3B 8015   8.745   2.733   9.750 -0.0453  0.1297  0.1420
  501loPI   C4B 8016   8.509   2.395   9.656 -0.2319 -0.1327  0.2482
  502loPI    C1 8017   3.983   8.882  11.237  0.2592  0.1450 -0.1722
  502loPI    C2 8018   3.972   9.256  11.378 -0.1897  0.0728 -0.0009
  502loPI    C3 8019   4.094   8.956  11.614 -0.3000  0.0454  0.0221
  502loPI   PO4 8020   3.761   8.835  11.098  0.2663 -0.1338 -0.1376
  502loPI   GL1 8021   3.815   9.003  10.742  0.0978  0.1245  0.1113
  502loPI   GL2 8022   3.846   9.327  10.881 -0.0875 -0.1201  0.2264
  502loPI   C1A 8023   3.727   9.053  10.405  0.1557  0.1243  0.3183
  502loPI   C2A 8024   3.618   9.166   9.984 -0.0724 -0.4642 -0.2855
  502loPI   C3A 8025   3.702   9.075   9.667 -0.2042  0.1309 -0.0337
  502loPI   C4A 8026   3.708   9.188   9.274  0.0139  0.0163  0.0993
  502loPI   C5A 8027   3.570   9.265   8.909  0.0302 -0.0271  0.2101
  502loPI   C6A 8028   3.689   9.460   8.502 -0.1469  0.1231  0.0953
  502loPI   C1B 8029   3.990   9.529  10.639  0.1028  0.1699 -0.0950
  502loPI   C2B 8030   3.990   9.544  10.275  0.2655 -0.0373  0.1190
  502loPI   C3B 8031   3.974   9.539   9.886  0.0321 -0.0580 -0.1492
  502loPI   C4B 8032   3.879   9.662   9.478 -0.2265  0.0987  0.1031
  503loPI    C1 8033  11.680  11.257  11.103  0.1152  0.2287  0.0078
  503loPI    C2 8034  11.668  11.616  10.927  0.1439  0.2473  0.0433
  503loPI    C3 8035  11.819  11.579  11.296  0.2394  0.1819 -0.0017
  503loPI   PO4 8036  11.464  11.176  11.091  0.0610 -0.0224 -0.2291
  503loPI   GL1 8037  11.257  11.193  10.772 -0.0348  0.0237 -0.1209
  503loPI   GL2 8038  11.206  10.882  10.803 -0.0495 -0.0039  0.0240
  503loPI   C1A 8039  11.044  11.320  10.380 -0.0701 -0.0451  0.2143
  503loPI   C2A 8040  11.090  11.439   9.942 -0.0201 -0.1903 -0.0752
  503loPI   C3A 8041  11.088  11.430   9.519 -0.0015  0.1178  0.0572
  503loPI   C4A 8042  11.103  11.473   9.087 -0.0119  0.0833 -0.1728
  503loPI   C5A 8043  10.989  11.208   8.775  0.1758 -0.1122  0.4766
  503loPI   C6A 8044  11.354  10.958   8.730  0.2690 -0.2471  0.1554
  503loPI   C1B 8045  11.314  10.934  10.325 -0.0351  0.0218 -0.0935
  503loPI   C2B 8046  11.371  11.022   9.967 -0.0821 -0.1943  0.2431
  503loPI   C3B 8047  11.424  10.977   9.551 -0.0940  0.0629  0.0004
  503loPI   C4B 8048  11.286  10.986   9.204 -0.1100  0.0812 -0.3199
  504loPI    C1 8049   3.648  12.059  11.150 -0.2020  0.0035 -0.0535
  504loPI    C2 8050   3.788  12.433  11.171  0.0328 -0.0793 -0.1172
  504loPI    C3 8051   3.733  12.221  11.506  0.1949 -0.0946 -0.0993
  504loPI   PO4 8052   3.411  12.111  10.954 -0.0681  0.0769  0.2543
  504loPI   GL1 8053   3.377  12.069  10.459 -0.1025 -0.1275 -0.1834
  504loPI   GL2 8054   3.155  11.869  10.572  0.1531  0.0618  0.1354
  504loPI   C1A 8055   3.418  12.191  10.072 -0.2943  0.0667 -0.2127
  504loPI   C2A 8056   3.465  12.268   9.637  0.0045  0.3698 -0.0416
  504loPI   C3A 8057   3.401  12.364   9.225 -0.1596 -0.4222  0.0671
  504loPI   C4A 8058   3.465  12.417   8.892 -0.2056  0.2157 -0.0287
  504loPI   C5A 8059   3.699  12.592   8.532 -0.1119  0.3923 -0.2015
  504loPI   C6A 8060   3.708  12.860   8.105 -0.2166  0.1438 -0.2087
  504loPI   C1B 8061   3.140  11.743  10.098  0.0440 -0.0551 -0.1863
  504loPI   C2B 8062   3.103  11.817   9.633  0.0294 -0.4252  0.0139
  504loPI   C3B 8063   3.192  11.921   9.298  0.2058  0.1481  0.1464
  504loPI   C4B 8064   3.202  11.922   8.911  0.2504 -0.1813  0.2054
  505loPI    C1 8065  15.213  16.443  11.597 -0.0284 -0.1630  0.2591
  505loPI    C2 8066  15.172  16.841  11.589 -0.0754 -0.1693  0.1525
  505loPI    C3 8067  15.470  16.675  11.798 -0.0047 -0.0742  0.1282
  505loPI   PO4 8068  15.201  16.294  11.395  0.0497 -0.0125  0.0679
  505loPI   GL1 8069  15.109  16.204  11.017  0.2154 -0.0208  0.0619
  505loPI   GL2 8070  15.183  16.008  10.813  0.1616 -0.0834  0.0088
  505loPI   C1A 8071  15.030  16.550  10.760 -0.0066 -0.0757  0.0719
  505loPI   C2A 8072  15.059  16.473  10.280 -0.1090  0.0505 -0.2098
  505loPI   C3A 8073  15.032  16.405   9.799 -0.0766  0.4075  0.2219
  505loPI   C4A 8074  15.064  16.376   9.346  0.4421 -0.2141 -0.0346
  505loPI   C5A 8075  15.023  16.282   8.933 -0.0349 -0.1227  0.2558
  505loPI   C6A 8076  15.104  16.366   8.556  0.1125  0.2170 -0.2272
  505loPI   C1B 8077  15.285  15.933  10.389 -0.0119 -0.0083 -0.1525
  505loPI   C2B 8078  15.281  15.973  10.001  0.0064  0.0097 -0.0054
  505loPI   C3B 8079  15.348  16.031   9.511  0.2623 -0.0821 -0.0439
  505loPI   C4B 8080  15.341  15.865   9.036  0.3758 -0.0704  0.0457
  506loPI    C1 8081   1.600  16.500  11.576  0.0276  0.0667  0.0684
  506loPI    C2 8082   1.803  16.836  11.649  0.1052  0.0292  0.0261
  506loPI    C3 8083   1.657  16.621  11.953  0.0424  0.1087  0.0526
  506loPI   PO4 8084   1.394  16.611  11.386  0.0819 -0.1471  0.1269
  506loPI   GL1 8085   1.247  16.799  10.953  0.1331 -0.2050  0.1005
  506loPI   GL2 8086   1.526  16.518  10.884  0.1178  0.0071 -0.0588
  506loPI   C1A 8087   1.371  16.733  10.475 -0.2209 -0.0403 -0.2426
  506loPI   C2A 8088   1.410  16.812  10.132  0.0374 -0.1665  0.1190
  506loPI   C3A 8089   1.423  16.706   9.678  0.0721 -0.1370  0.3507
  506loPI   C4A 8090   1.416  16.805   9.256 -0.0543  0.2086 -0.3768
  506loPI   C5A 8091   1.413  16.952   8.831 -0.4953 -0.1149 -0.0478
  506loPI   C6A 8092   1.438  16.892   8.344  0.1534 -0.0852  0.0392
  506loPI   C1B 8093   1.620  16.337  10.510  0.3358  0.2475  0.0706
  506loPI   C2B 8094   1.677  16.405  10.052 -0.0394 -0.0534 -0.1078
  506loPI   C3B 8095   1.699  16.259   9.652 -0.2475  0.0759  0.1466
  506loPI   C4B 8096   1.630  16.288   9.217 -0.0766  0.0081  0.2236
  507loPI    C1 8097  15.427  11.617  11.237 -0.1592  0.1891  0.2389
  507loPI    C2 8098  15.818  11.627  11.319 -0.0354 -0.0990 -0.2741
  507loPI    C3 8099  15.568  11.431  11.562  0.1077  0.2268  0.1470
  507loPI   PO4 8100  15.409  11.522  10.984 -0.0135  0.1883  0.0960
  507loPI   GL1 8101  15.059  11.437  10.638 -0.1519  0.1315 -0.2575
  507loPI   GL2 8102  14.796  11.231  10.762 -0.2469  0.4128  0.5293
  507loPI   C1A 8103  15.231  11.428  10.215  0.0331 -0.0962 -0.0468
  507loPI   C2A 8104  15.231  11.441   9.793  0.0841  0.3703 -0.0571
  507loPI   C3A 8105  15.306  11.471   9.396  0.0400 -0.2791 -0.0164
  507loPI   C4A 8106  15.153  11.442   8.981  0.0040 -0.0003 -0.1531
  507loPI   C5A 8107  15.294  11.303   8.662 -0.2169  0.1419  0.1511
  507loPI   C6A 8108  15.372  10.896   8.421 -0.0012 -0.1647 -0.3694
  507loPI   C1B 8109  14.733  11.376  10.273 -0.0050 -0.3756  0.2778
  507loPI   C2B 8110  14.771  11.356   9.926 -0.0713  0.1211  0.0359
  507loPI   C3B 8111  14.734  11.373   9.520  0.1145 -0.0228  0.0345
  507loPI   C4B 8112  14.732  11.513   9.125 -0.0189 -0.0709  0.5215
  508loPI    C1 8113   1.674  15.892  11.602 -0.1126  0.0882  0.0840
  508loPI    C2 8114   1.984  15.814  11.842 -0.3392 -0.1596  0.3036
  508loPI    C3 8115   1.776  16.153  11.888  0.0019  0.0930  0.0391
  508loPI   PO4 8116   1.733  15.732  11.407 -0.1449 -0.2606  0.1355
  508loPI   GL1 8117   1.791  15.653  11.028  0.1633 -0.3709  0.1818
  508loPI   GL2 8118   1.837  15.953  10.755  0.1752  0.1045 -0.0433
  508loPI   C1A 8119   1.627  15.481  10.645 -0.0621 -0.1581  0.0843
  508loPI   C2A 8120   1.666  15.499  10.195 -0.0439  0.1679 -0.1881
  508loPI   C3A 8121   1.555  15.465   9.761  0.3696  0.0362 -0.2717
  508loPI   C4A 8122   1.695  15.398   9.317  0.0822  0.1650 -0.2477
  508loPI   C5A 8123   1.984  15.312   8.812 -0.2346 -0.0789 -0.0156
  508loPI   C6A 8124   2.134  15.495   8.540 -0.1301 -0.1597  0.5386
  508loPI   C1B 8125   1.847  15.937  10.240 -0.1718  0.2755  0.0766
  508loPI   C2B 8126   1.908  15.865   9.843 -0.0259 -0.0696  0.2665
  508loPI   C3B 8127   1.887  15.873   9.393 -0.2920 -0.0535  0.0439
  508loPI   C4B 8128   1.828  15.777   9.058  0.1027  0.1728  0.3459
  509loPI    C1 8129   9.834   3.218  10.723 -0.1896 -0.1892 -0.1974
  509loPI    C2 8130  10.233   3.212  10.699 -0.1786 -0.2006 -0.0230
  509loPI    C3 8131  10.054   3.385  11.012 -0.3157  0.0210 -0.2209
  509loPI   PO4 8132   9.772   3.266  10.396 -0.3182  0.2416 -0.1965
  509loPI   GL1 8133   9.468   3.248  10.084  0.1223 -0.1024  0.3353
  509loPI   GL2 8134   9.570   3.561  10.056  0.5690 -0.5399 -0.2323
  509loPI   C1A 8135   9.340   3.445   9.644 -0.1376 -0.0854  0.0159
  509loPI   C2A 8136   9.439   3.755   9.278 -0.0705  0.2043  0.2912
  509loPI   C3A 8137   9.672   3.786   8.859  0.1120  0.2552 -0.2420
  509loPI   C4A 8138   9.911   3.932   8.427 -0.2094 -0.1391 -0.4408
  509loPI   C5A 8139  10.279   4.177   8.355 -0.1591 -0.0281 -0.1449
  509loPI   C6A 8140  10.729   4.220   8.248  0.0778  0.3785 -0.1045
  509loPI   C1B 8141   9.394   3.924   9.715 -0.3984  0.0199 -0.0750
  509loPI   C2B 8142   9.162   4.230   9.420 -0.1090 -0.0796 -0.0600
  509loPI   C3B 8143   9.357   4.324   9.008  0.1478  0.0432  0.0148
  509loPI   C4B 8144   9.601   4.247   8.631 -0.1123  0.1659 -0.0897
  510loPI    C1 8145   2.713   4.458  11.683 -0.0354 -0.2053 -0.0318
  510loPI    C2 8146   2.547   4.147  11.872 -0.0381 -0.1080  0.1279
  510loPI    C3 8147   2.600   4.493  12.065 -0.1229  0.0210 -0.0768
  510loPI   PO4 8148   2.533   4.369  11.430  0.1417  0.0083 -0.2716
  510loPI   GL1 8149   2.367   4.411  11.085  0.0199  0.0555 -0.1834
  510loPI   GL2 8150   2.457   4.133  11.022  0.0557 -0.1665  0.0256
  510loPI   C1A 8151   2.155   4.659  10.797  0.2537 -0.1605 -0.0853
  510loPI   C2A 8152   2.305   4.626  10.330 -0.3177  0.0354 -0.2450
  510loPI   C3A 8153   2.140   4.574   9.789  0.0254 -0.2746  0.1280
  510loPI   C4A 8154   2.149   4.653   9.381  0.0175  0.1089  0.0124
  510loPI   C5A 8155   2.269   4.467   9.016 -0.1228  0.0664  0.0280
  510loPI   C6A 8156   2.367   4.491   8.568 -0.2365 -0.0306 -0.1505
  510loPI   C1B 8157   2.519   4.191  10.619  0.0273 -0.1825  0.0012
  510loPI   C2B 8158   2.548   4.230  10.182 -0.1682  0.0393  0.0262
  510loPI   C3B 8159   2.387   4.120   9.751 -0.0645  0.1296  0.2498
  510loPI   C4B 8160   2.436   4.092   9.273  0.3842 -0.0059  0.0183
  511loPI    C1 8161   7.283   9.476  11.572 -0.0506 -0.2371 -0.0001
  511loPI    C2 8162   7.590   9.631  11.776  0.0231 -0.1459 -0.1776
  511loPI    C3 8163   7.392   9.315  11.922  0.2575 -0.2618 -0.1038
  511loPI   PO4 8164   7.327   9.443  11.295 -0.0960 -0.1387 -0.0849
  511loPI   GL1 8165   7.179   9.571  10.909  0.1490 -0.0075 -0.2566
  511loPI   GL2 8166   7.453   9.611  10.855 -0.1350  0.1227  0.0526
  511loPI   C1A 8167   7.094   9.510  10.481 -0.1113 -0.0434  0.0283
  511loPI   C2A 8168   7.046   9.493  10.070  0.1970  0.0523 -0.1511
  511loPI   C3A 8169   7.110   9.530   9.650  0.0558 -0.2346 -0.0600
  511loPI   C4A 8170   7.106   9.582   9.189  0.0714  0.2778  0.3805
  511loPI   C5A 8171   7.473   9.598   8.818  0.0845  0.1758 -0.4452
  511loPI   C6A 8172   7.704   9.274   8.544  0.0267  0.3992  0.2156
  511loPI   C1B 8173   7.631   9.515  10.563 -0.1051  0.2615 -0.1117
  511loPI   C2B 8174   7.592   9.641  10.180  0.1624  0.0161 -0.0525
  511loPI   C3B 8175   7.644   9.588   9.747 -0.2347 -0.1084  0.1477
  511loPI   C4B 8176   7.590   9.601   9.350 -0.0372 -0.0033  0.0868
  512loPI    C1 8177   5.523  12.068  11.419 -0.2143  0.1211 -0.2026
  512loPI    C2 8178   5.619  12.413  11.597  0.0866 -0.0991  0.0716
  512loPI    C3 8179   5.469  12.112  11.813 -0.1660 -0.1458 -0.1647
  512loPI   PO4 8180   5.383  12.098  11.177 -0.0893 -0.1742  0.0905
  512loPI   GL1 8181   5.565  12.074  10.789 -0.2679  0.0972  0.0510
  512loPI   GL2 8182   5.694  11.845  10.538 -0.2120  0.0875  0.1897
  512loPI   C1A 8183   5.515  12.237  10.416  0.0162 -0.1839 -0.1053
  512loPI   C2A 8184   5.479  12.316  10.034  0.3142 -0.0336  0.0964
  512loPI   C3A 8185   5.501  12.342   9.599  0.2283 -0.1893  0.0086
  512loPI   C4A 8186   5.534  12.284   9.131  0.0758 -0.1345  0.4265
  512loPI   C5A 8187   5.650  12.319   8.681 -0.1095 -0.1082 -0.3741
  512loPI   C6A 8188   5.782  12.427   8.329  0.0082  0.1000  0.3717
  512loPI   C1B 8189   5.772  11.887  10.147 -0.1066  0.0326  0.1163
  512loPI   C2B 8190   5.752  11.883   9.736  0.0588 -0.2659 -0.0141
  512loPI   C3B 8191   5.837  11.936   9.294  0.1002 -0.0789  0.2778
  512loPI   C4B 8192   5.734  11.854   8.963 -0.0235  0.1468  0.0352
  513loPI    C1 8193   5.302   9.583  11.148  0.2420 -0.0057 -0.1044
  513loPI    C2 8194   5.280   9.456  11.526  0.1194  0.0323 -0.0984
  513loPI    C3 8195   5.438   9.814  11.445 -0.2722  0.2242 -0.0375
  513loPI   PO4 8196   5.352   9.308  11.068  0.2415 -0.1247  0.0471
  513loPI   GL1 8197   5.383   9.114  10.732  0.1307 -0.1433 -0.2067
  513loPI   GL2 8198   5.553   8.836  10.851  0.1908  0.1200  0.0469
  513loPI   C1A 8199   5.277   9.091  10.258  0.1324 -0.1917  0.0114
  513loPI   C2A 8200   5.243   9.035   9.816  0.1380  0.2825  0.0954
  513loPI   C3A 8201   5.244   9.188   9.430  0.0154  0.1490  0.0526
  513loPI   C4A 8202   5.241   9.153   8.938 -0.2204  0.0040  0.0788
  513loPI   C5A 8203   4.859   8.973   8.761 -0.1498  0.3978 -0.0461
  513loPI   C6A 8204   4.634   8.637   8.907 -0.2068 -0.0262  0.2546
  513loPI   C1B 8205   5.682   8.729  10.435  0.0229  0.1180 -0.2526
  513loPI   C2B 8206   5.493   8.648  10.035 -0.1373 -0.1524  0.0062
  513loPI   C3B 8207   5.386   8.612   9.563 -0.0628  0.1453  0.0009
  513loPI   C4B 8208   5.518   8.750   9.229 -0.1368 -0.2496  0.1335
  514loPI    C1 8209   5.797   6.186  11.407 -0.3222  0.2503 -0.0499
  514loPI    C2 8210   5.565   5.860  11.415  0.0508 -0.0192  0.0773
  514loPI    C3 8211   5.856   5.905  11.685  0.1338  0.3258 -0.0639
  514loPI   PO4 8212   5.768   6.267  11.203  0.5855 -0.0414 -0.1330
  514loPI   GL1 8213   5.929   6.225  10.793 -0.0652  0.1557 -0.2381
  514loPI   GL2 8214   6.303   6.034  10.747 -0.1477  0.2194 -0.3168
  514loPI   C1A 8215   5.796   6.447  10.400 -0.0388  0.1236  0.2769
  514loPI   C2A 8216   5.713   6.504   9.922  0.2049  0.1062  0.0728
  514loPI   C3A 8217   5.736   6.534   9.495 -0.1795 -0.2439  0.1341
  514loPI   C4A 8218   5.675   6.483   9.007 -0.1465 -0.1446  0.3364
  514loPI   C5A 8219   5.429   6.163   8.790  0.0925 -0.1616 -0.0276
  514loPI   C6A 8220   4.905   5.953   8.693 -0.0995  0.1116 -0.1080
  514loPI   C1B 8221   6.123   5.936  10.428 -0.3775 -0.0140 -0.0333
  514loPI   C2B 8222   6.024   6.082  10.010 -0.0171  0.0356 -0.0615
  514loPI   C3B 8223   6.131   6.132   9.597  0.3553  0.1142  0.0078
  514loPI   C4B 8224   5.965   6.029   9.204  0.1495  0.1346 -0.0092
  515loPI    C1 8225   9.588   4.058  10.767  0.0179  0.0007  0.1949
  515loPI    C2 8226   9.830   4.146  11.073  0.0594  0.1934  0.1082
  515loPI    C3 8227   9.617   4.435  10.898  0.1811  0.1184 -0.1688
  515loPI   PO4 8228   9.738   4.057  10.481  0.2383 -0.0001 -0.0888
  515loPI   GL1 8229   9.763   4.104  10.066  0.2173  0.1815 -0.1768
  515loPI   GL2 8230   9.979   3.850  10.113  0.1880  0.4425 -0.0815
  515loPI   C1A 8231   9.799   4.217   9.618 -0.3233  0.0100 -0.1364
  515loPI   C2A 8232   9.898   4.020   9.341 -0.2426  0.1050  0.4020
  515loPI   C3A 8233  10.341   3.872   9.217 -0.3042 -0.0978  0.2069
  515loPI   C4A 8234  10.373   3.695   8.831  0.2093 -0.0091  0.1989
  515loPI   C5A 8235  10.233   3.532   8.469  0.1535  0.0394  0.1977
  515loPI   C6A 8236  10.357   3.264   8.103  0.2038  0.1256  0.4100
  515loPI   C1B 8237   9.868   3.722   9.713 -0.0828  0.0005 -0.0929
  515loPI   C2B 8238  10.001   3.545   9.256  0.0388  0.1054 -0.0617
  515loPI   C3B 8239   9.693   3.329   9.056 -0.2277 -0.1363 -0.1870
  515loPI   C4B 8240   9.233   3.271   9.177  0.1189 -0.1651 -0.0688
  516loPI    C1 8241   5.400   6.471  11.827 -0.0491 -0.0571  0.2701
  516loPI    C2 8242   5.463   6.855  11.732  0.1089 -0.1137  0.1426
  516loPI    C3 8243   5.592   6.711  12.082 -0.0035 -0.0360  0.2163
  516loPI   PO4 8244   5.364   6.391  11.588 -0.1904  0.1127  0.0351
  516loPI   GL1 8245   5.154   6.127  11.324 -0.1584 -0.0335  0.2776
  516loPI   GL2 8246   5.320   6.056  11.025  0.0018  0.2435 -0.0570
  516loPI   C1A 8247   4.958   6.348  10.976  0.0340 -0.2012 -0.0202
  516loPI   C2A 8248   4.811   6.418  10.473  0.0566  0.4114  0.2431
  516loPI   C3A 8249   4.773   6.522  10.021  0.1199  0.2490 -0.0715
  516loPI   C4A 8250   4.692   6.384   9.623  0.3508 -0.2003  0.3417
  516loPI   C5A 8251   4.664   6.498   9.240  0.1300 -0.0308  0.1908
  516loPI   C6A 8252   4.483   6.669   8.985  0.3026 -0.0609  0.0830
  516loPI   C1B 8253   5.542   5.923  10.640  0.1022 -0.0760 -0.0843
  516loPI   C2B 8254   5.570   5.979  10.246 -0.1363  0.0465  0.1309
  516loPI   C3B 8255   5.552   6.082   9.738 -0.1781 -0.3812  0.2202
  516loPI   C4B 8256   5.496   6.038   9.329 -0.0238  0.1444 -0.0045
  517loPI    C1 8257   0.722  14.168  11.803 -0.1004  0.0146 -0.1750
  517loPI    C2 8258   0.805  14.443  12.081  0.2103 -0.1013 -0.1494
  517loPI    C3 8259   0.717  14.068  12.191 -0.0746 -0.0487 -0.1908
  517loPI   PO4 8260   0.719  14.386  11.538 -0.0662 -0.2974  0.0689
  517loPI   GL1 8261   0.792  14.256  11.130  0.1985  0.2469 -0.0837
  517loPI   GL2 8262   0.608  14.553  11.070  0.1309  0.2107  0.0432
  517loPI   C1A 8263   0.818  14.129  10.735  0.1048  0.0852  0.0870
  517loPI   C2A 8264   0.864  14.086  10.295  0.2085  0.0655  0.1413
  517loPI   C3A 8265   0.916  14.106   9.835 -0.3643 -0.1364 -0.0759
  517loPI   C4A 8266   0.838  14.086   9.411 -0.1889  0.1192 -0.2177
  517loPI   C5A 8267   0.834  14.185   9.032  0.1615  0.2420 -0.1132
  517loPI   C6A 8268   1.262  14.239   8.825  0.3218 -0.4394  0.0237
  517loPI   C1B 8269   0.593  14.538  10.598  0.0405 -0.0020 -0.4457
  517loPI   C2B 8270   0.630  14.556  10.224  0.1807  0.1646 -0.0640
  517loPI   C3B 8271   0.618  14.505   9.742  0.1617  0.5037  0.2926
  517loPI   C4B 8272   0.633  14.575   9.307  0.3622 -0.0509 -0.0675
  518loPI    C1 8273   6.671   1.890  11.414  0.0420  0.2872  0.1738
  518loPI    C2 8274   6.479   1.588  11.592  0.0010  0.1711 -0.0637
  518loPI    C3 8275   6.867   1.649  11.665  0.0087  0.0631 -0.0115
  518loPI   PO4 8276   6.667   1.794  11.115  0.1269 -0.1984 -0.3435
  518loPI   GL1 8277   6.650   1.885  10.689  0.0522 -0.0808  0.0552
  518loPI   GL2 8278   6.798   1.819  10.397  0.0503  0.1458  0.1210
  518loPI   C1A 8279   6.222   1.850  10.356  0.2041 -0.2952 -0.1222
  518loPI   C2A 8280   6.253   2.038   9.926 -0.3688 -0.2288  0.1160
  518loPI   C3A 8281   6.255   1.911   9.558  0.1879  0.2456  0.0793
  518loPI   C4A 8282   6.235   1.871   9.180 -0.1230  0.1985  0.1823
  518loPI   C5A 8283   6.168   1.799   8.775  0.2309 -0.4728 -0.0554
  518loPI   C6A 8284   6.186   1.867   8.276  0.1295  0.1474  0.0095
  518loPI   C1B 8285   6.740   1.968   9.915  0.2900 -0.4048 -0.1242
  518loPI   C2B 8286   6.739   1.970   9.570 -0.1000  0.1121 -0.1822
  518loPI   C3B 8287   6.747   1.989   9.179  0.1674  0.0781  0.0825
  518loPI   C4B 8288   6.710   1.869   8.706  0.1232 -0.1419 -0.0338
  519loPI    C1 8289   3.110   5.848  11.934  0.2480  0.1499  0.2181
  519loPI    C2 8290   2.795   6.091  11.978  0.0924 -0.0396  0.1670
  519loPI    C3 8291   2.967   5.925  12.299  0.1332  0.0545  0.1939
  519loPI   PO4 8292   3.116   5.813  11.610 -0.0128  0.2603  0.1293
  519loPI   GL1 8293   3.142   5.694  11.208  0.1082  0.0393  0.2300
  519loPI   GL2 8294   2.857   5.609  11.096  0.3079 -0.0272 -0.0783
  519loPI   C1A 8295   3.269   5.494  10.847 -0.1358  0.2648  0.0342
  519loPI   C2A 8296   3.231   5.508  10.502  0.1990 -0.1793  0.1202
  519loPI   C3A 8297   3.218   5.455  10.116 -0.0602  0.2005 -0.1159
  519loPI   C4A 8298   3.266   5.511   9.644 -0.2050  0.0581  0.0329
  519loPI   C5A 8299   3.128   5.450   9.174  0.3417 -0.0578 -0.3253
  519loPI   C6A 8300   2.748   5.279   8.897  0.0830  0.1355  0.0193
  519loPI   C1B 8301   2.719   5.495  10.675  0.5115  0.1333  0.0827
  519loPI   C2B 8302   2.698   5.528  10.299  0.1650  0.2890 -0.0980
  519loPI   C3B 8303   2.759   5.462   9.911  0.1883 -0.4738 -0.0280
  519loPI   C4B 8304   2.660   5.400   9.398 -0.0186  0.1828 -0.0728
  520loPI    C1 8305   3.563  13.476  11.279  0.1772  0.1419 -0.1872
  520loPI    C2 8306   3.432  13.295  11.612  0.1011  0.3758 -0.0878
  520loPI    C3 8307   3.820  13.280  11.515  0.0688  0.0126 -0.1749
  520loPI   PO4 8308   3.327  13.408  11.029  0.0762  0.1676  0.1207
  520loPI   GL1 8309   3.294  13.461  10.601 -0.2143  0.0521 -0.0783
  520loPI   GL2 8310   3.146  13.628  10.596  0.3280  0.2086 -0.1076
  520loPI   C1A 8311   3.356  13.583  10.145 -0.2274 -0.0552 -0.0116
  520loPI   C2A 8312   3.155  13.630   9.792  0.1975 -0.0302 -0.0006
  520loPI   C3A 8313   3.129  13.635   9.326 -0.2777  0.1477 -0.0306
  520loPI   C4A 8314   3.210  13.714   8.892 -0.0122  0.3884 -0.1281
  520loPI   C5A 8315   3.056  13.524   8.481 -0.1875 -0.2428 -0.0060
  520loPI   C6A 8316   2.862  13.386   8.067 -0.1326 -0.2234  0.1094
  520loPI   C1B 8317   2.893  13.574  10.249  0.0847  0.1063 -0.2935
  520loPI   C2B 8318   2.649  13.658   9.907 -0.0768 -0.0290 -0.0005
  520loPI   C3B 8319   2.620  13.654   9.455 -0.1030 -0.0105 -0.1946
  520loPI   C4B 8320   2.693  13.644   9.035  0.2122 -0.0207  0.0523
  521loPI    C1 8321  15.565   3.357  11.206  0.2574  0.0363  0.2190
  521loPI    C2 8322  15.305   3.088  11.347  0.2221 -0.1583 -0.2044
  521loPI    C3 8323  15.661   3.132  11.523  0.1417 -0.3228  0.0041
  521loPI   PO4 8324  15.415   3.357  10.944  0.0005  0.1993  0.0982
  521loPI   GL1 8325  15.388   3.662  10.634 -0.0426 -0.1928 -0.2417
  521loPI   GL2 8326  15.487   3.927  10.617  0.1319 -0.0657 -0.2181
  521loPI   C1A 8327  15.471   3.736  10.169 -0.1211 -0.3191  0.2043
  521loPI   C2A 8328  15.521   3.731   9.768 -0.1839  0.0547 -0.0490
  521loPI   C3A 8329  15.515   3.857   9.346  0.1835  0.1342 -0.2041
  521loPI   C4A 8330  15.574   3.820   9.027 -0.2556 -0.0502 -0.7208
  521loPI   C5A 8331  15.479   3.647   8.588 -0.1142  0.2742  0.0983
  521loPI   C6A 8332  15.538   3.735   8.154  0.1932  0.1636 -0.0684
  521loPI   C1B 8333  15.273   4.180  10.361 -0.0057 -0.0704 -0.0584
  521loPI   C2B 8334  15.275   4.204   9.897  0.1617  0.0823  0.2160
  521loPI   C3B 8335  15.273   4.315   9.488 -0.0801  0.0810  0.1236
  521loPI   C4B 8336  15.224   4.273   9.069 -0.0966  0.0497  0.0551
  522loPI    C1 8337  15.525   6.933  11.327  0.3306 -0.1067  0.2369
  522loPI    C2 8338  15.379   7.231  11.551 -0.0765  0.0744 -0.2495
  522loPI    C3 8339  15.230   6.861  11.587 -0.0043  0.0606 -0.0862
  522loPI   PO4 8340  15.503   7.070  10.979  0.0100 -0.2590 -0.3521
  522loPI   GL1 8341  15.318   6.788  10.706 -0.2229  0.3657 -0.0919
  522loPI   GL2 8342  15.600   6.913  10.526  0.1754 -0.0664  0.1204
  522loPI   C1A 8343  15.198   6.810  10.264 -0.2169 -0.0419  0.2328
  522loPI   C2A 8344  15.292   6.975   9.919  0.1858 -0.2704  0.3720
  522loPI   C3A 8345  15.293   6.936   9.481  0.1109  0.1488  0.1682
  522loPI   C4A 8346  15.263   7.051   9.125  0.1092 -0.2158  0.1741
  522loPI   C5A 8347  15.204   7.034   8.688 -0.0438  0.2500  0.1738
  522loPI   C6A 8348  15.309   6.863   8.280  0.1101 -0.2730  0.1062
  522loPI   C1B 8349  15.726   6.851  10.155  0.0898  0.0819 -0.1441
  522loPI   C2B 8350  15.760   6.907   9.731 -0.0834  0.2295  0.1664
  522loPI   C3B 8351  15.805   7.018   9.312 -0.1458 -0.0482  0.1250
  522loPI   C4B 8352  15.721   7.189   8.911  0.2899 -0.1813  0.1183
  523loPI    C1 8353  11.064   5.884  11.041 -0.6265 -0.0049 -0.1027
  523loPI    C2 8354  11.258   5.610  11.259 -0.0997  0.2783 -0.1991
  523loPI    C3 8355  10.871   5.558  11.171 -0.1279 -0.2035  0.1671
  523loPI   PO4 8356  11.254   5.929  10.801 -0.1993 -0.1166  0.1527
  523loPI   GL1 8357  11.132   6.157  10.440 -0.3447  0.3056  0.1183
  523loPI   GL2 8358  10.794   6.117  10.297  0.1716 -0.0456 -0.0441
  523loPI   C1A 8359  11.167   6.292  10.026 -0.1888  0.2065  0.0986
  523loPI   C2A 8360  11.315   6.451   9.675  0.0267 -0.0871  0.1772
  523loPI   C3A 8361  11.607   6.605   9.409  0.0569 -0.0545 -0.0365
  523loPI   C4A 8362  11.794   6.471   9.026  0.0737  0.1603  0.2227
  523loPI   C5A 8363  12.171   6.627   8.853  0.0932  0.1827 -0.2182
  523loPI   C6A 8364  12.079   7.067   8.699 -0.3327  0.0111  0.0827
  523loPI   C1B 8365  10.752   5.934   9.875  0.0828 -0.0592 -0.0967
  523loPI   C2B 8366  10.628   5.848   9.439 -0.0377 -0.0338  0.0117
  523loPI   C3B 8367  10.508   5.950   9.020  0.0429 -0.0483  0.0006
  523loPI   C4B 8368  10.796   6.303   8.759  0.0534  0.1511  0.3177
  524loPI    C1 8369  14.259   4.971  11.337 -0.1789  0.1448  0.1038
  524loPI    C2 8370  13.964   5.201  11.477 -0.2245 -0.0500  0.3350
  524loPI    C3 8371  13.893   4.818  11.387 -0.1756  0.0491 -0.1511
  524loPI   PO4 8372  14.298   5.016  11.065 -0.2129  0.1510 -0.1205
  524loPI   GL1 8373  14.298   4.995  10.673 -0.3607  0.3114 -0.0610
  524loPI   GL2 8374  14.519   4.879  10.490  0.0751 -0.5016 -0.1365
  524loPI   C1A 8375  14.158   4.989  10.228 -0.1544 -0.3144 -0.0529
  524loPI   C2A 8376  13.963   4.722   9.864  0.1866  0.2843 -0.0048
  524loPI   C3A 8377  13.878   4.709   9.438  0.0194  0.2015 -0.0626
  524loPI   C4A 8378  13.875   4.722   8.996 -0.0289 -0.0699 -0.0032
  524loPI   C5A 8379  13.969   4.734   8.596  0.4958 -0.1289 -0.0668
  524loPI   C6A 8380  14.257   4.904   8.233 -0.3909  0.0745 -0.1437
  524loPI   C1B 8381  14.717   4.995  10.129  0.1077  0.0156  0.0861
  524loPI   C2B 8382  14.730   5.128   9.594  0.1433  0.0620 -0.2583
  524loPI   C3B 8383  14.691   5.150   9.047 -0.3467  0.2733  0.1100
  524loPI   C4B 8384  14.686   5.327   8.716  0.2467 -0.0016  0.2873
  525loPI    C1 8385  16.330   9.389  11.608  0.1519 -0.0395 -0.1726
  525loPI    C2 8386  16.539   9.114  11.810 -0.1265 -0.0825  0.0631
  525loPI    C3 8387  16.220   9.288  11.979  0.0264  0.3649 -0.0946
  525loPI   PO4 8388  16.303   9.339  11.385 -0.0293 -0.0009 -0.0212
  525loPI   GL1 8389  16.357   9.494  10.937  0.0753 -0.0941 -0.2137
  525loPI   GL2 8390  16.561   9.128  10.810  0.1530  0.0042 -0.2879
  525loPI   C1A 8391  16.268   9.607  10.484 -0.2304 -0.0519 -0.0136
  525loPI   C2A 8392  16.314   9.732  10.077  0.1539 -0.0672 -0.0202
  525loPI   C3A 8393  16.328   9.706   9.610  0.0461 -0.2788 -0.1675
  525loPI   C4A 8394  16.359   9.629   9.090 -0.1259 -0.0642  0.1515
  525loPI   C5A 8395  16.181   9.701   8.692  0.0591 -0.2793  0.0049
  525loPI   C6A 8396  16.010   9.541   8.383  0.0890 -0.1347 -0.4202
  525loPI   C1B 8397  16.485   9.168  10.310 -0.1290 -0.1023 -0.1975
  525loPI   C2B 8398  16.458   9.137   9.835 -0.0672 -0.4094  0.0155
  525loPI   C3B 8399  16.561   9.171   9.387  0.1240 -0.1905  0.2514
  525loPI   C4B 8400  16.527   9.209   8.945  0.1715 -0.4107 -0.0441
  526loPI    C1 8401  17.436  11.313  11.618 -0.0233 -0.1789 -0.1799
  526loPI    C2 8402  17.245  11.663  11.652  0.2542 -0.0583  0.2303
  526loPI    C3 8403  17.189  11.377  11.926  0.4226 -0.1393  0.1818
  526loPI   PO4 8404  17.374  11.197  11.440  0.2118 -0.0651 -0.0990
  526loPI   GL1 8405  17.403  11.179  10.920 -0.2040  0.1718 -0.0684
  526loPI   GL2 8406  17.426  11.441  10.828  0.1656 -0.0138  0.1006
  526loPI   C1A 8407  17.581  11.022  10.427 -0.2377 -0.1996  0.1293
  526loPI   C2A 8408  17.584  10.971   9.952 -0.0933  0.0007 -0.2795
  526loPI   C3A 8409  17.560  10.981   9.452  0.1468 -0.0890 -0.2518
  526loPI   C4A 8410  17.507  11.050   9.095 -0.1525 -0.0267 -0.0606
  526loPI   C5A 8411  17.684  10.856   8.737 -0.2823 -0.0030  0.1094
  526loPI   C6A 8412  17.759  11.078   8.299 -0.1131 -0.0334  0.1368
  526loPI   C1B 8413  17.300  11.443  10.392 -0.0064 -0.1112 -0.0164
  526loPI   C2B 8414  17.268  11.417   9.914 -0.0088  0.0622 -0.1535
  526loPI   C3B 8415  17.290  11.456   9.425  0.0129  0.2233 -0.0201
  526loPI   C4B 8416  17.268  11.493   8.988  0.0092  0.0292 -0.0466
  527loPI    C1 8417  12.092   5.169  10.982  0.1527 -0.0091  0.1928
  527loPI    C2 8418  11.707   5.188  11.089  0.0520  0.1931 -0.1860
  527loPI    C3 8419  11.903   4.840  11.111 -0.0942  0.1291  0.1902
  527loPI   PO4 8420  12.165   5.243  10.753  0.0464  0.1963  0.1253
  527loPI   GL1 8421  12.125   5.479  10.462  0.0934 -0.0017  0.0646
  527loPI   GL2 8422  12.394   5.590  10.381  0.0471  0.1035 -0.3618
  527loPI   C1A 8423  12.074   5.687  10.056  0.0077 -0.2786  0.0317
  527loPI   C2A 8424  12.167   5.934   9.606 -0.4308 -0.0928  0.2285
  527loPI   C3A 8425  12.568   6.100   9.416  0.2393 -0.3740  0.2752
  527loPI   C4A 8426  12.670   6.331   9.035  0.0147 -0.0905 -0.3689
  527loPI   C5A 8427  12.782   6.511   8.645  0.0317  0.2528  0.0170
  527loPI   C6A 8428  12.849   6.527   8.117  0.0494 -0.2160  0.1154
  527loPI   C1B 8429  12.767   5.444  10.028  0.3862 -0.2092 -0.1723
  527loPI   C2B 8430  12.840   5.213   9.713 -0.1926  0.0076 -0.0095
  527loPI   C3B 8431  12.872   5.251   9.205  0.1029 -0.2861 -0.1807
  527loPI   C4B 8432  13.199   4.999   8.841 -0.0042 -0.1387  0.0280
  528loPI    C1 8433   8.083   1.322  10.990 -0.2764  0.2500 -0.0428
  528loPI    C2 8434   8.074   1.342  11.389  0.0617  0.0090 -0.0192
  528loPI    C3 8435   8.423   1.294  11.199 -0.1363 -0.2756 -0.3218
  528loPI   PO4 8436   7.929   1.163  10.901 -0.2251 -0.0049  0.0553
  528loPI   GL1 8437   7.619   1.174  10.595 -0.0717  0.2651 -0.1049
  528loPI   GL2 8438   7.472   0.919  10.484 -0.2460 -0.1412  0.1185
  528loPI   C1A 8439   7.649   1.537  10.389 -0.0260  0.1593  0.1759
  528loPI   C2A 8440   7.659   1.564   9.917  0.0022  0.1059 -0.0213
  528loPI   C3A 8441   7.562   1.511   9.533 -0.2273 -0.0878  0.4545
  528loPI   C4A 8442   7.596   1.497   9.072  0.0292  0.0435 -0.0065
  528loPI   C5A 8443   7.578   1.536   8.699 -0.1942  0.3299  0.0775
  528loPI   C6A 8444   7.757   1.607   8.258  0.0851 -0.0246  0.0344
  528loPI   C1B 8445   7.405   1.035  10.039 -0.1144 -0.2116 -0.1991
  528loPI   C2B 8446   7.364   1.037   9.608 -0.1351  0.1285 -0.3062
  528loPI   C3B 8447   7.338   1.091   9.316  0.2113 -0.0129  0.2518
  528loPI   C4B 8448   7.368   1.110   8.852 -0.1331 -0.0314  0.0272
  529loPI    C1 8449   7.279   2.696  11.145  0.1556  0.1471  0.2168
  529loPI    C2 8450   7.218   2.545  11.510  0.2109  0.0680  0.1935
  529loPI    C3 8451   7.555   2.745  11.430  0.0951  0.2888  0.2515
  529loPI   PO4 8452   7.160   2.538  10.984 -0.3310  0.0411 -0.1777
  529loPI   GL1 8453   6.931   2.504  10.562 -0.1200 -0.1994 -0.1819
  529loPI   GL2 8454   7.041   2.267  10.321 -0.1181 -0.0971  0.0126
  529loPI   C1A 8455   6.822   2.770  10.240  0.3575  0.2684  0.0545
  529loPI   C2A 8456   6.725   2.872   9.792  0.4228 -0.0632  0.1585
  529loPI   C3A 8457   6.739   2.887   9.380  0.0846  0.2343  0.2784
  529loPI   C4A 8458   6.753   2.837   8.888 -0.2167  0.2062  0.1692
  529loPI   C5A 8459   7.015   2.762   8.529  0.3125  0.0855  0.0667
  529loPI   C6A 8460   7.353   2.443   8.493  0.1493 -0.1419  0.2395
  529loPI   C1B 8461   6.994   2.410   9.884 -0.1666  0.0323 -0.1614
  529loPI   C2B 8462   6.994   2.410   9.516  0.0089  0.1788 -0.0470
  529loPI   C3B 8463   7.096   2.503   9.110 -0.2295 -0.1778  0.1978
  529loPI   C4B 8464   6.917   2.312   8.737  0.3327  0.2411  0.2670
  530loPI    C1 8465   7.992  11.186  11.302 -0.0988 -0.2819  0.0608
  530loPI    C2 8466   8.339  10.999  11.369 -0.0838 -0.2096  0.1893
  530loPI    C3 8467   8.219  11.290  11.615 -0.0479  0.0353 -0.0769
  530loPI   PO4 8468   8.044  11.244  10.952  0.0247 -0.2348 -0.0641
  530loPI   GL1 8469   8.029  11.306  10.551  0.0996 -0.3017 -0.1311
  530loPI   GL2 8470   7.658  11.395  10.491  0.0935 -0.1012  0.0523
  530loPI   C1A 8471   8.086  11.460  10.127  0.1007 -0.1275 -0.0611
  530loPI   C2A 8472   8.089  11.285   9.753 -0.0635  0.1598 -0.1835
  530loPI   C3A 8473   8.123  11.328   9.278  0.0236 -0.0165 -0.0297
  530loPI   C4A 8474   7.978  11.394   8.877  0.1537  0.1471 -0.0555
  530loPI   C5A 8475   7.749  11.224   8.560 -0.0356 -0.1553  0.1622
  530loPI   C6A 8476   7.641  11.191   8.071 -0.4244 -0.1764 -0.2013
  530loPI   C1B 8477   7.564  11.354  10.103  0.0194  0.1366 -0.0294
  530loPI   C2B 8478   7.592  11.401   9.661 -0.1009 -0.0454 -0.3287
  530loPI   C3B 8479   7.590  11.484   9.209 -0.0139  0.0604 -0.2476
  530loPI   C4B 8480   7.539  11.624   8.797  0.0971  0.0765 -0.1631
  531loPI    C1 8481   5.749   7.266  11.572  0.1542 -0.1459 -0.3024
  531loPI    C2 8482   6.139   7.358  11.570  0.1188  0.0086 -0.2383
  531loPI    C3 8483   6.012   7.026  11.755  0.1793  0.1456  0.0547
  531loPI   PO4 8484   5.717   7.369  11.321 -0.2082  0.0480  0.1307
  531loPI   GL1 8485   5.700   7.018  10.988  0.1367 -0.0704 -0.1702
  531loPI   GL2 8486   5.886   7.330  10.883  0.2433 -0.3152  0.3402
  531loPI   C1A 8487   5.563   6.910  10.521  0.1693  0.2524 -0.2242
  531loPI   C2A 8488   5.455   6.860  10.083 -0.2717  0.0527  0.0158
  531loPI   C3A 8489   5.470   6.883   9.676 -0.2672  0.0247 -0.4779
  531loPI   C4A 8490   5.468   6.863   9.277 -0.3626 -0.2273  0.1834
  531loPI   C5A 8491   5.393   6.966   8.862 -0.1557  0.0176 -0.0012
  531loPI   C6A 8492   5.222   6.778   8.437 -0.1063 -0.0201  0.1945
  531loPI   C1B 8493   5.768   7.402  10.426 -0.0324  0.1349  0.3886
  531loPI   C2B 8494   5.817   7.350   9.987  0.4694  0.4497 -0.0349
  531loPI   C3B 8495   5.732   7.364   9.556  0.0760 -0.0269 -0.2546
  531loPI   C4B 8496   5.695   7.285   9.127  0.1072 -0.2059 -0.0809
  532loPI    C1 8497   3.788  14.928  11.330  0.0607  0.0604  0.1744
  532loPI    C2 8498   3.609  15.224  11.531 -0.0257  0.2217 -0.1336
  532loPI    C3 8499   3.998  15.150  11.588  0.0001  0.4046 -0.0655
  532loPI   PO4 8500   3.677  14.885  11.096  0.3333 -0.3386 -0.1015
  532loPI   GL1 8501   3.960  14.788  10.739 -0.1798  0.3561  0.2725
  532loPI   GL2 8502   3.716  14.540  10.648 -0.2788 -0.0694  0.3229
  532loPI   C1A 8503   3.973  14.938  10.391  0.0922 -0.3517 -0.2767
  532loPI   C2A 8504   3.941  15.049  10.026  0.0086  0.1419  0.3157
  532loPI   C3A 8505   4.002  15.020   9.640  0.0115  0.0339 -0.0206
  532loPI   C4A 8506   4.131  15.029   9.331 -0.0359 -0.1120 -0.2934
  532loPI   C5A 8507   3.941  15.100   8.965 -0.2736  0.1226  0.1685
  532loPI   C6A 8508   3.957  14.992   8.514  0.1385  0.1144  0.0665
  532loPI   C1B 8509   3.703  14.498  10.183 -0.0923  0.1699 -0.2016
  532loPI   C2B 8510   3.685  14.604   9.792 -0.1749  0.2606  0.1073
  532loPI   C3B 8511   3.747  14.553   9.363 -0.0037  0.0143 -0.0539
  532loPI   C4B 8512   3.689  14.520   8.994 -0.0131 -0.1866  0.2077
  533loPI    C1 8513   2.871  11.738  11.579 -0.0079 -0.1082  0.0222
  533loPI    C2 8514   2.656  11.660  11.908 -0.1541  0.1120 -0.0187
  533loPI    C3 8515   2.922  11.960  11.909 -0.0846  0.0511 -0.0719
  533loPI   PO4 8516   2.627  11.671  11.338  0.3454 -0.0756 -0.1836
  533loPI   GL1 8517   2.591  11.585  10.881 -0.0530 -0.3832  0.0907
  533loPI   GL2 8518   2.326  11.429  10.662  0.0695  0.1265 -0.2527
  533loPI   C1A 8519   2.656  11.781  10.469  0.0470 -0.1790  0.0273
  533loPI   C2A 8520   2.702  11.796   9.986  0.2711 -0.1849  0.1388
  533loPI   C3A 8521   2.636  11.820   9.574  0.1195 -0.1606 -0.1330
  533loPI   C4A 8522   2.711  11.797   9.159 -0.1150 -0.0437 -0.0154
  533loPI   C5A 8523   2.747  11.819   8.592 -0.0703  0.0659 -0.1784
  533loPI   C6A 8524   2.520  12.055   8.271  0.0283  0.1482  0.0175
  533loPI   C1B 8525   2.448  11.358  10.278  0.4266 -0.1464  0.0745
  533loPI   C2B 8526   2.412  11.451   9.874  0.1301  0.1036 -0.1073
  533loPI   C3B 8527   2.375  11.414   9.390  0.0594  0.0455  0.1838
  533loPI   C4B 8528   2.514  11.438   8.924 -0.1776 -0.0876  0.1704
  534loPI    C1 8529   8.084  10.252  11.527  0.1307 -0.0673  0.1461
  534loPI    C2 8530   8.392  10.508  11.526 -0.1635  0.2952  0.1775
  534loPI    C3 8531   8.314  10.291  11.852  0.1740  0.0521  0.1019
  534loPI   PO4 8532   7.966  10.197  11.309 -0.0910  0.0246  0.0003
  534loPI   GL1 8533   7.993  10.181  10.912 -0.0530  0.0235  0.1103
  534loPI   GL2 8534   7.630  10.054  10.793 -0.1771 -0.1238 -0.1651
  534loPI   C1A 8535   8.155  10.418  10.641  0.0576 -0.0523 -0.3092
  534loPI   C2A 8536   8.091  10.447  10.141 -0.1587 -0.0921  0.0264
  534loPI   C3A 8537   7.993  10.450   9.744 -0.2280 -0.3507 -0.1101
  534loPI   C4A 8538   8.032  10.479   9.228  0.0374 -0.0701  0.0360
  534loPI   C5A 8539   8.092  10.518   8.875 -0.1173 -0.1587  0.0606
  534loPI   C6A 8540   8.428  10.604   8.610  0.4132 -0.4254  0.0982
  534loPI   C1B 8541   7.935   9.930  10.395 -0.0989 -0.0008  0.1168
  534loPI   C2B 8542   7.884  10.020   9.913 -0.1038  0.2524 -0.3603
  534loPI   C3B 8543   7.803  10.064   9.492  0.2486 -0.0768  0.0272
  534loPI   C4B 8544   7.862  10.045   8.984 -0.1826 -0.0201  0.1621
  535loPI    C1 8545   0.813  11.406  11.489 -0.0783  0.2412  0.1560
  535loPI    C2 8546   0.465  11.218  11.545  0.1093 -0.1628  0.0038
  535loPI    C3 8547   0.654  11.385  11.856 -0.3813  0.3672  0.0351
  535loPI   PO4 8548   0.636  11.607  11.252 -0.0971 -0.0360 -0.0343
  535loPI   GL1 8549   0.485  11.681  10.876  0.2715 -0.0805 -0.0660
  535loPI   GL2 8550   0.557  11.868  10.748  0.0781 -0.1362 -0.0428
  535loPI   C1A 8551   0.378  11.469  10.552 -0.2761 -0.2264  0.1864
  535loPI   C2A 8552   0.335  11.488  10.223  0.1326 -0.0716 -0.1290
  535loPI   C3A 8553   0.325  11.499   9.809 -0.1223  0.0276  0.0001
  535loPI   C4A 8554   0.261  11.432   9.306  0.1757 -0.0346  0.2369
  535loPI   C5A 8555   0.337  11.370   8.921  0.2525  0.0080  0.1345
  535loPI   C6A 8556   0.242  11.253   8.526 -0.1177  0.0726 -0.0538
  535loPI   C1B 8557   0.623  11.876  10.299  0.1691  0.1192  0.3045
  535loPI   C2B 8558   0.615  11.924   9.911  0.1259  0.3052  0.0107
  535loPI   C3B 8559   0.632  11.968   9.535 -0.2264 -0.2562  0.1677
  535loPI   C4B 8560   0.547  11.915   9.096  0.1423 -0.0225 -0.1429
  536loPI    C1 8561   6.651   8.757  11.319 -0.1117  0.1027 -0.1551
  536loPI    C2 8562   6.504   8.919  11.654 -0.0972 -0.0065 -0.0956
  536loPI    C3 8563   6.618   8.535  11.650 -0.3161 -0.0726 -0.2903
  536loPI   PO4 8564   6.543   8.782  11.115 -0.1353  0.1026  0.5396
  536loPI   GL1 8565   6.538   8.774  10.742 -0.0983 -0.2382  0.0967
  536loPI   GL2 8566   6.694   8.480  10.624 -0.1547  0.2063  0.1108
  536loPI   C1A 8567   6.203   8.600  10.527 -0.2006  0.1065  0.0962
  536loPI   C2A 8568   5.981   8.665  10.055 -0.0686  0.1702 -0.1258
  536loPI   C3A 8569   6.018   8.602   9.666  0.0869 -0.0512 -0.2281
  536loPI   C4A 8570   6.044   8.756   9.226 -0.1469  0.1084 -0.1400
  536loPI   C5A 8571   5.771   8.789   8.802 -0.0856  0.0692  0.1752
  536loPI   C6A 8572   6.056   8.879   8.358  0.0361 -0.2477  0.2388
  536loPI   C1B 8573   6.576   8.682  10.198 -0.0345 -0.0100 -0.3129
  536loPI   C2B 8574   6.553   8.707   9.738 -0.0748  0.0698  0.0603
  536loPI   C3B 8575   6.533   8.647   9.206 -0.1543  0.3896  0.0817
  536loPI   C4B 8576   6.694   8.567   8.819  0.4393 -0.2838 -0.0744
  537loPI    C1 8577  16.303   0.501  11.251 -0.0122 -0.2836 -0.3284
  537loPI    C2 8578  16.067   0.352  11.538 -0.1410 -0.0340 -0.3018
  537loPI    C3 8579  16.415   0.524  11.635 -0.0318 -0.2383 -0.3253
  537loPI   PO4 8580  16.380   0.310  11.027  0.0139 -0.0880  0.1779
  537loPI   GL1 8581  16.072   0.155  10.609 -0.2141 -0.0247 -0.3066
  537loPI   GL2 8582  16.416   0.235  10.493  0.2652 -0.3310 -0.2282
  537loPI   C1A 8583  15.984   0.289  10.255  0.1639  0.1731 -0.2298
  537loPI   C2A 8584  16.022   0.226   9.814 -0.1331 -0.1743  0.0235
  537loPI   C3A 8585  16.091   0.118   9.416 -0.1501  0.3385  0.1561
  537loPI   C4A 8586  16.007   0.062   8.982  0.0235 -0.1512  0.0830
  537loPI   C5A 8587  15.746  -0.352   8.791 -0.0855  0.1058  0.0555
  537loPI   C6A 8588  16.033  -0.680   8.767 -0.1487  0.0239  0.0632
  537loPI   C1B 8589  16.493   0.243  10.098 -0.0579 -0.0347 -0.0754
  537loPI   C2B 8590  16.563   0.214   9.584  0.2502 -0.0863  0.2011
  537loPI   C3B 8591  16.543   0.101   9.206  0.2456  0.0171 -0.1773
  537loPI   C4B 8592  16.453   0.167   8.769 -0.2260 -0.2699 -0.0680
  538loPI    C1 8593  13.973  11.419  11.071 -0.3288  0.0703  0.3427
  538loPI    C2 8594  13.696  11.216  10.866  0.0197 -0.0905  0.0178
  538loPI    C3 8595  13.938  11.024  11.121 -0.0737  0.0272  0.1975
  538loPI   PO4 8596  13.969  11.694  10.996  0.2887 -0.0568 -0.1270
  538loPI   GL1 8597  14.043  11.841  10.647 -0.1171  0.0573 -0.0823
  538loPI   GL2 8598  13.927  11.863  10.273  0.0172  0.0644 -0.3660
  538loPI   C1A 8599  14.422  11.871  10.301 -0.1131 -0.0905  0.1051
  538loPI   C2A 8600  14.529  11.867   9.900 -0.0426  0.2208  0.0429
  538loPI   C3A 8601  14.448  11.884   9.468 -0.0383  0.1706 -0.3461
  538loPI   C4A 8602  14.419  11.935   8.966  0.3270 -0.0069 -0.0633
  538loPI   C5A 8603  14.200  12.191   8.633 -0.3273  0.0096 -0.0631
  538loPI   C6A 8604  14.212  12.436   8.285 -0.2303 -0.0410  0.1761
  538loPI   C1B 8605  13.936  11.899   9.791 -0.0715 -0.1316 -0.0190
  538loPI   C2B 8606  13.913  11.893   9.323  0.1717  0.1916  0.1245
  538loPI   C3B 8607  13.851  11.837   8.917  0.0862 -0.1357 -0.3375
  538loPI   C4B 8608  13.846  11.888   8.464 -0.2942 -0.0918 -0.1520
  539loPI    C1 8609  11.972  15.757  11.123  0.0503 -0.0185  0.1300
  539loPI    C2 8610  11.913  16.138  11.016  0.0989 -0.0505 -0.0122
  539loPI    C3 8611  11.669  15.965  11.282 -0.0872 -0.0020 -0.1487
  539loPI   PO4 8612  11.909  15.616  10.892  0.0198  0.1659 -0.0547
  539loPI   GL1 8613  11.923  15.599  10.483  0.2129  0.0281 -0.0455
  539loPI   GL2 8614  11.587  15.484  10.531 -0.0514 -0.1700 -0.0694
  539loPI   C1A 8615  11.953  15.431  10.126 -0.3811  0.0089  0.0823
  539loPI   C2A 8616  11.942  15.437   9.641  0.2267  0.0536  0.0220
  539loPI   C3A 8617  11.935  15.474   9.227 -0.1871 -0.0039  0.0580
  539loPI   C4A 8618  11.962  15.428   8.755 -0.0549 -0.2187  0.0109
  539loPI   C5A 8619  12.127  15.592   8.465  0.3081  0.1500 -0.0574
  539loPI   C6A 8620  12.310  15.747   8.086  0.5049  0.3629 -0.1704
  539loPI   C1B 8621  11.448  15.480  10.014 -0.4217 -0.2287 -0.0424
  539loPI   C2B 8622  11.493  15.527   9.579 -0.2405 -0.3698 -0.1830
  539loPI   C3B 8623  11.389  15.474   9.254 -0.1304 -0.0808 -0.2704
  539loPI   C4B 8624  11.380  15.521   8.775  0.1433  0.0584  0.1625
  540loPI    C1 8625   4.418   0.273  11.332  0.3981 -0.2016 -0.2918
  540loPI    C2 8626   4.725   0.254  11.588  0.1286  0.2089  0.0777
  540loPI    C3 8627   4.358   0.153  11.709  0.0343  0.1880 -0.2173
  540loPI   PO4 8628   4.447   0.240  11.149  0.1771 -0.2850 -0.0105
  540loPI   GL1 8629   4.583   0.540  10.805 -0.1137  0.0554  0.2694
  540loPI   GL2 8630   4.422   0.572  10.504  0.1555  0.0415  0.1605
  540loPI   C1A 8631   4.686   0.134  10.565  0.0559 -0.2337 -0.0270
  540loPI   C2A 8632   4.729   0.156  10.115 -0.2395 -0.2565 -0.1314
  540loPI   C3A 8633   4.814   0.143   9.738 -0.3803  0.0257  0.3750
  540loPI   C4A 8634   4.812   0.196   9.333 -0.0553 -0.1171  0.0092
  540loPI   C5A 8635   4.751   0.163   8.870 -0.2284  0.1122 -0.0341
  540loPI   C6A 8636   5.243   0.208   8.592 -0.0358 -0.2911  0.2766
  540loPI   C1B 8637   4.474   0.571  10.089 -0.2529  0.0055  0.2921
  540loPI   C2B 8638   4.510   0.541   9.624  0.1988 -0.1262 -0.0409
  540loPI   C3B 8639   4.539   0.578   9.153  0.1971 -0.0287 -0.0017
  540loPI   C4B 8640   4.508   0.836   8.753 -0.1034  0.0259  0.2302
  541loPI    C1 8641   5.207   4.561  11.323  0.2528  0.0386 -0.2795
  541loPI    C2 8642   5.518   4.726  11.513  0.0937 -0.0746  0.0882
  541loPI    C3 8643   5.409   4.350  11.597 -0.0753 -0.0739 -0.1198
  541loPI   PO4 8644   5.248   4.623  11.031  0.0417 -0.1588 -0.0056
  541loPI   GL1 8645   5.435   4.726  10.694  0.4775  0.4462 -0.2869
  541loPI   GL2 8646   5.519   4.989  10.563  0.1984 -0.0320 -0.2100
  541loPI   C1A 8647   5.241   4.603  10.239 -0.0628  0.4058  0.1933
  541loPI   C2A 8648   5.282   4.715   9.841  0.0253  0.0032  0.0273
  541loPI   C3A 8649   5.292   4.663   9.445 -0.1706 -0.0325 -0.0060
  541loPI   C4A 8650   5.238   4.774   8.974  0.2098  0.0489 -0.1087
  541loPI   C5A 8651   5.137   5.029   8.599  0.0605  0.0243  0.0803
  541loPI   C6A 8652   5.030   5.187   8.216  0.0049  0.2060  0.0768
  541loPI   C1B 8653   5.506   5.093  10.204  0.0837  0.3106 -0.1964
  541loPI   C2B 8654   5.541   5.203   9.724  0.0940 -0.0395  0.0119
  541loPI   C3B 8655   5.509   5.087   9.254  0.1340 -0.0819  0.0149
  541loPI   C4B 8656   5.556   5.257   8.836  0.1629  0.3854 -0.4080
  542loPI    C1 8657   7.977   0.493  11.461 -0.0276 -0.1619  0.0346
  542loPI    C2 8658   8.128   0.843  11.338 -0.0490 -0.1599  0.0141
  542loPI    C3 8659   8.331   0.618  11.599 -0.1476 -0.0170  0.2170
  542loPI   PO4 8660   7.845   0.385  11.244  0.2943 -0.0874 -0.2619
  542loPI   GL1 8661   8.054   0.201  10.850 -0.4965  0.0160  0.2294
  542loPI   GL2 8662   8.341   0.301  10.616  0.0508 -0.1930 -0.1905
  542loPI   C1A 8663   7.939   0.165  10.382 -0.1017  0.0114  0.1533
  542loPI   C2A 8664   7.890   0.187  10.024 -0.0860  0.1644  0.1765
  542loPI   C3A 8665   7.827   0.190   9.566 -0.0921 -0.2534 -0.0186
  542loPI   C4A 8666   7.892   0.251   9.132 -0.1986  0.0601  0.2114
  542loPI   C5A 8667   7.972   0.289   8.647 -0.0637 -0.0154  0.1162
  542loPI   C6A 8668   8.266   0.338   8.346 -0.2093  0.0932 -0.2509
  542loPI   C1B 8669   8.390   0.164  10.222  0.1821  0.0187 -0.3754
  542loPI   C2B 8670   8.319   0.221   9.815 -0.1253 -0.2026  0.5009
  542loPI   C3B 8671   8.324   0.186   9.423 -0.2540 -0.3385  0.1530
  542loPI   C4B 8672   8.346   0.221   8.936 -0.1085 -0.1242 -0.1278
  543loPI    C1 8673  12.254   1.200  11.355  0.1363 -0.1949  0.1192
  543loPI    C2 8674  12.334   1.571  11.480 -0.0110 -0.1023 -0.0561
  543loPI    C3 8675  12.059   1.351  11.670 -0.0340 -0.0650 -0.0462
  543loPI   PO4 8676  12.372   1.364  10.991 -0.0836 -0.0178  0.2668
  543loPI   GL1 8677  12.637   1.277  10.648  0.1135  0.3120 -0.3136
  543loPI   GL2 8678  12.640   1.570  10.420  0.5570 -0.1067  0.0848
  543loPI   C1A 8679  12.901   1.155  10.253  0.2899  0.4146 -0.0952
  543loPI   C2A 8680  12.992   1.103   9.796  0.0431  0.0847  0.0074
  543loPI   C3A 8681  12.911   1.044   9.416 -0.2123  0.0207  0.1727
  543loPI   C4A 8682  12.916   1.070   8.958 -0.0033  0.0498 -0.0285
  543loPI   C5A 8683  12.684   1.169   8.572 -0.2591 -0.4812  0.1349
  543loPI   C6A 8684  12.277   1.063   8.442 -0.1482  0.0208 -0.2012
  543loPI   C1B 8685  12.683   1.528   9.919 -0.1786 -0.2404  0.0408
  543loPI   C2B 8686  12.656   1.515   9.480 -0.1900  0.0235  0.2195
  543loPI   C3B 8687  12.682   1.661   9.052  0.1249 -0.0485  0.0134
  543loPI   C4B 8688  12.775   1.748   8.579  0.0151  0.2506 -0.1631
  544loPI    C1 8689  13.023  11.671  11.421  0.1475  0.0584 -0.2242
  544loPI    C2 8690  13.107  12.045  11.538 -0.1443  0.0390  0.0641
  544loPI    C3 8691  13.015  11.767  11.810 -0.0335 -0.2186 -0.1570
  544loPI   PO4 8692  12.932  11.701  11.141 -0.0709  0.0613  0.0115
  544loPI   GL1 8693  13.025  11.636  10.749  0.1072 -0.1906 -0.1794
  544loPI   GL2 8694  13.131  11.398  10.611 -0.3454 -0.1883  0.1041
  544loPI   C1A 8695  12.916  11.861  10.451  0.2155  0.0495  0.1865
  544loPI   C2A 8696  12.831  11.899  10.032 -0.2381  0.1170  0.0525
  544loPI   C3A 8697  12.918  11.816   9.704  0.3168 -0.2041  0.1087
  544loPI   C4A 8698  12.831  11.878   9.302 -0.0903  0.0022 -0.4946
  544loPI   C5A 8699  12.840  11.954   8.812 -0.2014  0.0120 -0.1765
  544loPI   C6A 8700  12.882  11.916   8.410 -0.1539  0.1665 -0.2289
  544loPI   C1B 8701  13.107  11.477  10.150  0.1138  0.1987 -0.3031
  544loPI   C2B 8702  13.170  11.406   9.740  0.2498  0.0893 -0.2471
  544loPI   C3B 8703  13.058  11.393   9.309  0.2383 -0.2832  0.1211
  544loPI   C4B 8704  13.093  11.512   8.929 -0.1367 -0.0424 -0.0802
  545loPI    C1 8705  11.601   7.009  11.186 -0.1684  0.0747  0.0064
  545loPI    C2 8706  11.382   7.027  11.520 -0.1265  0.1617  0.0294
  545loPI    C3 8707  11.388   6.691  11.303 -0.1267  0.0933  0.1346
  545loPI   PO4 8708  11.517   7.199  11.073 -0.2395  0.0479 -0.0039
  545loPI   GL1 8709  11.419   7.106  10.640 -0.1594  0.1617  0.0765
  545loPI   GL2 8710  11.552   7.349  10.629 -0.2658 -0.1541  0.3921
  545loPI   C1A 8711  11.134   7.272  10.311 -0.1534  0.0720  0.2632
  545loPI   C2A 8712  10.966   7.377   9.876  0.1066  0.0458 -0.0904
  545loPI   C3A 8713  10.975   7.442   9.433  0.0184  0.0095 -0.1251
  545loPI   C4A 8714  10.827   7.395   9.060 -0.1600  0.1331  0.0811
  545loPI   C5A 8715  10.776   7.521   8.657  0.1622 -0.1788  0.4057
  545loPI   C6A 8716  10.783   7.303   8.268  0.0141 -0.0055 -0.1181
  545loPI   C1B 8717  11.570   7.390  10.163 -0.1400  0.0418 -0.0209
  545loPI   C2B 8718  11.428   7.423   9.681 -0.0394  0.0454 -0.3973
  545loPI   C3B 8719  11.491   7.365   9.259 -0.0686  0.3495 -0.1667
  545loPI   C4B 8720  11.786   7.502   8.977 -0.5123 -0.0119  0.1153
  546loPI    C1 8721   4.935  12.854  11.550  0.1465  0.1966 -0.1336
  546loPI    C2 8722   5.075  13.209  11.670  0.1833  0.1017  0.1097
  546loPI    C3 8723   4.877  12.975  11.927  0.0550 -0.0031 -0.0825
  546loPI   PO4 8724   5.060  12.846  11.329  0.2547  0.0323  0.2421
  546loPI   GL1 8725   5.159  12.916  10.959  0.0283 -0.3495 -0.2065
  546loPI   GL2 8726   4.842  12.899  10.901 -0.1474  0.0430 -0.1036
  546loPI   C1A 8727   5.031  13.166  10.478  0.0962 -0.2477  0.0098
  546loPI   C2A 8728   5.020  13.223  10.046 -0.1494  0.0833 -0.1117
  546loPI   C3A 8729   4.982  13.361   9.757 -0.1400  0.1337 -0.0361
  546loPI   C4A 8730   4.944  13.266   9.298 -0.0286 -0.0047 -0.1152
  546loPI   C5A 8731   5.086  13.157   8.971 -0.0022  0.3149 -0.0479
  546loPI   C6A 8732   4.915  12.875   8.650 -0.2777 -0.2748 -0.1320
  546loPI   C1B 8733   4.771  12.732  10.474 -0.0365 -0.1465  0.1314
  546loPI   C2B 8734   4.721  12.754  10.014 -0.0765 -0.2796 -0.0494
  546loPI   C3B 8735   4.733  12.818   9.604 -0.1930 -0.1152  0.2012
  546loPI   C4B 8736   4.731  12.808   9.140 -0.1143 -0.2049 -0.0951
  547loPI    C1 8737   3.590  15.719  11.486 -0.1766  0.2702 -0.0612
  547loPI    C2 8738   3.874  15.938  11.663 -0.1299 -0.0206  0.2336
  547loPI    C3 8739   3.522  15.880  11.846 -0.3022  0.1579 -0.0335
  547loPI   PO4 8740   3.540  15.836  11.146 -0.1880 -0.1725 -0.0606
  547loPI   GL1 8741   3.650  15.982  10.684  0.0137 -0.1803  0.0067
  547loPI   GL2 8742   3.596  15.680  10.686  0.2651  0.1512  0.0263
  547loPI   C1A 8743   3.464  15.931  10.129 -0.1065  0.3069  0.1219
  547loPI   C2A 8744   3.347  15.852   9.764  0.1922  0.0656 -0.1465
  547loPI   C3A 8745   3.470  15.946   9.411  0.1656 -0.0358 -0.0457
  547loPI   C4A 8746   3.396  15.912   8.958  0.2054 -0.1281 -0.0787
  547loPI   C5A 8747   3.731  15.997   8.682 -0.0733  0.2413  0.2469
  547loPI   C6A 8748   4.113  16.016   8.649 -0.0224  0.4072  0.1540
  547loPI   C1B 8749   3.318  15.442  10.384  0.3810 -0.1220  0.1209
  547loPI   C2B 8750   3.113  15.310  10.050  0.0538 -0.0683 -0.1720
  547loPI   C3B 8751   3.192  15.418   9.558  0.0719  0.0031 -0.0054
  547loPI   C4B 8752   3.303  15.393   9.135  0.2303 -0.0311 -0.5245
  548loPI    C1 8753   3.919   4.239  11.468  0.0748  0.1478 -0.1962
  548loPI    C2 8754   3.901   4.009  11.794  0.4295  0.0353 -0.2520
  548loPI    C3 8755   3.753   4.380  11.803  0.1871 -0.0636 -0.0491
  548loPI   PO4 8756   3.860   4.162  11.272  0.1486  0.2721  0.3154
  548loPI   GL1 8757   3.649   4.096  10.944  0.1889 -0.1977 -0.2471
  548loPI   GL2 8758   4.017   4.190  10.805  0.2436 -0.4365  0.1711
  548loPI   C1A 8759   3.485   4.210  10.593  0.0056  0.2055  0.0679
  548loPI   C2A 8760   3.603   4.256  10.225 -0.0425  0.0371  0.1013
  548loPI   C3A 8761   3.547   4.256   9.808 -0.3136 -0.0215  0.1394
  548loPI   C4A 8762   3.448   4.194   9.351 -0.0236  0.0011 -0.1508
  548loPI   C5A 8763   3.444   4.213   8.891 -0.2735 -0.2325  0.0684
  548loPI   C6A 8764   3.357   4.281   8.432 -0.0874  0.0732 -0.0996
  548loPI   C1B 8765   4.050   4.273  10.372  0.1663 -0.1522 -0.3980
  548loPI   C2B 8766   4.022   4.244   9.956  0.0268 -0.1222 -0.0095
  548loPI   C3B 8767   3.982   4.150   9.510 -0.3651 -0.1910 -0.1064
  548loPI   C4B 8768   3.985   4.213   9.107 -0.0377 -0.2194 -0.0493
  549loPI    C1 8769   9.503   6.888  11.172  0.3316 -0.2163 -0.0625
  549loPI    C2 8770   9.511   7.220  11.395 -0.0962 -0.1376 -0.1551
  549loPI    C3 8771   9.840   6.995  11.359  0.0866  0.0569  0.2355
  549loPI   PO4 8772   9.516   6.924  10.866  0.2277  0.2011  0.0855
  549loPI   GL1 8773   9.488   6.829  10.496  0.1704 -0.2280 -0.1992
  549loPI   GL2 8774   9.814   6.864  10.460 -0.1815  0.0671 -0.2135
  549loPI   C1A 8775   9.458   7.246  10.355 -0.3083 -0.2829 -0.0190
  549loPI   C2A 8776   9.408   7.398   9.973 -0.0079 -0.0391  0.0544
  549loPI   C3A 8777   9.328   7.375   9.511  0.0606  0.2362  0.3956
  549loPI   C4A 8778   9.285   7.417   9.071 -0.0541  0.1863  0.0329
  549loPI   C5A 8779   9.344   7.364   8.696  0.1162  0.0695 -0.1843
  549loPI   C6A 8780   9.497   7.193   8.299  0.0516  0.0005  0.0856
  549loPI   C1B 8781   9.706   6.904   9.973  0.2056  0.1126 -0.2255
  549loPI   C2B 8782   9.556   6.946   9.582  0.0314  0.1651  0.3536
  549loPI   C3B 8783   9.522   6.978   9.211 -0.1356 -0.1325  0.2408
  549loPI   C4B 8784   9.684   6.991   8.827 -0.2913  0.3248  0.3874
  550loPI    C1 8785  16.179  17.346  11.427 -0.0073 -0.1497  0.1063
  550loPI    C2 8786  16.518  17.343  11.639  0.1334 -0.1420 -0.1153
  550loPI    C3 8787  16.243  17.058  11.696  0.1231 -0.0815  0.1488
  550loPI   PO4 8788  16.280  17.511  11.190  0.1105  0.0408 -0.1292
  550loPI   GL1 8789  16.295  17.565  10.749  0.0144  0.1974 -0.0372
  550loPI   GL2 8790  16.524  17.866  10.820 -0.1537  0.0093 -0.0761
  550loPI   C1A 8791  16.200  17.770  10.386  0.2313  0.1870 -0.2513
  550loPI   C2A 8792  16.242  17.740   9.988  0.1594  0.0583 -0.1827
  550loPI   C3A 8793  16.393  17.750   9.544  0.2999  0.1077  0.0014
  550loPI   C4A 8794  16.332  17.692   9.111 -0.0259  0.1938 -0.0198
  550loPI   C5A 8795  16.499  17.664   8.701 -0.1102 -0.0628 -0.0652
  550loPI   C6A 8796  16.580  17.640   8.323 -0.2806 -0.1803 -0.0235
  550loPI   C1B 8797  16.699  17.788  10.420 -0.1267  0.0656 -0.0053
  550loPI   C2B 8798  16.716  17.734  10.019 -0.0704  0.1053  0.0689
  550loPI   C3B 8799  16.879  17.699   9.657 -0.3082  0.0076 -0.1854
  550loPI   C4B 8800  16.867  17.748   9.114  0.1897 -0.0689  0.0478
  551loPI    C1 8801   8.994   5.861  11.182  0.1099 -0.3545  0.0911
  551loPI    C2 8802   9.135   6.102  11.468 -0.1068 -0.0347 -0.0659
  551loPI    C3 8803   9.340   5.775  11.363  0.0375 -0.0879  0.3633
  551loPI   PO4 8804   8.980   6.105  10.944  0.0388  0.1736 -0.2950
  551loPI   GL1 8805   8.744   6.285  10.523  0.2582 -0.0297  0.2326
  551loPI   GL2 8806   8.741   6.070  10.288  0.0649  0.0970  0.2064
  551loPI   C1A 8807   8.855   6.530  10.146  0.1319 -0.2271 -0.1928
  551loPI   C2A 8808   8.918   6.409   9.695 -0.2264  0.0628  0.1732
  551loPI   C3A 8809   8.829   6.460   9.281  0.1625  0.0970 -0.0002
  551loPI   C4A 8810   8.819   6.469   8.914 -0.1257 -0.2150 -0.1282
  551loPI   C5A 8811   8.914   6.668   8.485 -0.0566 -0.0126  0.0581
  551loPI   C6A 8812   9.042   7.114   8.384 -0.0712  0.1931  0.0417
  551loPI   C1B 8813   8.658   5.959   9.881 -0.0644 -0.2218 -0.0882
  551loPI   C2B 8814   8.612   6.024   9.456 -0.1134  0.2497 -0.0363
  551loPI   C3B 8815   8.569   6.040   8.988 -0.2799  0.2276  0.4179
  551loPI   C4B 8816   8.664   6.102   8.581 -0.1479  0.4925  0.0091
  552loPI    C1 8817  13.042   4.922  10.918  0.2857 -0.1717 -0.1487
  552loPI    C2 8818  13.201   5.286  10.871 -0.0855  0.0117 -0.0258
  552loPI    C3 8819  13.304   5.061  11.186  0.2073 -0.0270 -0.1461
  552loPI   PO4 8820  12.712   4.998  10.859  0.0407 -0.1405  0.0126
  552loPI   GL1 8821  12.625   5.145  10.469 -0.1646  0.2496  0.0003
  552loPI   GL2 8822  12.401   5.058  10.238  0.0419  0.0670 -0.2185
  552loPI   C1A 8823  13.092   5.150  10.349 -0.0673 -0.2583 -0.0557
  552loPI   C2A 8824  13.341   5.242   9.899 -0.1349  0.0663  0.0528
  552loPI   C3A 8825  13.297   5.531   9.478  0.2636 -0.0747  0.1546
  552loPI   C4A 8826  12.994   5.711   9.153 -0.0605  0.1443 -0.0389
  552loPI   C5A 8827  12.538   5.740   9.041 -0.0985  0.0007 -0.0784
  552loPI   C6A 8828  12.339   5.590   8.775 -0.0135 -0.1160 -0.0523
  552loPI   C1B 8829  12.326   5.238   9.866 -0.0272 -0.2054  0.1542
  552loPI   C2B 8830  12.574   5.575   9.530  0.2503 -0.1484  0.1345
  552loPI   C3B 8831  12.844   5.780   9.654  0.2433 -0.1818  0.3298
  552loPI   C4B 8832  12.586   5.941   9.948 -0.3809 -0.1247 -0.1075
  553loPI    C1 8833   1.103   5.541  11.793  0.2544 -0.2075 -0.1832
  553loPI    C2 8834   1.473   5.647  11.904  0.1630 -0.1232  0.0485
  553loPI    C3 8835   1.238   5.445  12.157 -0.0692  0.1189  0.0307
  553loPI   PO4 8836   1.120   5.398  11.544  0.3248 -0.2045 -0.2983
  553loPI   GL1 8837   1.056   5.590  11.085 -0.2046 -0.0546  0.0350
  553loPI   GL2 8838   1.282   5.344  11.095  0.0888  0.0152  0.3136
  553loPI   C1A 8839   0.969   5.872  10.774 -0.0611 -0.1328  0.2490
  553loPI   C2A 8840   0.845   6.015  10.371 -0.0220 -0.1865  0.1889
  553loPI   C3A 8841   0.902   6.081   9.883 -0.0851  0.1240 -0.0816
  553loPI   C4A 8842   0.872   6.002   9.407  0.3649 -0.0831 -0.0086
  553loPI   C5A 8843   0.819   5.816   8.986  0.3915  0.0766 -0.1080
  553loPI   C6A 8844   0.667   5.411   8.933  0.0476 -0.2575  0.5411
  553loPI   C1B 8845   1.216   5.463  10.650  0.0243  0.1908  0.0210
  553loPI   C2B 8846   1.028   5.592  10.190  0.0004  0.3847 -0.1761
  553loPI   C3B 8847   1.072   5.514   9.871 -0.0901  0.0379  0.3526
  553loPI   C4B 8848   1.046   5.537   9.474 -0.0881  0.1150 -0.0211
  554loPI    C1 8849   8.537  12.019  11.527 -0.0201  0.0288 -0.1061
  554loPI    C2 8850   8.874  12.230  11.566 -0.0477  0.0382  0.0888
  554loPI    C3 8851   8.684  12.094  11.891 -0.2338  0.0359 -0.0199
  554loPI   PO4 8852   8.414  12.147  11.415  0.0953  0.1288 -0.0921
  554loPI   GL1 8853   8.384  12.110  10.968 -0.1459  0.2157 -0.1094
  554loPI   GL2 8854   8.675  12.224  10.972  0.2454  0.1087  0.1748
  554loPI   C1A 8855   8.402  11.823  10.572  0.2488 -0.0456  0.1283
  554loPI   C2A 8856   8.376  11.886  10.110  0.2181  0.0297  0.1199
  554loPI   C3A 8857   8.329  11.798   9.638  0.1207 -0.0701  0.0232
  554loPI   C4A 8858   8.336  11.846   9.192 -0.0751 -0.0670 -0.0389
  554loPI   C5A 8859   8.377  11.751   8.777 -0.0218 -0.0460 -0.1541
  554loPI   C6A 8860   8.666  11.792   8.371  0.2276 -0.0798 -0.1767
  554loPI   C1B 8861   8.677  12.226  10.539 -0.2293 -0.1704 -0.1134
  554loPI   C2B 8862   8.616  12.307  10.089  0.2703  0.0824  0.0487
  554loPI   C3B 8863   8.470  12.276   9.791  0.1307  0.0192 -0.1746
  554loPI   C4B 8864   8.488  12.308   9.369 -0.1064 -0.1177 -0.1299
  555loPI    C1 8865   6.451  11.892  11.362  0.3200 -0.0835  0.0570
  555loPI    C2 8866   6.816  12.027  11.452  0.3060 -0.1493  0.2152
  555loPI    C3 8867   6.509  12.103  11.697  0.2228 -0.1358  0.1073
  555loPI   PO4 8868   6.417  12.000  11.082  0.1840 -0.1254  0.0258
  555loPI   GL1 8869   6.199  12.036  10.720 -0.1852 -0.1742  0.0920
  555loPI   GL2 8870   6.066  12.259  10.642 -0.1940 -0.1344  0.2105
  555loPI   C1A 8871   6.292  11.810  10.338  0.1300  0.1122  0.0262
  555loPI   C2A 8872   6.300  11.815   9.954  0.0708  0.0153  0.2382
  555loPI   C3A 8873   6.361  11.892   9.542 -0.2300 -0.1536 -0.2049
  555loPI   C4A 8874   6.306  11.886   9.143 -0.2935 -0.2407 -0.0443
  555loPI   C5A 8875   6.266  11.782   8.713 -0.2245  0.0285  0.3490
  555loPI   C6A 8876   6.362  11.613   8.336  0.0510 -0.1406  0.0983
  555loPI   C1B 8877   6.081  12.308  10.178  0.0142  0.2304  0.0105
  555loPI   C2B 8878   6.050  12.375   9.811  0.2967 -0.0451  0.0984
  555loPI   C3B 8879   5.999  12.401   9.388 -0.2551  0.0580  0.1600
  555loPI   C4B 8880   6.069  12.321   8.977  0.0354 -0.2872  0.0325
  556loPI    C1 8881   3.274   8.205  11.869 -0.0129 -0.0492  0.0740
  556loPI    C2 8882   3.329   8.601  11.890  0.1278 -0.0764  0.2471
  556loPI    C3 8883   3.087   8.418  12.151  0.3115 -0.1471  0.3695
  556loPI   PO4 8884   3.370   8.234  11.538 -0.2227  0.3447  0.0711
  556loPI   GL1 8885   3.451   8.164  11.211  0.1500  0.2473  0.0054
  556loPI   GL2 8886   3.505   8.427  10.981 -0.1024 -0.0527 -0.0048
  556loPI   C1A 8887   3.407   7.841  10.944 -0.0626  0.1980 -0.0562
  556loPI   C2A 8888   3.522   7.844  10.479 -0.1534  0.0471 -0.0910
  556loPI   C3A 8889   3.453   7.807  10.123 -0.1312 -0.2755  0.0064
  556loPI   C4A 8890   3.489   7.800   9.709 -0.0142  0.1327 -0.0522
  556loPI   C5A 8891   3.441   7.807   9.321  0.2878 -0.0410 -0.2474
  556loPI   C6A 8892   3.557   7.710   8.958  0.2090 -0.0578 -0.0476
  556loPI   C1B 8893   3.424   8.617  10.590  0.0556 -0.2365  0.3227
  556loPI   C2B 8894   3.403   8.708  10.088  0.1341  0.1839 -0.1390
  556loPI   C3B 8895   3.427   8.667   9.699 -0.1585  0.1352 -0.2371
  556loPI   C4B 8896   3.479   8.732   9.320  0.0319  0.0893  0.0150
  557loPI    C1 8897  11.849   0.136  10.980  0.0922  0.0263 -0.0268
  557loPI    C2 8898  11.588  -0.089  11.184  0.0523  0.0746 -0.0244
  557loPI    C3 8899  11.962  -0.042  11.320  0.0509  0.0371 -0.0074
  557loPI   PO4 8900  11.900   0.082  10.735  0.1426  0.1741  0.1318
  557loPI   GL1 8901  12.285  -0.085  10.445  0.3200  0.1409  0.1613
  557loPI   GL2 8902  12.006  -0.333  10.373 -0.3508 -0.3494  0.1264
  557loPI   C1A 8903  12.589  -0.097  10.103 -0.0561 -0.0782 -0.0232
  557loPI   C2A 8904  12.723  -0.270   9.778  0.0233 -0.2425 -0.0655
  557loPI   C3A 8905  12.704  -0.357   9.373 -0.1230  0.2686  0.2033
  557loPI   C4A 8906  12.658  -0.308   9.006  0.2544 -0.0158 -0.1199
  557loPI   C5A 8907  12.670  -0.182   8.678  0.2717 -0.0695  0.1552
  557loPI   C6A 8908  12.436  -0.268   8.414  0.1727 -0.1731 -0.2079
  557loPI   C1B 8909  12.091  -0.221   9.950  0.1688 -0.0126  0.1481
  557loPI   C2B 8910  12.137  -0.265   9.590 -0.2970  0.3146 -0.1179
  557loPI   C3B 8911  12.179  -0.344   9.208  0.0937  0.0482  0.0019
  557loPI   C4B 8912  12.030  -0.378   8.694 -0.0233  0.2744  0.0316
  558loPI    C1 8913  13.016   8.920  11.014 -0.1675 -0.0434 -0.1141
  558loPI    C2 8914  13.102   8.982  11.399 -0.3263 -0.0457 -0.0775
  558loPI    C3 8915  13.192   8.632  11.228 -0.1004  0.0161 -0.0888
  558loPI   PO4 8916  12.761   8.989  11.033 -0.1806 -0.0945  0.1203
  558loPI   GL1 8917  12.519   9.178  10.650  0.1429 -0.2143 -0.1333
  558loPI   GL2 8918  12.875   9.230  10.555 -0.1740  0.1232  0.1851
  558loPI   C1A 8919  12.499   9.197  10.191 -0.2534  0.0012 -0.0790
  558loPI   C2A 8920  12.416   9.199   9.828  0.0378 -0.4236 -0.1557
  558loPI   C3A 8921  12.422   9.186   9.304 -0.0395 -0.2345 -0.0630
  558loPI   C4A 8922  12.533   9.326   8.834  0.0683 -0.0848  0.3441
  558loPI   C5A 8923  12.777   9.626   8.575 -0.1703 -0.3461  0.0208
  558loPI   C6A 8924  13.166   9.700   8.325 -0.1575 -0.1650 -0.1348
  558loPI   C1B 8925  12.986   9.159  10.108 -0.3327 -0.0176  0.0232
  558loPI   C2B 8926  12.941   9.177   9.598 -0.0952  0.2673 -0.1552
  558loPI   C3B 8927  12.976   9.234   9.171  0.1849  0.0018  0.2018
  558loPI   C4B 8928  13.012   9.222   8.776 -0.1579 -0.2109 -0.3688
  559loPI    C1 8929   9.095  15.325  11.447  0.0162  0.0696 -0.0740
  559loPI    C2 8930   9.256  15.215  11.796  0.0597 -0.0490 -0.1305
  559loPI    C3 8931   8.881  15.355  11.783 -0.0623 -0.3636 -0.0790
  559loPI   PO4 8932   9.326  15.428  11.263  0.0201 -0.2573 -0.1472
  559loPI   GL1 8933   9.521  15.373  10.898 -0.0058  0.0650  0.0228
  559loPI   GL2 8934   9.675  14.980  10.857 -0.1939 -0.0170  0.1054
  559loPI   C1A 8935   9.440  15.430  10.507  0.2030  0.0102 -0.1517
  559loPI   C2A 8936   9.465  15.393  10.126  0.4367 -0.2903 -0.0704
  559loPI   C3A 8937   9.398  15.502   9.697  0.1877  0.0653 -0.0018
  559loPI   C4A 8938   9.429  15.594   9.288 -0.0105 -0.1057  0.0709
  559loPI   C5A 8939   9.438  15.597   8.821 -0.2446  0.2172 -0.0285
  559loPI   C6A 8940   9.480  15.317   8.536  0.2022  0.1221 -0.0020
  559loPI   C1B 8941   9.637  15.026  10.363 -0.0569 -0.2007 -0.2169
  559loPI   C2B 8942   9.696  15.028   9.906  0.3349 -0.0654  0.0562
  559loPI   C3B 8943   9.657  15.081   9.415 -0.1715 -0.0156 -0.3557
  559loPI   C4B 8944   9.571  15.089   9.021  0.1878 -0.0622 -0.1970
  560loPI    C1 8945   5.184   2.786  11.409 -0.0095  0.1672 -0.1234
  560loPI    C2 8946   5.493   3.024  11.498  0.0587 -0.0087  0.1214
  560loPI    C3 8947   5.250   2.896  11.788  0.0427 -0.2640 -0.0022
  560loPI   PO4 8948   5.135   2.938  11.154  0.2021  0.0063 -0.2252
  560loPI   GL1 8949   5.304   3.153  10.976  0.1052 -0.0703  0.0148
  560loPI   GL2 8950   5.346   2.868  10.738 -0.0981 -0.0542  0.0128
  560loPI   C1A 8951   5.100   3.310  10.559 -0.0794  0.1539 -0.1031
  560loPI   C2A 8952   5.048   3.286  10.122 -0.3266  0.3218 -0.1604
  560loPI   C3A 8953   5.003   3.425   9.629 -0.4305  0.1694  0.2379
  560loPI   C4A 8954   5.029   3.329   9.296  0.4309 -0.0546 -0.2613
  560loPI   C5A 8955   5.029   3.321   8.820 -0.1570  0.0252  0.0512
  560loPI   C6A 8956   5.125   3.402   8.356  0.0061  0.0595 -0.3111
  560loPI   C1B 8957   5.329   2.873  10.401 -0.0463 -0.1487  0.0951
  560loPI   C2B 8958   5.257   2.850   9.955  0.0495  0.0101  0.0940
  560loPI   C3B 8959   5.285   2.859   9.454 -0.2696 -0.1121  0.5677
  560loPI   C4B 8960   5.286   2.869   9.050  0.0647 -0.0700  0.0072
  561loPI    C1 8961   9.225  16.417  11.539  0.0965  0.1279 -0.0078
  561loPI    C2 8962   9.581  16.369  11.362  0.0646  0.0230 -0.0441
  561loPI    C3 8963   9.499  16.178  11.704  0.0219  0.0007 -0.0667
  561loPI   PO4 8964   9.085  16.527  11.271 -0.1836  0.0884  0.1070
  561loPI   GL1 8965   9.162  16.384  10.885 -0.1018  0.0574 -0.0262
  561loPI   GL2 8966   9.419  16.383  10.744  0.3707 -0.3988  0.3398
  561loPI   C1A 8967   8.940  16.268  10.557  0.0456 -0.0942  0.0036
  561loPI   C2A 8968   8.905  16.292  10.128  0.1338 -0.2585  0.0963
  561loPI   C3A 8969   8.962  16.350   9.656 -0.3576  0.0995 -0.3585
  561loPI   C4A 8970   8.963  16.373   9.326 -0.1195  0.1389  0.1763
  561loPI   C5A 8971   8.887  16.338   8.971 -0.2789  0.0795  0.0990
  561loPI   C6A 8972   8.913  16.531   8.542 -0.1396  0.0488  0.1146
  561loPI   C1B 8973   9.339  16.275  10.312 -0.1034 -0.1885  0.0885
  561loPI   C2B 8974   9.421  16.397   9.803  0.2963 -0.0817  0.0637
  561loPI   C3B 8975   9.442  16.358   9.370 -0.4341 -0.2645  0.4983
  561loPI   C4B 8976   9.467  16.492   8.957  0.2433 -0.0704 -0.2778
  562loPI    C1 8977   8.217  13.469  11.605  0.2766  0.1039 -0.1077
  562loPI    C2 8978   8.186  13.841  11.747 -0.0498  0.0336  0.0132
  562loPI    C3 8979   8.289  13.542  11.991  0.0793  0.0219 -0.0545
  562loPI   PO4 8980   7.981  13.484  11.386 -0.1856 -0.2676 -0.2274
  562loPI   GL1 8981   7.878  13.574  11.035  0.0690  0.1601 -0.1452
  562loPI   GL2 8982   7.757  13.284  10.913 -0.4567 -0.2700 -0.2704
  562loPI   C1A 8983   8.014  13.559  10.502  0.2541 -0.0703 -0.0082
  562loPI   C2A 8984   7.878  13.632  10.117 -0.1414 -0.1550  0.0300
  562loPI   C3A 8985   7.879  13.745   9.651  0.0692 -0.4685  0.0073
  562loPI   C4A 8986   7.790  13.633   9.195  0.3733  0.3633  0.0730
  562loPI   C5A 8987   7.701  13.531   8.739  0.0191 -0.0833 -0.2344
  562loPI   C6A 8988   7.674  13.043   8.566 -0.1496  0.0847 -0.1366
  562loPI   C1B 8989   7.675  13.161  10.516 -0.2778 -0.2020  0.3698
  562loPI   C2B 8990   7.647  13.181  10.096  0.0236  0.2976  0.1471
  562loPI   C3B 8991   7.578  13.253   9.654  0.0566 -0.3183 -0.4255
  562loPI   C4B 8992   7.583  13.149   9.084 -0.2490 -0.1355 -0.0731
  563loPI    C1 8993   8.635   8.732  11.611 -0.0876  0.4566 -0.0225
  563loPI    C2 8994   8.361   8.495  11.783  0.1112 -0.0057 -0.3212
  563loPI    C3 8995   8.532   8.790  11.993 -0.2753 -0.0053  0.0042
  563loPI   PO4 8996   8.542   8.668  11.305 -0.0776 -0.1024 -0.0541
  563loPI   GL1 8997   8.671   8.778  10.913  0.1427 -0.0343 -0.2793
  563loPI   GL2 8998   8.510   9.036  10.741 -0.0155 -0.2366 -0.0371
  563loPI   C1A 8999   8.627   8.690  10.451 -0.3260 -0.3529 -0.2381
  563loPI   C2A 9000   8.553   8.682  10.022 -0.0129  0.1203 -0.2090
  563loPI   C3A 9001   8.625   8.660   9.623 -0.3611 -0.1880  0.2620
  563loPI   C4A 9002   8.542   8.750   9.159 -0.1102  0.0392 -0.0736
  563loPI   C5A 9003   8.569   8.848   8.704  0.4064 -0.3212  0.2982
  563loPI   C6A 9004   8.409   9.132   8.512  0.2243  0.1300 -0.2866
  563loPI   C1B 9005   8.443   9.194  10.310  0.0405 -0.2144 -0.1469
  563loPI   C2B 9006   8.281   9.161   9.841  0.0556  0.1332  0.0434
  563loPI   C3B 9007   8.381   9.160   9.379  0.1946  0.6958 -0.1146
  563loPI   C4B 9008   8.298   9.164   9.017 -0.1454 -0.0374 -0.0839
  564loPI    C1 9009  15.791  10.080  11.304 -0.0074  0.0526  0.0443
  564loPI    C2 9010  15.587   9.990  11.636  0.1519 -0.0166  0.1241
  564loPI    C3 9011  15.961  10.132  11.662  0.1199  0.0970 -0.0217
  564loPI   PO4 9012  15.551  10.170  11.119 -0.3253 -0.0123  0.0484
  564loPI   GL1 9013  15.315   9.966  10.851 -0.1195  0.1056  0.0727
  564loPI   GL2 9014  15.019   9.876  10.858  0.0613  0.0949 -0.0654
  564loPI   C1A 9015  15.480  10.057  10.384 -0.0672 -0.2351  0.1082
  564loPI   C2A 9016  15.530  10.074   9.980  0.2339 -0.2639  0.0591
  564loPI   C3A 9017  15.552  10.017   9.544  0.1130  0.2031  0.0092
  564loPI   C4A 9018  15.444  10.054   9.111 -0.0404 -0.3584 -0.0003
  564loPI   C5A 9019  15.549  10.187   8.674 -0.0524 -0.1644 -0.1482
  564loPI   C6A 9020  15.714   9.934   8.391 -0.1549 -0.2938 -0.2958
  564loPI   C1B 9021  15.011  10.019  10.403 -0.3301  0.2475  0.0814
  564loPI   C2B 9022  14.979  10.041   9.930 -0.0420  0.0399  0.1127
  564loPI   C3B 9023  15.053  10.088   9.528  0.0274  0.1735 -0.3048
  564loPI   C4B 9024  14.996  10.189   9.055  0.0202  0.1969 -0.2934
  565loPI    C1 9025  12.922   4.346  10.957 -0.4176 -0.1455  0.0549
  565loPI    C2 9026  12.970   4.073  10.669  0.2517  0.1425 -0.1277
  565loPI    C3 9027  13.174   4.039  11.012 -0.3551 -0.0648  0.2290
  565loPI   PO4 9028  12.768   4.495  10.867 -0.0009  0.0548  0.2088
  565loPI   GL1 9029  12.695   4.623  10.442  0.1146  0.0256  0.0637
  565loPI   GL2 9030  12.453   4.533  10.277 -0.0888  0.2215  0.0396
  565loPI   C1A 9031  12.697   4.757   9.973 -0.4174 -0.1459  0.0492
  565loPI   C2A 9032  12.829   4.768   9.574 -0.1307  0.1686 -0.3012
  565loPI   C3A 9033  12.692   4.595   9.163  0.2395 -0.0387  0.3481
  565loPI   C4A 9034  12.809   4.623   8.788 -0.0866  0.0760 -0.0775
  565loPI   C5A 9035  12.695   4.611   8.414  0.0398  0.1250 -0.3191
  565loPI   C6A 9036  12.283   4.604   8.181  0.3803  0.3648 -0.0518
  565loPI   C1B 9037  12.576   4.282   9.793  0.0907  0.2197  0.1407
  565loPI   C2B 9038  12.374   4.167   9.494  0.0182  0.0978 -0.0507
  565loPI   C3B 9039  12.413   4.103   9.093 -0.1602 -0.0745  0.1536
  565loPI   C4B 9040  12.350   4.273   8.615 -0.1051 -0.0582  0.1527
  566loPI    C1 9041  16.580   1.724  11.248 -0.0170 -0.0184  0.0373
  566loPI    C2 9042  16.503   2.080  11.413  0.1989 -0.0388  0.1858
  566loPI    C3 9043  16.832   1.878  11.518  0.2278 -0.1506 -0.1120
  566loPI   PO4 9044  16.588   1.752  11.016 -0.0310 -0.3671 -0.2010
  566loPI   GL1 9045  16.749   1.946  10.574  0.0085 -0.1689  0.1111
  566loPI   GL2 9046  16.513   2.028  10.488 -0.0430 -0.0407 -0.0897
  566loPI   C1A 9047  16.974   1.990  10.263 -0.0429  0.2605  0.0562
  566loPI   C2A 9048  17.034   1.945   9.850  0.1423 -0.2324 -0.1467
  566loPI   C3A 9049  17.095   1.935   9.413 -0.0051 -0.0516  0.0148
  566loPI   C4A 9050  17.018   1.986   8.986 -0.5021  0.1790  0.1563
  566loPI   C5A 9051  16.713   2.161   8.596 -0.0996 -0.2406 -0.0293
  566loPI   C6A 9052  16.723   2.258   8.190  0.1138  0.0839 -0.0687
  566loPI   C1B 9053  16.536   1.937  10.050  0.3554 -0.2419 -0.1598
  566loPI   C2B 9054  16.590   1.931   9.652 -0.0779 -0.0030  0.3573
  566loPI   C3B 9055  16.489   1.980   9.304  0.1697 -0.1263 -0.0560
  566loPI   C4B 9056  16.458   1.912   8.940 -0.0225  0.0741 -0.1535
  567loPI    C1 9057   8.484   0.861  10.860 -0.0613 -0.1831 -0.0149
  567loPI    C2 9058   8.839   1.040  10.901 -0.1213 -0.0078 -0.2406
  567loPI    C3 9059   8.655   0.887  11.221  0.0740  0.0594 -0.0938
  567loPI   PO4 9060   8.393   0.982  10.655 -0.1236 -0.1880  0.2097
  567loPI   GL1 9061   8.074   0.987  10.412 -0.0101 -0.0586 -0.0013
  567loPI   GL2 9062   8.224   0.646  10.305  0.2178  0.4116  0.0259
  567loPI   C1A 9063   7.890   1.045  10.122  0.1254  0.0857  0.2627
  567loPI   C2A 9064   7.900   1.022   9.657  0.2935  0.1455 -0.1130
  567loPI   C3A 9065   7.907   1.108   9.260 -0.0214  0.3645  0.2835
  567loPI   C4A 9066   7.964   1.168   8.787  0.0783 -0.3061  0.1271
  567loPI   C5A 9067   8.153   1.561   8.584 -0.0241 -0.0300  0.1642
  567loPI   C6A 9068   8.218   1.999   8.492  0.1057  0.0285  0.1443
  567loPI   C1B 9069   8.124   0.670   9.903  0.1652 -0.1255  0.0848
  567loPI   C2B 9070   8.083   0.623   9.442 -0.2501  0.0748 -0.2208
  567loPI   C3B 9071   8.182   0.682   9.106 -0.0827 -0.1123  0.1292
  567loPI   C4B 9072   8.133   0.740   8.624 -0.0413 -0.1665 -0.1865
  568loPI    C1 9073  14.723  15.706  11.726 -0.1154  0.0722  0.0580
  568loPI    C2 9074  14.991  16.003  11.720 -0.0496  0.0117  0.0015
  568loPI    C3 9075  14.916  15.809  12.061  0.0081  0.0022  0.0090
  568loPI   PO4 9076  14.700  15.648  11.357  0.3908 -0.0039 -0.1430
  568loPI   GL1 9077  14.505  15.763  11.000 -0.1327 -0.1861  0.1247
  568loPI   GL2 9078  14.732  15.892  10.911  0.1271  0.0095  0.1099
  568loPI   C1A 9079  14.432  15.531  10.603 -0.0477 -0.0906 -0.0398
  568loPI   C2A 9080  14.496  15.509  10.180 -0.1186  0.0734  0.2322
  568loPI   C3A 9081  14.553  15.519   9.746 -0.0850  0.1201 -0.2666
  568loPI   C4A 9082  14.551  15.442   9.333  0.2980  0.1541  0.2744
  568loPI   C5A 9083  14.789  15.404   8.880  0.2317 -0.0693 -0.0729
  568loPI   C6A 9084  14.833  15.336   8.443  0.0657  0.0611 -0.1085
  568loPI   C1B 9085  14.719  15.954  10.518 -0.0137  0.0329 -0.2857
  568loPI   C2B 9086  14.781  16.049  10.076 -0.0607  0.2010  0.0229
  568loPI   C3B 9087  14.800  15.918   9.648 -0.2281 -0.1372  0.1371
  568loPI   C4B 9088  14.842  15.933   9.220 -0.1588 -0.0754  0.1788
  569loPI    C1 9089  14.627  12.743  11.769  0.0787  0.1889 -0.0917
  569loPI    C2 9090  14.308  12.860  11.980  0.2769  0.1461  0.2388
  569loPI    C3 9091  14.361  12.472  11.896  0.0746  0.1883 -0.1013
  569loPI   PO4 9092  14.661  12.914  11.537  0.0940 -0.2820  0.0771
  569loPI   GL1 9093  14.730  12.902  11.105  0.2708 -0.0570  0.1712
  569loPI   GL2 9094  14.503  12.846  10.933  0.0258  0.0749  0.0415
  569loPI   C1A 9095  14.874  12.801  10.679 -0.0395  0.1929 -0.0615
  569loPI   C2A 9096  14.921  12.787  10.234 -0.3433 -0.0069 -0.0521
  569loPI   C3A 9097  14.939  12.722   9.782  0.3038  0.1829  0.4483
  569loPI   C4A 9098  15.018  12.766   9.398  0.1976 -0.2371  0.0900
  569loPI   C5A 9099  15.032  12.708   9.038  0.1323 -0.1121 -0.5722
  569loPI   C6A 9100  15.155  12.912   8.626 -0.3043  0.2473 -0.0975
  569loPI   C1B 9101  14.373  12.765  10.521  0.0628 -0.3290  0.2298
  569loPI   C2B 9102  14.435  12.712   9.988 -0.1236  0.1144  0.0909
  569loPI   C3B 9103  14.452  12.775   9.521  0.0777 -0.1039  0.3242
  569loPI   C4B 9104  14.447  12.764   9.185 -0.0900 -0.0557  0.0607
  570loPI    C1 9105  11.335   0.298  10.908  0.0293  0.1643  0.0775
  570loPI    C2 9106  11.149   0.611  10.743 -0.0677  0.0307 -0.0691
  570loPI    C3 9107  11.019   0.461  11.090 -0.1624  0.0106 -0.1129
  570loPI   PO4 9108  11.392   0.139  10.787  0.2417  0.1711  0.0006
  570loPI   GL1 9109  11.552  -0.006  10.339  0.1338 -0.0062 -0.0007
  570loPI   GL2 9110  11.598   0.331  10.324 -0.1606  0.2538  0.2038
  570loPI   C1A 9111  11.562  -0.169   9.945 -0.0785  0.0098  0.0316
  570loPI   C2A 9112  11.632  -0.365   9.528  0.0891  0.4978  0.1471
  570loPI   C3A 9113  11.710  -0.181   9.125 -0.0943  0.1890  0.0569
  570loPI   C4A 9114  11.923   0.197   8.974  0.3317  0.2136 -0.2930
  570loPI   C5A 9115  11.925   0.562   8.652 -0.0967  0.0387 -0.0302
  570loPI   C6A 9116  11.832   0.817   8.332  0.0382 -0.0419 -0.0897
  570loPI   C1B 9117  11.247   0.693  10.256  0.0408  0.0037  0.2414
  570loPI   C2B 9118  10.973   0.890  10.056  0.0895  0.3026  0.0864
  570loPI   C3B 9119  10.869   0.994   9.580  0.0010 -0.0629 -0.0511
  570loPI   C4B 9120  10.705   1.153   9.136  0.0012 -0.0344  0.0546
  571loPI    C1 9121   1.637   6.136  11.978  0.1620 -0.0529 -0.1565
  571loPI    C2 9122   1.894   6.441  11.995  0.1575 -0.0644  0.1779
  571loPI    C3 9123   1.732   6.297  12.331  0.1562 -0.4329  0.0236
  571loPI   PO4 9124   1.625   6.117  11.650  0.0382  0.0347  0.2211
  571loPI   GL1 9125   1.807   6.117  11.206 -0.1744  0.1508 -0.0285
  571loPI   GL2 9126   1.661   5.933  11.049  0.2461  0.1425 -0.1729
  571loPI   C1A 9127   2.035   6.320  10.853  0.2417  0.0961  0.2736
  571loPI   C2A 9128   2.132   6.385  10.387  0.1455  0.0818 -0.1967
  571loPI   C3A 9129   2.252   6.388   9.998  0.1670 -0.0474  0.1255
  571loPI   C4A 9130   2.209   6.349   9.570  0.0440 -0.0849 -0.0034
  571loPI   C5A 9131   2.142   6.462   9.163  0.1361 -0.1702  0.0659
  571loPI   C6A 9132   1.917   6.673   8.826 -0.0580  0.0236  0.0785
  571loPI   C1B 9133   1.440   5.943  10.715 -0.0695  0.1229  0.1945
  571loPI   C2B 9134   1.436   5.971  10.245  0.0315  0.2888 -0.1622
  571loPI   C3B 9135   1.333   5.975   9.768  0.0063  0.2564  0.1596
  571loPI   C4B 9136   1.387   6.042   9.336  0.2399 -0.2847  0.2419
  572loPI    C1 9137  14.181   9.323  11.481  0.0164  0.0544 -0.2369
  572loPI    C2 9138  14.379   9.284  11.826 -0.1254  0.0305 -0.1575
  572loPI    C3 9139  14.182   9.623  11.745 -0.3334 -0.0715 -0.0865
  572loPI   PO4 9140  14.383   9.334  11.262  0.0779 -0.0491  0.3356
  572loPI   GL1 9141  14.268   9.499  10.871  0.1048 -0.0013  0.1478
  572loPI   GL2 9142  14.568   9.562  10.733 -0.1186 -0.0271 -0.0036
  572loPI   C1A 9143  14.199   9.563  10.387 -0.0812 -0.1646  0.1347
  572loPI   C2A 9144  14.257   9.564   9.937 -0.3772  0.1603  0.2401
  572loPI   C3A 9145  14.243   9.664   9.480 -0.0101  0.3007 -0.0826
  572loPI   C4A 9146  14.240   9.650   9.072  0.1493 -0.0522 -0.0921
  572loPI   C5A 9147  14.167   9.649   8.685 -0.1113  0.0289 -0.2714
  572loPI   C6A 9148  14.280   9.688   8.276 -0.2162 -0.1223 -0.0931
  572loPI   C1B 9149  14.703   9.640  10.227  0.3707 -0.0493 -0.1456
  572loPI   C2B 9150  14.723   9.672   9.760  0.0119 -0.0876  0.4037
  572loPI   C3B 9151  14.770   9.681   9.343 -0.0652  0.0972  0.1093
  572loPI   C4B 9152  14.743   9.742   9.012  0.1630  0.0176 -0.1258
  573loPI    C1 9153   4.793  12.286  11.225  0.1055  0.1549 -0.0785
  573loPI    C2 9154   5.097  12.342  11.479  0.0563  0.1025 -0.0080
  573loPI    C3 9155   4.720  12.389  11.604  0.0345  0.1494 -0.0907
  573loPI   PO4 9156   4.891  12.418  11.032 -0.0509 -0.0357 -0.0893
  573loPI   GL1 9157   5.219  12.431  10.764  0.1333  0.0823 -0.0804
  573loPI   GL2 9158   5.093  12.126  10.723 -0.0721  0.2125  0.0314
  573loPI   C1A 9159   5.244  12.650  10.363 -0.1331 -0.2449  0.3343
  573loPI   C2A 9160   5.266  12.874   9.881 -0.1156 -0.3752  0.1660
  573loPI   C3A 9161   5.236  12.796   9.412 -0.2113 -0.1677 -0.2180
  573loPI   C4A 9162   5.282  12.696   8.943 -0.2351 -0.1081  0.1784
  573loPI   C5A 9163   5.309  12.641   8.454 -0.2264  0.2249 -0.2509
  573loPI   C6A 9164   5.076  12.339   8.275 -0.0976  0.4036  0.5923
  573loPI   C1B 9165   5.061  12.214  10.253  0.0476  0.1533 -0.2922
  573loPI   C2B 9166   4.982  12.374   9.733 -0.0991  0.0473  0.0202
  573loPI   C3B 9167   5.010  12.345   9.268  0.0428  0.0442  0.0759
  573loPI   C4B 9168   5.085  12.307   8.804  0.0292  0.0283 -0.0319
  574loPI    C1 9169  12.107  10.093  11.464  0.0651 -0.0129  0.1764
  574loPI    C2 9170  12.190  10.291  11.802  0.4401  0.0824  0.0339
  574loPI    C3 9171  12.286   9.904  11.768 -0.0627 -0.0663  0.2189
  574loPI   PO4 9172  12.136  10.263  11.289  0.1368 -0.0854  0.0124
  574loPI   GL1 9173  12.279  10.343  10.904  0.0462 -0.0013 -0.1317
  574loPI   GL2 9174  12.027  10.471  10.663 -0.2331 -0.1204 -0.4566
  574loPI   C1A 9175  12.357  10.144  10.552  0.4345 -0.3376  0.0353
  574loPI   C2A 9176  12.407  10.080  10.087 -0.2956 -0.0694 -0.1838
  574loPI   C3A 9177  12.372  10.037   9.613 -0.3548  0.0837  0.0388
  574loPI   C4A 9178  12.444  10.146   9.161 -0.0589  0.0037  0.0570
  574loPI   C5A 9179  12.397  10.190   8.757  0.0326  0.2170 -0.2653
  574loPI   C6A 9180  12.530  10.601   8.565  0.0279  0.0450  0.2186
  574loPI   C1B 9181  12.089  10.455  10.228 -0.0642  0.5254  0.1669
  574loPI   C2B 9182  12.194  10.492   9.775 -0.0282 -0.1988  0.0629
  574loPI   C3B 9183  12.123  10.577   9.356 -0.0796  0.1725 -0.0153
  574loPI   C4B 9184  12.077  10.531   8.910 -0.2493 -0.0692  0.2673
  575loPI    C1 9185   8.036  16.743  11.385 -0.2246 -0.0011  0.0285
  575loPI    C2 9186   8.287  16.503  11.583 -0.0378  0.0446 -0.1497
  575loPI    C3 9187   7.901  16.405  11.551 -0.0637  0.0179  0.2018
  575loPI   PO4 9188   8.097  16.836  11.062 -0.1825 -0.0383 -0.1442
  575loPI   GL1 9189   8.351  16.668  10.703 -0.0507  0.0852 -0.1717
  575loPI   GL2 9190   8.507  16.441  10.720 -0.0600 -0.0824  0.0832
  575loPI   C1A 9191   8.193  16.828  10.317  0.0144  0.0081 -0.3059
  575loPI   C2A 9192   8.146  16.758   9.872  0.0755 -0.1991 -0.1665
  575loPI   C3A 9193   8.111  16.774   9.504  0.1378  0.1763  0.1117
  575loPI   C4A 9194   8.109  16.837   9.108 -0.0437 -0.0790 -0.0955
  575loPI   C5A 9195   8.097  16.842   8.788 -0.1744  0.0775  0.1471
  575loPI   C6A 9196   8.068  16.841   8.350  0.1542 -0.0841 -0.2113
  575loPI   C1B 9197   8.412  16.348  10.280 -0.2255  0.0871  0.2767
  575loPI   C2B 9198   8.472  16.337   9.780  0.1837  0.0508 -0.0347
  575loPI   C3B 9199   8.441  16.336   9.349  0.1522 -0.0023  0.2427
  575loPI   C4B 9200   8.361  16.391   8.900  0.0621  0.2703 -0.1274
  576loPI    C1 9201   4.475   7.687  11.815  0.1604 -0.0314  0.1589
  576loPI    C2 9202   4.645   8.027  11.937  0.2889 -0.0882  0.1395
  576loPI    C3 9203   4.411   7.820  12.187  0.2357 -0.0020  0.1614
  576loPI   PO4 9204   4.409   7.728  11.628  0.1690 -0.0603  0.0811
  576loPI   GL1 9205   4.198   7.824  11.162  0.0379  0.0276  0.2500
  576loPI   GL2 9206   4.521   7.772  11.140  0.0171  0.0524  0.2891
  576loPI   C1A 9207   3.924   7.746  10.791 -0.0105 -0.1229  0.0405
  576loPI   C2A 9208   4.035   7.697  10.355  0.1331  0.0434  0.0217
  576loPI   C3A 9209   3.990   7.803   9.967 -0.0164 -0.0916 -0.0195
  576loPI   C4A 9210   3.971   7.819   9.578 -0.0670  0.2546  0.0433
  576loPI   C5A 9211   3.992   7.743   9.129 -0.2368 -0.4117 -0.0170
  576loPI   C6A 9212   4.379   7.734   8.937  0.1182 -0.1027  0.0207
  576loPI   C1B 9213   4.426   7.690  10.758 -0.1026  0.0417  0.1143
  576loPI   C2B 9214   4.552   7.737  10.240  0.0570  0.1552  0.1615
  576loPI   C3B 9215   4.500   7.786   9.794  0.0525 -0.0242 -0.1062
  576loPI   C4B 9216   4.413   7.808   9.407  0.0889 -0.1017 -0.0163
  577loPI    C1 9217  10.300   0.534  10.711  0.3149 -0.0836  0.0351
  577loPI    C2 9218  10.228   0.761  11.033 -0.0606 -0.0599 -0.0609
  577loPI    C3 9219  10.605   0.682  10.924  0.0708  0.0843  0.2751
  577loPI   PO4 9220  10.234   0.636  10.484  0.1694 -0.0641 -0.1197
  577loPI   GL1 9221  10.163   0.741  10.084 -0.0714  0.0870 -0.0339
  577loPI   GL2 9222   9.966   1.012  10.160 -0.1607  0.1721  0.1292
  577loPI   C1A 9223  10.217   0.363   9.895  0.0167 -0.2384 -0.2090
  577loPI   C2A 9224  10.409   0.226   9.513 -0.1384 -0.0014 -0.0088
  577loPI   C3A 9225  10.725   0.474   9.251 -0.1040  0.2386  0.0385
  577loPI   C4A 9226  11.113   0.623   9.311  0.0574 -0.0817  0.0410
  577loPI   C5A 9227  11.233   0.581   9.644 -0.3466  0.0481  0.0533
  577loPI   C6A 9228  11.630   0.621   9.843 -0.1784  0.2732  0.4383
  577loPI   C1B 9229   9.873   1.015   9.724 -0.0685  0.0003  0.1266
  577loPI   C2B 9230   9.955   1.182   9.277  0.1956 -0.3177 -0.1120
  577loPI   C3B 9231   9.829   1.606   9.113 -0.0312  0.3997 -0.2148
  577loPI   C4B 9232   9.548   1.866   8.998  0.1057 -0.0022  0.0280
  578loPI    C1 9233  12.838   1.281  11.127 -0.0551 -0.2365 -0.3130
  578loPI    C2 9234  12.701   0.994  11.369 -0.0961 -0.0997 -0.1718
  578loPI    C3 9235  12.852   1.330  11.524  0.3957 -0.2414 -0.3226
  578loPI   PO4 9236  13.102   1.271  10.981  0.2178  0.1154  0.1963
  578loPI   GL1 9237  13.132   1.432  10.569  0.0402  0.0398 -0.3055
  578loPI   GL2 9238  13.332   1.186  10.442  0.2244 -0.2661 -0.1091
  578loPI   C1A 9239  13.105   1.553  10.101  0.1606 -0.3828  0.0260
  578loPI   C2A 9240  13.240   1.619   9.733  0.2066 -0.1441 -0.0542
  578loPI   C3A 9241  13.130   1.593   9.323 -0.0650 -0.2657  0.1136
  578loPI   C4A 9242  13.142   1.628   8.873  0.0426 -0.1916 -0.2376
  578loPI   C5A 9243  13.207   1.531   8.432 -0.0060  0.0724  0.2528
  578loPI   C6A 9244  13.196   1.141   8.241 -0.3779  0.1693 -0.2566
  578loPI   C1B 9245  13.456   1.160  10.081  0.1445 -0.0798 -0.2169
  578loPI   C2B 9246  13.409   1.137   9.593  0.0895 -0.2365 -0.3646
  578loPI   C3B 9247  13.444   1.092   9.152 -0.3239 -0.0308  0.3230
  578loPI   C4B 9248  13.391   1.130   8.758  0.0233 -0.0785 -0.1849
  579loPI    C1 9249   6.206  14.081  11.788  0.0432 -0.0950  0.0215
  579loPI    C2 9250   6.062  13.810  12.046  0.1012 -0.0897  0.0596
  579loPI    C3 9251   6.407  13.741  11.856  0.0015 -0.1450 -0.1031
  579loPI   PO4 9252   6.054  14.033  11.473  0.0145 -0.4486 -0.3203
  579loPI   GL1 9253   6.121  14.009  10.980  0.1707  0.0516 -0.0011
  579loPI   GL2 9254   6.019  14.328  10.893  0.2171  0.3735 -0.2714
  579loPI   C1A 9255   6.076  14.011  10.481  0.0306 -0.2134  0.0552
  579loPI   C2A 9256   6.008  14.129  10.034  0.2016  0.1727  0.0671
  579loPI   C3A 9257   6.046  14.194   9.568  0.0513  0.1642 -0.3646
  579loPI   C4A 9258   5.981  14.258   9.096  0.1899 -0.2202  0.0664
  579loPI   C5A 9259   5.871  14.632   8.931  0.0670 -0.1544  0.0276
  579loPI   C6A 9260   5.676  15.028   8.822 -0.0193  0.1259  0.2844
  579loPI   C1B 9261   5.749  14.462  10.605 -0.1166  0.2038 -0.1636
  579loPI   C2B 9262   5.770  14.524  10.177 -0.0530  0.2613 -0.0545
  579loPI   C3B 9263   5.859  14.604   9.774 -0.0767  0.0893 -0.3006
  579loPI   C4B 9264   5.914  14.656   9.396  0.0662  0.1787 -0.0126
  580loPI    C1 9265  17.975   5.559  11.743 -0.0266  0.0969 -0.0240
  580loPI    C2 9266  17.914   5.941  11.641 -0.1050  0.0745 -0.0620
  580loPI    C3 9267  17.609   5.718  11.774 -0.1390 -0.0789 -0.3866
  580loPI   PO4 9268  18.154   5.479  11.532 -0.1596  0.1159  0.1988
  580loPI   GL1 9269  18.382   5.422  11.169 -0.3277 -0.0500  0.1212
  580loPI   GL2 9270  18.672   5.375  11.233 -0.0774  0.0727  0.2180
  580loPI   C1A 9271  18.364   5.813  10.824  0.0415  0.2515  0.2193
  580loPI   C2A 9272  18.354   6.049  10.422 -0.0726  0.4100 -0.2612
  580loPI   C3A 9273  18.302   6.071  10.027  0.0191  0.2426  0.0048
  580loPI   C4A 9274  18.309   5.975   9.576 -0.2408 -0.3151 -0.1673
  580loPI   C5A 9275  18.310   5.931   9.140  0.2293 -0.0535 -0.2610
  580loPI   C6A 9276  18.154   5.930   8.648 -0.0851 -0.0670 -0.4119
  580loPI   C1B 9277  18.711   5.416  10.804 -0.1064 -0.2444 -0.1290
  580loPI   C2B 9278  18.553   5.601  10.398  0.0673 -0.0386 -0.3052
  580loPI   C3B 9279  18.564   5.566   9.996  0.1082  0.0015  0.1111
  580loPI   C4B 9280  18.522   5.541   9.462 -0.2805  0.2786 -0.0434
  581loPI    C1 9281  16.728   9.748  11.707 -0.1865  0.2363 -0.0325
  581loPI    C2 9282  16.364   9.796  11.868 -0.2470 -0.2685 -0.0041
  581loPI    C3 9283  16.631   9.555  12.044  0.0683  0.0164 -0.0820
  581loPI   PO4 9284  16.708   9.743  11.489  0.0824 -0.0529  0.2003
  581loPI   GL1 9285  16.670  10.083  11.121 -0.1285 -0.0166  0.1621
  581loPI   GL2 9286  16.748   9.790  11.030 -0.1248  0.0118 -0.1112
  581loPI   C1A 9287  16.536  10.075  10.636  0.2235  0.0411 -0.4598
  581loPI   C2A 9288  16.570  10.146  10.209 -0.0459  0.1134  0.3012
  581loPI   C3A 9289  16.532  10.154   9.755  0.1023  0.1229  0.0901
  581loPI   C4A 9290  16.514  10.134   9.278  0.2615  0.3464  0.0503
  581loPI   C5A 9291  16.567  10.262   8.867 -0.1459  0.0034 -0.0105
  581loPI   C6A 9292  16.896  10.507   8.697 -0.4175 -0.4797  0.3346
  581loPI   C1B 9293  16.750   9.627  10.693  0.0458  0.1336  0.3770
  581loPI   C2B 9294  16.851   9.638  10.295  0.1621  0.2685 -0.0558
  581loPI   C3B 9295  16.804   9.655   9.804  0.1431  0.2700 -0.4133
  581loPI   C4B 9296  16.832   9.680   9.381  0.2954 -0.1016 -0.1340
  582loPI    C1 9297   9.758  10.760  11.898 -0.0316  0.3394  0.0347
  582loPI    C2 9298   9.567  11.049  12.097 -0.2564  0.0325  0.2756
  582loPI    C3 9299   9.732  10.744  12.297 -0.1534 -0.0849  0.0159
  582loPI   PO4 9300   9.725  10.928  11.591 -0.0643 -0.1174 -0.0312
  582loPI   GL1 9301   9.830  10.857  11.226 -0.3208  0.0383  0.0721
  582loPI   GL2 9302   9.494  10.805  11.070  0.0042 -0.1504  0.0342
  582loPI   C1A 9303   9.913  11.001  10.837 -0.0989 -0.1358 -0.0043
  582loPI   C2A 9304   9.878  10.923  10.354 -0.1688  0.0540 -0.2326
  582loPI   C3A 9305   9.881  10.917   9.885  0.2417  0.1754  0.0265
  582loPI   C4A 9306   9.842  11.036   9.441  0.3904 -0.1778 -0.1847
  582loPI   C5A 9307   9.753  10.971   9.024 -0.4112 -0.1066  0.3519
  582loPI   C6A 9308   9.350  10.980   8.910 -0.0565  0.4624 -0.1752
  582loPI   C1B 9309   9.357  10.938  10.815 -0.1166  0.0639 -0.1683
  582loPI   C2B 9310   9.316  10.882  10.432  0.0776 -0.1798  0.0838
  582loPI   C3B 9311   9.345  10.962   9.987 -0.0393  0.1913 -0.1096
  582loPI   C4B 9312   9.340  10.985   9.484 -0.2044 -0.5327 -0.1213
  583loPI    C1 9313   8.290  17.792  11.194  0.0184  0.0511  0.2017
  583loPI    C2 9314   8.211  18.065  11.475 -0.2613  0.1192  0.0609
  583loPI    C3 9315   7.912  17.865  11.301 -0.0717 -0.1289  0.0139
  583loPI   PO4 9316   8.510  17.912  10.984 -0.1279  0.0961 -0.1942
  583loPI   GL1 9317   8.686  17.752  10.600  0.1726 -0.0984  0.2319
  583loPI   GL2 9318   9.053  17.938  10.696  0.1637  0.2560 -0.1969
  583loPI   C1A 9319   8.608  17.641  10.149 -0.0415 -0.0069  0.0114
  583loPI   C2A 9320   8.642  17.766   9.727 -0.0191 -0.0405 -0.0069
  583loPI   C3A 9321   8.587  17.708   9.298  0.2307  0.0177 -0.4238
  583loPI   C4A 9322   8.706  17.758   8.861 -0.2714  0.0148  0.1455
  583loPI   C5A 9323   9.099  17.837   8.585 -0.0811 -0.2616 -0.2479
  583loPI   C6A 9324   9.523  18.037   8.397 -0.0329  0.4863 -0.1116
  583loPI   C1B 9325   9.056  17.657  10.299 -0.2264  0.1813 -0.3614
  583loPI   C2B 9326   9.193  17.650   9.895 -0.3897  0.1091  0.1114
  583loPI   C3B 9327   9.163  17.786   9.485  0.0097  0.1008 -0.1457
  583loPI   C4B 9328   9.127  17.674   9.062 -0.4126 -0.0666  0.2189
  584loPI    C1 9329  16.434  10.228  11.605  0.0991  0.1578 -0.1239
  584loPI    C2 9330  16.601  10.525  11.814  0.0963  0.0919 -0.0273
  584loPI    C3 9331  16.823  10.215  11.694  0.0873  0.1060 -0.0805
  584loPI   PO4 9332  16.256  10.373  11.320  0.2367 -0.0639 -0.0542
  584loPI   GL1 9333  16.383  10.470  10.965  0.0251 -0.0076  0.2172
  584loPI   GL2 9334  16.651  10.556  10.913  0.0051  0.0825 -0.2295
  584loPI   C1A 9335  16.238  10.473  10.558 -0.1758  0.2986  0.2199
  584loPI   C2A 9336  16.239  10.541  10.142 -0.5108 -0.2469 -0.1659
  584loPI   C3A 9337  16.283  10.530   9.588 -0.0489 -0.0319 -0.2016
  584loPI   C4A 9338  16.350  10.565   9.220  0.0865 -0.0101 -0.0866
  584loPI   C5A 9339  16.339  10.700   8.700  0.2947 -0.0313 -0.1045
  584loPI   C6A 9340  16.248  10.862   8.238  0.1921  0.1242 -0.3001
  584loPI   C1B 9341  16.847  10.560  10.502  0.2515 -0.0980 -0.2636
  584loPI   C2B 9342  16.874  10.576  10.081  0.3227  0.0939  0.0670
  584loPI   C3B 9343  16.829  10.568   9.642  0.0833 -0.2228 -0.2498
  584loPI   C4B 9344  16.819  10.554   9.207  0.1098 -0.0751 -0.1134
  585loPI    C1 9345  10.554   5.591  10.821 -0.0327 -0.1601 -0.0282
  585loPI    C2 9346  10.280   5.810  11.014  0.1140  0.0269 -0.0294
  585loPI    C3 9347  10.364   5.439  11.139  0.0608  0.0712  0.1411
  585loPI   PO4 9348  10.394   5.709  10.533 -0.2130 -0.1481 -0.1730
  585loPI   GL1 9349  10.517   5.673  10.162  0.2571  0.3367 -0.0016
  585loPI   GL2 9350  10.323   5.941  10.128  0.0590 -0.1540 -0.1233
  585loPI   C1A 9351  10.310   5.332   9.836  0.1900  0.2363  0.0787
  585loPI   C2A 9352  10.217   5.128   9.451  0.1986 -0.0720  0.0663
  585loPI   C3A 9353  10.178   5.016   9.082 -0.0592  0.2107 -0.0543
  585loPI   C4A 9354  10.272   4.719   8.795 -0.0074  0.1990  0.1640
  585loPI   C5A 9355  10.474   4.670   8.379  0.1313 -0.0128  0.1163
  585loPI   C6A 9356  10.258   4.727   8.024  0.1153 -0.0232 -0.0212
  585loPI   C1B 9357  10.245   6.118   9.811  0.1398 -0.2827  0.0007
  585loPI   C2B 9358  10.426   6.296   9.504  0.3385 -0.1309 -0.0339
  585loPI   C3B 9359  10.330   6.433   9.055  0.0530 -0.4180  0.3173
  585loPI   C4B 9360  10.365   6.451   8.593  0.1199 -0.1530  0.0356
  586loPI    C1 9361  14.018   6.488  10.994  0.0272 -0.0106  0.0656
  586loPI    C2 9362  13.931   6.181  11.236  0.1007 -0.0722  0.0140
  586loPI    C3 9363  14.167   6.478  11.365 -0.0346  0.0030  0.0910
  586loPI   PO4 9364  14.176   6.469  10.758  0.1961 -0.0402  0.0137
  586loPI   GL1 9365  14.270   6.352  10.429 -0.0762 -0.1764 -0.1138
  586loPI   GL2 9366  14.349   6.466  10.275 -0.3010 -0.1426  0.0432
  586loPI   C1A 9367  14.208   6.105  10.015  0.0825 -0.1213 -0.0697
  586loPI   C2A 9368  14.241   5.989   9.572 -0.0885  0.0740  0.0544
  586loPI   C3A 9369  14.174   6.110   9.092  0.0763 -0.0730  0.1061
  586loPI   C4A 9370  13.952   6.041   8.771 -0.1660  0.2548 -0.1271
  586loPI   C5A 9371  13.575   6.075   8.679  0.0529  0.1571 -0.1237
  586loPI   C6A 9372  13.376   6.422   8.682  0.2967  0.1279  0.2834
  586loPI   C1B 9373  14.528   6.474   9.872 -0.1536  0.2517 -0.0358
  586loPI   C2B 9374  14.524   6.524   9.393 -0.1670 -0.2817 -0.0615
  586loPI   C3B 9375  14.517   6.561   8.877  0.3374  0.0007 -0.1390
  586loPI   C4B 9376  14.420   6.213   8.531 -0.0067  0.1916 -0.0078
  587loPI    C1 9377  16.053  16.356  11.585 -0.1637 -0.0049  0.2484
  587loPI    C2 9378  16.352  16.593  11.704 -0.1540  0.1157 -0.0101
  587loPI    C3 9379  15.980  16.659  11.836 -0.0867  0.0314  0.2269
  587loPI   PO4 9380  16.195  16.347  11.247  0.0371  0.2201  0.0665
  587loPI   GL1 9381  16.015  16.287  10.887  0.1015 -0.1383  0.1536
  587loPI   GL2 9382  15.855  16.603  10.898  0.1019  0.1152  0.0684
  587loPI   C1A 9383  15.960  16.318  10.415 -0.2029 -0.0354  0.0506
  587loPI   C2A 9384  16.010  16.307  10.054  0.0980  0.0223  0.1639
  587loPI   C3A 9385  16.046  16.416   9.602 -0.0086 -0.4216  0.0933
  587loPI   C4A 9386  16.041  16.421   9.084 -0.1308 -0.1385 -0.1860
  587loPI   C5A 9387  16.224  16.170   8.620 -0.0590  0.1627 -0.0411
  587loPI   C6A 9388  16.514  15.940   8.395  0.1895  0.0012 -0.0448
  587loPI   C1B 9389  15.751  16.797  10.458 -0.0332  0.1620 -0.0362
  587loPI   C2B 9390  15.723  16.852  10.013 -0.3086 -0.2566 -0.3123
  587loPI   C3B 9391  15.826  16.883   9.515 -0.0272  0.1466  0.0384
  587loPI   C4B 9392  15.786  16.855   8.991 -0.1684 -0.0146 -0.3029
  588loPI    C1 9393   5.644   8.382  11.470 -0.1836 -0.0505  0.2371
  588loPI    C2 9394   5.380   8.609  11.666  0.1104  0.1084  0.4569
  588loPI    C3 9395   5.762   8.598  11.785  0.2866  0.1666 -0.0761
  588loPI   PO4 9396   5.614   8.472  11.216  0.2291 -0.1492 -0.3031
  588loPI   GL1 9397   5.784   8.390  10.748 -0.0324  0.3285  0.1902
  588loPI   GL2 9398   5.783   8.060  10.928 -0.0898 -0.1378  0.1079
  588loPI   C1A 9399   5.888   8.215  10.370 -0.1458  0.3302 -0.1616
  588loPI   C2A 9400   5.793   8.237   9.893  0.1097 -0.0140 -0.1772
  588loPI   C3A 9401   5.714   8.278   9.438  0.2208 -0.1566  0.2963
  588loPI   C4A 9402   5.701   8.248   8.980 -0.1464 -0.2654 -0.0519
  588loPI   C5A 9403   5.415   8.234   8.509 -0.1469 -0.1452  0.2045
  588loPI   C6A 9404   5.244   8.425   8.162 -0.3261 -0.0800 -0.0802
  588loPI   C1B 9405   5.545   7.816  10.578  0.3723  0.0393 -0.0358
  588loPI   C2B 9406   5.633   7.845  10.231  0.2072 -0.0023  0.1379
  588loPI   C3B 9407   5.564   7.822   9.781 -0.4381 -0.1663 -0.1306
  588loPI   C4B 9408   5.497   7.753   9.351  0.2610 -0.1009  0.1532
  589loPI    C1 9409   1.843  13.492  11.448 -0.3605  0.1024  0.1252
  589loPI    C2 9410   1.923  13.759  11.735  0.0443  0.0264  0.0896
  589loPI    C3 9411   1.814  13.387  11.833 -0.1795  0.1038  0.1402
  589loPI   PO4 9412   1.760  13.550  11.283  0.0681 -0.0684  0.0586
  589loPI   GL1 9413   1.596  13.420  10.923  0.0136  0.0565  0.0850
  589loPI   GL2 9414   1.799  13.187  10.921  0.1190  0.0464 -0.1538
  589loPI   C1A 9415   1.388  13.197  10.559 -0.5984 -0.2148 -0.1956
  589loPI   C2A 9416   1.441  13.219  10.032 -0.4820 -0.0274 -0.3062
  589loPI   C3A 9417   1.343  13.219   9.592  0.2049 -0.2553 -0.2571
  589loPI   C4A 9418   1.378  13.170   9.024  0.0319  0.0729  0.1741
  589loPI   C5A 9419   1.541  13.078   8.611 -0.2515 -0.1538 -0.0089
  589loPI   C6A 9420   1.281  13.187   8.253 -0.1822 -0.0290 -0.2986
  589loPI   C1B 9421   1.863  13.215  10.451 -0.0409 -0.1245  0.0674
  589loPI   C2B 9422   1.953  13.196  10.045 -0.6847  0.0878 -0.1916
  589loPI   C3B 9423   1.852  13.238   9.592  0.3437  0.3079 -0.2876
  589loPI   C4B 9424   1.881  13.168   9.140  0.0466  0.1399 -0.4632
  590loPI    C1 9425  12.913   6.420  11.085 -0.0580 -0.1987  0.0544
  590loPI    C2 9426  12.627   6.403  11.365 -0.1965  0.0178 -0.0705
  590loPI    C3 9427  12.924   6.669  11.398  0.0272 -0.2460  0.0893
  590loPI   PO4 9428  12.804   6.504  10.910 -0.1502 -0.1176  0.0711
  590loPI   GL1 9429  12.709   6.567  10.534  0.0763  0.1073  0.0455
  590loPI   GL2 9430  12.527   6.355  10.368  0.0068 -0.1700  0.3568
  590loPI   C1A 9431  13.036   6.573  10.162  0.3726 -0.1261 -0.2192
  590loPI   C2A 9432  13.391   6.480   9.915  0.0991  0.1878 -0.4240
  590loPI   C3A 9433  13.544   6.497   9.469 -0.1100  0.1246  0.2281
  590loPI   C4A 9434  13.729   6.441   9.084  0.1934  0.0230  0.0769
  590loPI   C5A 9435  13.988   6.530   8.797  0.1563  0.2532  0.1304
  590loPI   C6A 9436  13.970   6.352   8.380  0.0866  0.2451 -0.3249
  590loPI   C1B 9437  12.491   6.471  10.020 -0.2804  0.0989 -0.3241
  590loPI   C2B 9438  12.203   6.454   9.675 -0.6661 -0.0767  0.0300
  590loPI   C3B 9439  12.217   6.370   9.261 -0.1779 -0.1372  0.2716
  590loPI   C4B 9440  12.141   5.974   9.099  0.2933 -0.0133  0.1375
  591loPI    C1 9441  11.255   4.819  10.909 -0.0953  0.0569  0.0366
  591loPI    C2 9442  11.199   5.085  11.203 -0.0357 -0.0805  0.1740
  591loPI    C3 9443  11.233   4.696  11.289  0.2341 -0.0961  0.0098
  591loPI   PO4 9444  11.397   4.890  10.796 -0.0571  0.2308 -0.0738
  591loPI   GL1 9445  11.307   4.946  10.412  0.2739  0.0010 -0.1493
  591loPI   GL2 9446  11.032   4.724  10.479  0.1707  0.3834  0.0964
  591loPI   C1A 9447  11.390   5.061   9.968  0.0149 -0.0420  0.1742
  591loPI   C2A 9448  11.412   5.438   9.662  0.0243  0.2842 -0.1444
  591loPI   C3A 9449  11.747   5.677   9.632  0.6605 -0.1407  0.1639
  591loPI   C4A 9450  12.010   5.545   9.300 -0.0314  0.1644  0.2080
  591loPI   C5A 9451  11.981   5.292   8.901  0.1768 -0.1582  0.0300
  591loPI   C6A 9452  11.729   5.072   8.607  0.1730  0.2984 -0.2913
  591loPI   C1B 9453  11.200   4.613  10.126  0.0631  0.4655 -0.0171
  591loPI   C2B 9454  11.236   4.605   9.654 -0.3429 -0.0308 -0.0306
  591loPI   C3B 9455  11.209   4.637   9.253  0.1368  0.0618 -0.0931
  591loPI   C4B 9456  11.176   4.900   8.895  0.0171  0.0215  0.1600
  592loPI    C1 9457  12.370  15.815  11.380 -0.0279 -0.2673 -0.1329
  592loPI    C2 9458  12.713  15.794  11.584 -0.0421  0.1351 -0.0591
  592loPI    C3 9459  12.372  15.880  11.775 -0.1469 -0.0295 -0.1696
  592loPI   PO4 9460  12.504  15.679  11.129  0.1095  0.0250  0.2212
  592loPI   GL1 9461  12.683  15.374  10.772 -0.4253  0.1878 -0.1838
  592loPI   GL2 9462  12.412  15.625  10.631  0.2763 -0.0247 -0.0145
  592loPI   C1A 9463  12.936  15.503  10.400  0.0183  0.1055 -0.0376
  592loPI   C2A 9464  12.963  15.531   9.913 -0.5661  0.0560  0.2930
  592loPI   C3A 9465  12.957  15.498   9.489 -0.1994  0.1165 -0.0937
  592loPI   C4A 9466  13.014  15.394   9.129 -0.3136  0.1743 -0.0012
  592loPI   C5A 9467  12.973  15.584   8.689  0.0267  0.0525  0.2094
  592loPI   C6A 9468  12.714  15.891   8.469  0.1090 -0.0163 -0.0634
  592loPI   C1B 9469  12.444  15.458  10.233  0.1115  0.1251 -0.0168
  592loPI   C2B 9470  12.446  15.521   9.853  0.3447 -0.0690 -0.1416
  592loPI   C3B 9471  12.406  15.478   9.496 -0.1305  0.0878  0.0960
  592loPI   C4B 9472  12.493  15.416   9.090  0.2397 -0.2937  0.0351
  593loPI    C1 9473   5.773  15.824  11.427  0.0358 -0.1712  0.0723
  593loPI    C2 9474   5.990  16.028  11.694 -0.1665  0.1245  0.0160
  593loPI    C3 9475   5.861  15.659  11.780  0.2298  0.0023  0.1072
  593loPI   PO4 9476   5.905  15.862  11.230  0.0067  0.0528 -0.1637
  593loPI   GL1 9477   5.877  15.999  10.857 -0.0221  0.0618 -0.2226
  593loPI   GL2 9478   6.106  16.131  10.885  0.1790 -0.2145 -0.0155
  593loPI   C1A 9479   5.685  15.834  10.438 -0.2372  0.1144 -0.1729
  593loPI   C2A 9480   5.657  15.895   9.973  0.0937 -0.0090  0.1376
  593loPI   C3A 9481   5.557  15.969   9.603  0.0677 -0.1360 -0.0900
  593loPI   C4A 9482   5.547  15.855   9.181 -0.1134  0.1621 -0.1287
  593loPI   C5A 9483   5.649  15.965   8.828  0.0191 -0.0944  0.0424
  593loPI   C6A 9484   5.539  15.978   8.377  0.0487  0.0321  0.1262
  593loPI   C1B 9485   5.971  16.279  10.450  0.3676 -0.1489  0.1272
  593loPI   C2B 9486   5.876  16.329   9.995  0.1889  0.1769 -0.2084
  593loPI   C3B 9487   5.877  16.480   9.621 -0.1768 -0.0753 -0.2634
  593loPI   C4B 9488   5.744  16.369   9.192  0.1129  0.1507 -0.1772
  594loPI    C1 9489   4.587   5.950  11.769 -0.1207  0.0922  0.2187
  594loPI    C2 9490   4.646   5.729  12.097 -0.0359 -0.2133  0.0028
  594loPI    C3 9491   4.308   5.688  11.887  0.0652 -0.2814 -0.1476
  594loPI   PO4 9492   4.755   5.913  11.553 -0.4997 -0.1700  0.1602
  594loPI   GL1 9493   4.653   5.913  11.126  0.0095 -0.0513 -0.3802
  594loPI   GL2 9494   4.863   5.822  10.987  0.0899  0.2001  0.3328
  594loPI   C1A 9495   4.560   6.070  10.711 -0.0804 -0.1112 -0.2602
  594loPI   C2A 9496   4.569   6.045  10.267 -0.0805 -0.1723  0.2232
  594loPI   C3A 9497   4.474   6.007   9.924  0.0011 -0.2464 -0.2269
  594loPI   C4A 9498   4.477   5.982   9.491 -0.3640  0.0594 -0.0741
  594loPI   C5A 9499   4.482   5.975   9.091  0.0411  0.1053 -0.0190
  594loPI   C6A 9500   4.432   6.208   8.801  0.0730  0.2836  0.1057
  594loPI   C1B 9501   5.045   5.962  10.607  0.0646 -0.2181  0.2095
  594loPI   C2B 9502   4.998   5.980  10.070  0.0720  0.2331 -0.0081
  594loPI   C3B 9503   5.087   6.087   9.567  0.0811  0.2105  0.0650
  594loPI   C4B 9504   4.991   5.996   9.187  0.0719  0.0663 -0.0744
  595loPI    C1 9505   8.137  17.279  11.289  0.3084  0.0149  0.1672
  595loPI    C2 9506   7.905  17.235  11.612 -0.0078  0.1764 -0.0325
  595loPI    C3 9507   8.182  17.523  11.602  0.1785  0.0088  0.1914
  595loPI   PO4 9508   7.913  17.398  11.047 -0.3069 -0.1721  0.1298
  595loPI   GL1 9509   8.001  17.660  10.629  0.1688 -0.1031 -0.0661
  595loPI   GL2 9510   8.192  17.758  10.484 -0.0885 -0.1333  0.2179
  595loPI   C1A 9511   7.641  17.722  10.354 -0.0627  0.2065 -0.1748
  595loPI   C2A 9512   7.589  17.762  10.001  0.0088 -0.2205  0.0985
  595loPI   C3A 9513   7.657  17.734   9.565  0.0862  0.2641 -0.0966
  595loPI   C4A 9514   7.627  17.772   9.134 -0.2484  0.0913  0.1471
  595loPI   C5A 9515   7.619  17.767   8.686 -0.2029  0.3504 -0.1981
  595loPI   C6A 9516   7.951  17.696   8.392  0.1503 -0.2274  0.2881
  595loPI   C1B 9517   8.122  17.765  10.041  0.0648 -0.3063 -0.1256
  595loPI   C2B 9518   8.164  17.718   9.600 -0.3128  0.1033  0.1748
  595loPI   C3B 9519   8.089  17.719   9.153 -0.3759  0.1931  0.1022
  595loPI   C4B 9520   8.128  17.735   8.818 -0.0716  0.2169 -0.0086
  596loPI    C1 9521  10.927  10.908  11.584  0.0082 -0.1073  0.0583
  596loPI    C2 9522  11.273  10.807  11.758 -0.0124 -0.1788  0.0578
  596loPI    C3 9523  11.025  11.062  11.940  0.0724 -0.0729  0.0261
  596loPI   PO4 9524  10.891  10.703  11.311  0.1963  0.4278 -0.2319
  596loPI   GL1 9525  10.756  10.735  10.880  0.1385  0.1410  0.1194
  596loPI   GL2 9526  10.619  10.485  10.663  0.2587  0.0712  0.0058
  596loPI   C1A 9527  10.795  10.888  10.436 -0.1769  0.0968  0.0755
  596loPI   C2A 9528  10.898  10.936  10.058 -0.0219  0.1123  0.3183
  596loPI   C3A 9529  10.859  11.001   9.608  0.1114 -0.1978 -0.0722
  596loPI   C4A 9530  10.805  11.030   9.149  0.2962  0.0684 -0.1540
  596loPI   C5A 9531  10.532  11.038   8.712 -0.0342  0.0734 -0.1935
  596loPI   C6A 9532  10.114  11.115   8.667 -0.1713 -0.3667  0.0789
  596loPI   C1B 9533  10.640  10.479  10.194 -0.3570  0.1408  0.4008
  596loPI   C2B 9534  10.629  10.407   9.733 -0.1568 -0.0308 -0.2917
  596loPI   C3B 9535  10.528  10.510   9.353  0.0969  0.1629  0.1594
  596loPI   C4B 9536  10.573  10.574   8.954  0.0138 -0.0129 -0.2040
  597loPI    C1 9537   2.367  14.798  11.553 -0.0704  0.3613 -0.0292
  597loPI    C2 9538   2.092  14.977  11.782 -0.0911  0.1170  0.1419
  597loPI    C3 9539   2.480  15.013  11.871 -0.1064 -0.0869  0.2965
  597loPI   PO4 9540   2.355  14.850  11.368 -0.1840  0.0316  0.0395
  597loPI   GL1 9541   2.391  14.814  10.902 -0.2851 -0.2162 -0.2466
  597loPI   GL2 9542   2.550  15.054  10.833 -0.1099  0.0524  0.2747
  597loPI   C1A 9543   2.312  14.493  10.606  0.0920 -0.1455 -0.3073
  597loPI   C2A 9544   2.210  14.505  10.236  0.0957 -0.0243  0.2851
  597loPI   C3A 9545   2.071  14.545   9.834 -0.1670 -0.1073  0.2144
  597loPI   C4A 9546   2.206  14.549   9.451  0.2859 -0.3305 -0.1121
  597loPI   C5A 9547   2.138  14.536   8.965 -0.0551  0.2029 -0.0342
  597loPI   C6A 9548   2.322  14.806   8.649  0.1780  0.1413  0.0799
  597loPI   C1B 9549   2.432  14.979  10.385  0.2704  0.3633  0.1560
  597loPI   C2B 9550   2.360  14.988   9.993  0.5594 -0.0282 -0.0616
  597loPI   C3B 9551   2.412  15.025   9.481 -0.1358  0.0243 -0.2896
  597loPI   C4B 9552   2.419  15.042   9.078 -0.2892 -0.4688  0.2206
  598loPI    C1 9553   4.378  16.095  11.476 -0.2262 -0.4126  0.1083
  598loPI    C2 9554   4.667  15.848  11.599 -0.0188 -0.1121  0.2360
  598loPI    C3 9555   4.595  16.187  11.799 -0.3270 -0.0861  0.0868
  598loPI   PO4 9556   4.430  16.159  11.254 -0.1850  0.0061  0.0264
  598loPI   GL1 9557   4.286  16.194  10.857 -0.0484 -0.0848 -0.0060
  598loPI   GL2 9558   3.992  16.333  10.730 -0.0280  0.0167 -0.0342
  598loPI   C1A 9559   4.388  16.283  10.429  0.1694 -0.0014  0.1869
  598loPI   C2A 9560   4.222  16.330  10.008 -0.2018 -0.2569 -0.0420
  598loPI   C3A 9561   4.266  16.341   9.654 -0.0062  0.2209  0.1676
  598loPI   C4A 9562   4.214  16.375   9.225 -0.2143  0.1780 -0.0946
  598loPI   C5A 9563   4.280  16.413   8.786  0.2389 -0.1055  0.1112
  598loPI   C6A 9564   3.994  16.492   8.527  0.0969  0.1307  0.1204
  598loPI   C1B 9565   3.748  16.338  10.337 -0.0596  0.1455  0.1506
  598loPI   C2B 9566   3.742  16.309   9.860 -0.3445 -0.0227  0.0774
  598loPI   C3B 9567   3.721  16.424   9.407  0.4313  0.0609 -0.0346
  598loPI   C4B 9568   3.776  16.378   9.002  0.1964 -0.1701  0.2595
  599loPI    C1 9569  15.992   0.843  11.460  0.0785  0.1304  0.1460
  599loPI    C2 9570  15.968   1.216  11.602 -0.0989  0.1227  0.1381
  599loPI    C3 9571  15.807   0.913  11.808 -0.1757  0.0842  0.0222
  599loPI   PO4 9572  15.971   0.858  11.190 -0.0220 -0.1815  0.3488
  599loPI   GL1 9573  16.182   0.784  10.837 -0.1830 -0.1195  0.0405
  599loPI   GL2 9574  16.102   1.117  10.733  0.0430 -0.0510  0.0711
  599loPI   C1A 9575  16.266   0.706  10.381 -0.2195 -0.2969 -0.0172
  599loPI   C2A 9576  16.312   0.670   9.932  0.0227 -0.1259  0.0841
  599loPI   C3A 9577  16.260   0.628   9.507  0.0183 -0.3780 -0.3172
  599loPI   C4A 9578  16.230   0.557   9.199  0.0085 -0.1836  0.4055
  599loPI   C5A 9579  16.208   0.623   8.763 -0.2214 -0.0912 -0.0185
  599loPI   C6A 9580  16.227   0.944   8.364 -0.1832  0.1030  0.1950
  599loPI   C1B 9581  15.960   1.169  10.272 -0.2652 -0.2418  0.0322
  599loPI   C2B 9582  16.095   1.150   9.929  0.1248 -0.0649  0.1179
  599loPI   C3B 9583  15.951   1.116   9.454 -0.0478  0.1270  0.2301
  599loPI   C4B 9584  16.100   1.046   9.062 -0.1744 -0.1474 -0.0021
  600loPI    C1 9585  11.418   9.843  11.344 -0.2414 -0.0275  0.1127
  600loPI    C2 9586  11.329   9.861  11.734 -0.0155  0.0483  0.1619
  600loPI    C3 9587  11.685   9.991  11.603 -0.1042  0.0572 -0.0749
  600loPI   PO4 9588  11.248   9.815  11.149  0.0961  0.0275  0.0006
  600loPI   GL1 9589  11.433   9.920  10.781 -0.1806  0.0216 -0.0790
  600loPI   GL2 9590  11.607   9.668  10.678 -0.0153  0.1872 -0.0835
  600loPI   C1A 9591  11.355  10.051  10.373 -0.0141  0.1442  0.1259
  600loPI   C2A 9592  11.460  10.025   9.942 -0.0973  0.0679  0.1617
  600loPI   C3A 9593  11.325  10.100   9.492  0.0053 -0.0494 -0.0641
  600loPI   C4A 9594  11.358  10.054   9.053  0.0649 -0.0331 -0.0273
  600loPI   C5A 9595  11.255  10.007   8.636 -0.1291  0.0509 -0.1138
  600loPI   C6A 9596  11.218   9.998   8.117  0.1342 -0.2452  0.1217
  600loPI   C1B 9597  11.656   9.604  10.273  0.1664 -0.0063 -0.0459
  600loPI   C2B 9598  11.671   9.578   9.768 -0.3896  0.1056  0.0117
  600loPI   C3B 9599  11.596   9.668   9.333 -0.1234  0.0491  0.3980
  600loPI   C4B 9600  11.581   9.654   8.831  0.2805  0.2645 -0.0531
  601loPI    C1 9601  13.589  17.448  11.211  0.0270 -0.1580 -0.2215
  601loPI    C2 9602  13.632  17.212  11.531  0.1871 -0.1470 -0.2342
  601loPI    C3 9603  13.271  17.352  11.433  0.1482 -0.0902 -0.0156
  601loPI   PO4 9604  13.665  17.357  10.931  0.1315 -0.0839 -0.2565
  601loPI   GL1 9605  13.472  17.232  10.611  0.3443  0.0306  0.4227
  601loPI   GL2 9606  13.187  17.030  10.687  0.0002  0.1561  0.2876
  601loPI   C1A 9607  13.457  17.360  10.262 -0.2108 -0.1567 -0.0162
  601loPI   C2A 9608  13.392  17.313   9.766  0.3314  0.2036  0.0020
  601loPI   C3A 9609  13.456  17.288   9.301 -0.1596 -0.2330 -0.1550
  601loPI   C4A 9610  13.494  17.258   8.848 -0.0924  0.0547 -0.1384
  601loPI   C5A 9611  13.494  16.882   8.606  0.0845  0.0296  0.1871
  601loPI   C6A 9612  13.339  16.486   8.471 -0.1766 -0.0777  0.2427
  601loPI   C1B 9613  13.238  16.863  10.311  0.0661 -0.2002  0.0317
  601loPI   C2B 9614  13.178  16.835   9.872  0.1943  0.3569 -0.0976
  601loPI   C3B 9615  13.217  16.781   9.459 -0.1759 -0.4977  0.1226
  601loPI   C4B 9616  13.275  16.677   9.050  0.1878 -0.0767  0.0014
  602loPI    C1 9617  10.414  16.400  10.848 -0.0576 -0.1480  0.1746
  602loPI    C2 9618  10.621  16.146  11.077 -0.1387 -0.0221  0.3905
  602loPI    C3 9619  10.422  16.450  11.245  0.0577  0.2589  0.1257
  602loPI   PO4 9620  10.518  16.490  10.637 -0.0187  0.2296 -0.0224
  602loPI   GL1 9621  10.509  16.270  10.392  0.0967 -0.0101  0.2041
  602loPI   GL2 9622  10.869  16.353  10.304  0.2089 -0.1235  0.0298
  602loPI   C1A 9623  10.323  16.396  10.034 -0.0405 -0.1868  0.0293
  602loPI   C2A 9624  10.390  16.400   9.574 -0.1543 -0.1426 -0.1280
  602loPI   C3A 9625  10.459  16.349   9.137  0.2451 -0.2824 -0.0392
  602loPI   C4A 9626  10.460  16.430   8.681  0.2106 -0.0040 -0.1984
  602loPI   C5A 9627  10.451  16.428   8.200  0.0565 -0.1019  0.0116
  602loPI   C6A 9628  10.363  16.630   7.863 -0.1799  0.1764 -0.0340
  602loPI   C1B 9629  10.886  16.350   9.845 -0.2482 -0.0524  0.2027
  602loPI   C2B 9630  10.866  16.374   9.425 -0.1141 -0.2100 -0.1224
  602loPI   C3B 9631  10.956  16.397   9.072  0.2494 -0.2610 -0.0074
  602loPI   C4B 9632  10.975  16.486   8.615  0.0141 -0.0057 -0.0924
  603loPI    C1 9633  17.897  14.824  11.791  0.0755 -0.0758  0.0823
  603loPI    C2 9634  17.556  14.758  11.989  0.1000 -0.1433  0.1020
  603loPI    C3 9635  17.907  14.725  12.178  0.1060  0.2468  0.1670
  603loPI   PO4 9636  17.848  14.752  11.537  0.1829 -0.1822  0.3048
  603loPI   GL1 9637  17.743  14.725  11.148 -0.1630  0.2643  0.0048
  603loPI   GL2 9638  18.025  14.656  10.993 -0.2114 -0.1823  0.1228
  603loPI   C1A 9639  17.559  14.556  10.703  0.3256 -0.3905  0.0941
  603loPI   C2A 9640  17.628  14.559  10.230  0.1021 -0.0040  0.4203
  603loPI   C3A 9641  17.544  14.489   9.827  0.0990  0.0305  0.1578
  603loPI   C4A 9642  17.609  14.530   9.363  0.1137  0.0394  0.1717
  603loPI   C5A 9643  17.578  14.617   8.838 -0.1947 -0.0756  0.3231
  603loPI   C6A 9644  17.689  14.702   8.390  0.0355  0.0604 -0.0462
  603loPI   C1B 9645  18.074  14.550  10.525 -0.3796  0.0317 -0.1117
  603loPI   C2B 9646  18.123  14.589  10.055  0.0366 -0.0199 -0.2168
  603loPI   C3B 9647  18.087  14.474   9.626  0.0517  0.1689 -0.0624
  603loPI   C4B 9648  18.066  14.615   9.201  0.0640  0.1316  0.2305
  604loPI    C1 9649  10.123  13.288  11.469  0.2200  0.1605  0.0127
  604loPI    C2 9650   9.894  13.439  11.760  0.2159 -0.2220  0.2135
  604loPI    C3 9651  10.290  13.498  11.766  0.1667  0.1549  0.0467
  604loPI   PO4 9652   9.979  13.144  11.347  0.1895 -0.0224  0.0574
  604loPI   GL1 9653   9.857  12.983  10.920 -0.1763  0.3595  0.0713
  604loPI   GL2 9654   9.824  13.231  10.851 -0.0507 -0.1257 -0.1662
  604loPI   C1A 9655   9.875  12.837  10.501  0.0950 -0.0822  0.0120
  604loPI   C2A 9656   9.839  12.668  10.136 -0.2092 -0.0188 -0.0209
  604loPI   C3A 9657   9.839  12.759   9.678 -0.0448  0.0128 -0.0655
  604loPI   C4A 9658   9.799  12.771   9.337 -0.1523 -0.2121 -0.1778
  604loPI   C5A 9659   9.829  12.836   8.934  0.3992  0.0430 -0.2064
  604loPI   C6A 9660   9.946  12.757   8.539 -0.0976 -0.1506  0.5161
  604loPI   C1B 9661   9.743  13.278  10.422  0.2659  0.2589  0.2286
  604loPI   C2B 9662   9.606  13.117   9.996 -0.2580 -0.0117  0.0114
  604loPI   C3B 9663   9.597  13.237   9.574 -0.0479  0.0058 -0.2980
  604loPI   C4B 9664   9.577  13.204   9.131  0.1259  0.3369 -0.1553
  605loPI    C1 9665  13.380  15.195  11.537 -0.1142  0.1165 -0.1138
  605loPI    C2 9666  13.061  15.411  11.642 -0.1767 -0.0504  0.0442
  605loPI    C3 9667  13.381  15.397  11.882 -0.1542 -0.0946  0.0115
  605loPI   PO4 9668  13.288  15.193  11.177  0.1285 -0.0344 -0.1137
  605loPI   GL1 9669  13.384  15.253  10.874 -0.2227 -0.0305 -0.0374
  605loPI   GL2 9670  13.165  15.136  10.652  0.1772 -0.1333 -0.1968
  605loPI   C1A 9671  13.643  15.131  10.542  0.2172  0.0947  0.1676
  605loPI   C2A 9672  13.791  15.052  10.181 -0.1846 -0.1619  0.0375
  605loPI   C3A 9673  13.817  15.021   9.696  0.2164 -0.2345  0.1229
  605loPI   C4A 9674  13.782  15.058   9.238 -0.0547 -0.0123 -0.1810
  605loPI   C5A 9675  13.850  14.837   8.921 -0.0612  0.2513  0.2363
  605loPI   C6A 9676  13.919  14.690   8.512 -0.0493  0.0548 -0.0608
  605loPI   C1B 9677  13.226  14.997  10.229 -0.1372  0.2659 -0.2218
  605loPI   C2B 9678  13.328  15.099   9.783 -0.2510  0.1984 -0.0171
  605loPI   C3B 9679  13.328  14.949   9.368  0.3248  0.2378  0.0977
  605loPI   C4B 9680  13.391  14.932   8.924 -0.0399 -0.1444  0.0359
  606loPI    C1 9681   8.708   4.071  10.908 -0.0318  0.1163  0.0772
  606loPI    C2 9682   9.086   4.020  10.788  0.0395  0.1892  0.2669
  606loPI    C3 9683   8.976   3.906  11.156 -0.1606  0.0280  0.1589
  606loPI   PO4 9684   8.565   4.046  10.751  0.1654  0.0171 -0.0110
  606loPI   GL1 9685   8.444   4.165  10.395 -0.3055 -0.1742 -0.1640
  606loPI   GL2 9686   8.491   3.821  10.226 -0.1008  0.0157 -0.0715
  606loPI   C1A 9687   8.141   4.172  10.160  0.0864  0.1273 -0.3367
  606loPI   C2A 9688   8.041   4.225   9.788  0.2588 -0.1289  0.0393
  606loPI   C3A 9689   8.110   4.211   9.312  0.0206  0.2257  0.2313
  606loPI   C4A 9690   8.006   4.298   8.925  0.3708  0.1963  0.0574
  606loPI   C5A 9691   7.856   4.351   8.504 -0.1775 -0.0229 -0.3253
  606loPI   C6A 9692   7.551   4.301   8.184  0.0584  0.0062  0.0468
  606loPI   C1B 9693   8.392   3.806   9.868 -0.0276 -0.2990 -0.1544
  606loPI   C2B 9694   8.329   3.748   9.446 -0.2422  0.1737  0.0227
  606loPI   C3B 9695   8.481   3.803   8.996 -0.1025  0.4393 -0.0712
  606loPI   C4B 9696   8.608   3.829   8.523  0.0684 -0.0759  0.1106
  607loPI    C1 9697   4.882   7.401  11.649  0.1130  0.1290 -0.0914
  607loPI    C2 9698   5.001   7.677  11.913  0.2321 -0.0482  0.0420
  607loPI    C3 9699   4.784   7.364  12.035  0.2600 -0.1139 -0.0753
  607loPI   PO4 9700   4.728   7.437  11.438  0.0006  0.0207 -0.1801
  607loPI   GL1 9701   4.678   7.130  11.210 -0.1375 -0.3022  0.0695
  607loPI   GL2 9702   4.715   6.905  11.087  0.2276  0.1103  0.0805
  607loPI   C1A 9703   4.765   7.291  10.787  0.2098  0.0596 -0.0106
  607loPI   C2A 9704   4.848   7.318  10.326  0.0036  0.1431 -0.0999
  607loPI   C3A 9705   4.772   7.367   9.870  0.1380 -0.0905  0.1717
  607loPI   C4A 9706   4.649   7.378   9.474  0.2317 -0.1956  0.0204
  607loPI   C5A 9707   4.680   7.273   9.080  0.1797  0.3832  0.2636
  607loPI   C6A 9708   4.456   7.399   8.651 -0.0860 -0.1997 -0.1353
  607loPI   C1B 9709   4.531   6.829  10.636 -0.1030 -0.4259 -0.1322
  607loPI   C2B 9710   4.554   6.910  10.211  0.3658  0.1409 -0.2633
  607loPI   C3B 9711   4.468   6.834   9.813  0.0053  0.1996 -0.1349
  607loPI   C4B 9712   4.416   6.918   9.418 -0.0042 -0.3025  0.1267
  608loPI    C1 9713   7.405   3.167  11.223 -0.0971  0.0563 -0.1345
  608loPI    C2 9714   7.012   3.167  11.150 -0.0903  0.1798 -0.1726
  608loPI    C3 9715   7.151   3.021  11.495 -0.1572 -0.0039 -0.2224
  608loPI   PO4 9716   7.493   3.202  10.962  0.1579  0.1055  0.0418
  608loPI   GL1 9717   7.460   3.068  10.546 -0.2556  0.1305  0.0470
  608loPI   GL2 9718   7.273   2.853  10.600  0.0624  0.2529  0.0838
  608loPI   C1A 9719   7.603   3.292  10.076 -0.3190  0.0263 -0.0331
  608loPI   C2A 9720   7.589   3.353   9.743 -0.1282 -0.1190  0.0942
  608loPI   C3A 9721   7.574   3.351   9.302 -0.0613 -0.3551  0.3652
  608loPI   C4A 9722   7.722   3.373   8.828 -0.0487 -0.0890 -0.0513
  608loPI   C5A 9723   7.799   3.517   8.406 -0.1749 -0.3466 -0.0379
  608loPI   C6A 9724   8.123   3.423   8.087 -0.2788  0.0656  0.0194
  608loPI   C1B 9725   7.277   2.776  10.106 -0.2671 -0.1633  0.0509
  608loPI   C2B 9726   7.185   2.918   9.653 -0.0066  0.1658  0.0604
  608loPI   C3B 9727   7.262   2.940   9.259  0.0196  0.0989 -0.0645
  608loPI   C4B 9728   7.377   2.875   8.885  0.1383 -0.3520  0.1879
  609loPI    C1 9729   5.353  15.446  11.404  0.0063  0.0844 -0.1761
  609loPI    C2 9730   5.192  15.805  11.477 -0.3374 -0.1149  0.0775
  609loPI    C3 9731   5.372  15.604  11.771  0.2635  0.0404 -0.1695
  609loPI   PO4 9732   5.197  15.430  11.118  0.2344  0.0117  0.0156
  609loPI   GL1 9733   5.199  15.436  10.687  0.1980  0.1393 -0.0029
  609loPI   GL2 9734   4.795  15.424  10.621  0.1045  0.1970 -0.0773
  609loPI   C1A 9735   5.369  15.436  10.261  0.1098 -0.1372 -0.1015
  609loPI   C2A 9736   5.341  15.559   9.764  0.2053  0.0731  0.2087
  609loPI   C3A 9737   5.327  15.446   9.361  0.0415  0.2634  0.1101
  609loPI   C4A 9738   5.370  15.450   8.973 -0.2182  0.0764  0.3382
  609loPI   C5A 9739   5.292  15.624   8.604  0.0088  0.1514  0.0238
  609loPI   C6A 9740   5.033  15.839   8.443  0.3135  0.0602  0.0441
  609loPI   C1B 9741   4.882  15.481  10.122  0.1232  0.0126 -0.0287
  609loPI   C2B 9742   4.845  15.512   9.738  0.3093  0.0170  0.1706
  609loPI   C3B 9743   4.831  15.500   9.232 -0.0500  0.1283  0.0889
  609loPI   C4B 9744   4.908  15.386   8.798  0.0293 -0.1857  0.2056
  610loPI    C1 9745   8.245  12.311  11.890  0.0481 -0.2988 -0.1386
  610loPI    C2 9746   8.423  12.372  12.243 -0.0005 -0.3086 -0.1122
  610loPI    C3 9747   8.024  12.380  12.216  0.0099 -0.0567 -0.2138
  610loPI   PO4 9748   8.389  12.512  11.751  0.1522  0.0325 -0.1418
  610loPI   GL1 9749   8.235  12.579  11.295  0.4947 -0.1306 -0.0964
  610loPI   GL2 9750   8.012  12.664  11.231  0.1161 -0.1230  0.2878
  610loPI   C1A 9751   8.344  12.608  10.842  0.0661  0.1179  0.3414
  610loPI   C2A 9752   8.394  12.705  10.402  0.1697  0.3751  0.0218
  610loPI   C3A 9753   8.327  12.744  10.057  0.2202 -0.5034 -0.1168
  610loPI   C4A 9754   8.289  12.731   9.653 -0.1319 -0.1786  0.0460
  610loPI   C5A 9755   8.325  12.822   9.278 -0.0075 -0.3495  0.2839
  610loPI   C6A 9756   8.422  12.696   8.841 -0.5108 -0.1134  0.0132
  610loPI   C1B 9757   7.808  12.618  10.768  0.0188 -0.0344 -0.1149
  610loPI   C2B 9758   7.851  12.698  10.387 -0.1496  0.2183 -0.1451
  610loPI   C3B 9759   7.816  12.739   9.970 -0.2473 -0.2356  0.0315
  610loPI   C4B 9760   7.815  12.771   9.466 -0.0534  0.1561  0.1009
  611loPI    C1 9761  13.786   1.881  11.286 -0.2532 -0.0412  0.0778
  611loPI    C2 9762  13.954   2.226  11.401 -0.0280 -0.0460 -0.2239
  611loPI    C3 9763  13.908   1.928  11.664  0.2812  0.0182 -0.0937
  611loPI   PO4 9764  13.881   1.809  11.063  0.0204 -0.0797  0.3268
  611loPI   GL1 9765  14.283   1.642  10.805  0.1951 -0.0352 -0.1150
  611loPI   GL2 9766  14.066   1.520  10.695 -0.0365  0.2218  0.1099
  611loPI   C1A 9767  14.581   1.520  10.353 -0.0244 -0.0423  0.1768
  611loPI   C2A 9768  14.703   1.554   9.809  0.1548 -0.1606  0.1104
  611loPI   C3A 9769  14.678   1.527   9.491 -0.2143  0.0584  0.1189
  611loPI   C4A 9770  14.625   1.468   9.074 -0.0769  0.0596  0.4035
  611loPI   C5A 9771  14.669   1.498   8.541 -0.2242 -0.0007 -0.1500
  611loPI   C6A 9772  14.783   1.645   8.080  0.4342 -0.2555  0.1380
  611loPI   C1B 9773  14.072   1.604  10.305  0.3060 -0.1333 -0.0969
  611loPI   C2B 9774  14.230   1.559   9.923  0.0498  0.0542  0.0933
  611loPI   C3B 9775  14.202   1.526   9.458 -0.1598  0.0920 -0.0138
  611loPI   C4B 9776  14.131   1.510   9.094  0.1068 -0.0178 -0.1131
  612loPI    C1 9777  13.612   7.894  11.450 -0.1529  0.0567 -0.1145
  612loPI    C2 9778  13.695   7.511  11.369 -0.0500  0.0311  0.1031
  612loPI    C3 9779  13.377   7.603  11.593 -0.1435  0.0812 -0.0489
  612loPI   PO4 9780  13.667   8.011  11.174  0.2136  0.2896  0.0877
  612loPI   GL1 9781  13.801   8.146  10.738  0.0392 -0.1866  0.3422
  612loPI   GL2 9782  13.761   7.839  10.563 -0.2238  0.2412 -0.0763
  612loPI   C1A 9783  14.005   8.217  10.315 -0.0278  0.2343 -0.0827
  612loPI   C2A 9784  13.994   8.272   9.886  0.1796 -0.1372 -0.0163
  612loPI   C3A 9785  13.986   8.274   9.438 -0.1490 -0.1969  0.0085
  612loPI   C4A 9786  13.949   8.391   9.043  0.1330  0.1536 -0.0930
  612loPI   C5A 9787  14.137   8.746   8.754  0.2206 -0.0353  0.4289
  612loPI   C6A 9788  14.092   9.064   8.450 -0.1395  0.1416  0.1711
  612loPI   C1B 9789  13.610   7.722  10.123  0.1931  0.2133 -0.0799
  612loPI   C2B 9790  13.692   7.822   9.754 -0.1979  0.0257 -0.0948
  612loPI   C3B 9791  13.691   7.893   9.351 -0.1552  0.1694 -0.0269
  612loPI   C4B 9792  13.555   7.844   8.946 -0.0916 -0.2722 -0.4698
  613loPI    C1 9793  14.890  11.458  11.198 -0.2392  0.0278  0.1552
  613loPI    C2 9794  15.075  11.594  11.525 -0.0552  0.2158 -0.0240
  613loPI    C3 9795  14.797  11.309  11.557  0.1340  0.0588  0.2697
  613loPI   PO4 9796  14.912  11.668  11.029  0.1882 -0.2420 -0.0824
  613loPI   GL1 9797  15.138  11.898  10.714 -0.2463 -0.2121 -0.0371
  613loPI   GL2 9798  15.447  11.922  10.573 -0.1209 -0.0364 -0.1208
  613loPI   C1A 9799  14.924  11.825  10.315 -0.0035 -0.0658  0.0433
  613loPI   C2A 9800  15.013  11.840   9.851  0.1001 -0.1403  0.0154
  613loPI   C3A 9801  14.990  11.873   9.520  0.1146  0.1382  0.0684
  613loPI   C4A 9802  14.963  11.955   9.078  0.1667 -0.1672 -0.0710
  613loPI   C5A 9803  15.106  12.235   8.755  0.0511  0.0197 -0.2622
  613loPI   C6A 9804  15.190  12.377   8.300 -0.3332  0.3849 -0.0506
  613loPI   C1B 9805  15.410  11.918  10.187  0.1451  0.0888 -0.3320
  613loPI   C2B 9806  15.497  11.854   9.833 -0.3286 -0.0510 -0.0912
  613loPI   C3B 9807  15.521  11.903   9.426  0.0632 -0.0343  0.0658
  613loPI   C4B 9808  15.495  11.848   9.009 -0.0204  0.0739 -0.1340
  614loPI    C1 9809   0.038   0.253  11.577 -0.0843  0.0037 -0.2167
  614loPI    C2 9810   0.304   0.129  11.848 -0.1306 -0.1717 -0.2503
  614loPI    C3 9811   0.326   0.501  11.702 -0.1084 -0.0740 -0.0035
  614loPI   PO4 9812   0.037  -0.029  11.367 -0.1647 -0.0790  0.2262
  614loPI   GL1 9813   0.060   0.020  10.984  0.5003 -0.1692  0.1461
  614loPI   GL2 9814   0.120  -0.227  10.841  0.0951  0.0075 -0.0150
  614loPI   C1A 9815   0.016   0.129  10.471  0.1424  0.2363  0.0918
  614loPI   C2A 9816   0.173   0.191  10.042 -0.1355 -0.3043  0.2460
  614loPI   C3A 9817   0.165   0.111   9.625 -0.1589 -0.2526 -0.0563
  614loPI   C4A 9818   0.154   0.137   9.179 -0.0068  0.1797 -0.1190
  614loPI   C5A 9819   0.157   0.236   8.803  0.0972  0.0164  0.1366
  614loPI   C6A 9820   0.006   0.229   8.390 -0.1184 -0.3099 -0.0488
  614loPI   C1B 9821   0.312  -0.290  10.476  0.2476  0.1817  0.1768
  614loPI   C2B 9822   0.310  -0.299   9.901 -0.2887  0.0882 -0.1066
  614loPI   C3B 9823   0.434  -0.322   9.417  0.2361 -0.1992  0.0172
  614loPI   C4B 9824   0.382  -0.270   9.013  0.1208 -0.2011  0.2459
  615loPI    C1 9825   7.215  17.544  11.337 -0.0783  0.0689  0.1052
  615loPI    C2 9826   7.566  17.603  11.521  0.0243 -0.1589 -0.0132
  615loPI    C3 9827   7.235  17.536  11.736  0.0700 -0.0351  0.0964
  615loPI   PO4 9828   7.218  17.717  11.187  0.0615  0.0405  0.2276
  615loPI   GL1 9829   7.184  17.772  10.710  0.1059 -0.0900 -0.3338
  615loPI   GL2 9830   6.948  17.417  10.647 -0.0057 -0.0914  0.0499
  615loPI   C1A 9831   7.151  17.711  10.232 -0.0972 -0.4324  0.0184
  615loPI   C2A 9832   7.158  17.749   9.781  0.1536 -0.0331  0.1022
  615loPI   C3A 9833   7.099  17.731   9.375  0.1402  0.0069  0.1509
  615loPI   C4A 9834   7.124  17.719   8.969 -0.2876  0.1119  0.1858
  615loPI   C5A 9835   7.107  17.838   8.525  0.1251 -0.2013  0.2431
  615loPI   C6A 9836   6.766  17.938   8.169 -0.3764  0.0075  0.0373
  615loPI   C1B 9837   6.891  17.266  10.240 -0.1652 -0.2232 -0.2561
  615loPI   C2B 9838   6.927  17.200   9.858  0.1590 -0.2075 -0.0300
  615loPI   C3B 9839   6.815  17.294   9.527  0.0741 -0.1086  0.1523
  615loPI   C4B 9840   6.732  17.366   9.081 -0.1469  0.2107 -0.3475
  616loPI    C1 9841  15.911   8.292  11.507  0.0631 -0.1083 -0.1022
  616loPI    C2 9842  15.695   8.464  11.796 -0.0198 -0.0111 -0.2211
  616loPI    C3 9843  16.068   8.340  11.872  0.0206  0.1691 -0.1183
  616loPI   PO4 9844  15.864   8.482  11.250 -0.1260 -0.0678 -0.1748
  616loPI   GL1 9845  15.771   8.454  10.823  0.1318 -0.1070 -0.0301
  616loPI   GL2 9846  15.950   8.309  10.561  0.1611  0.1295 -0.2103
  616loPI   C1A 9847  15.771   8.721  10.413  0.0696 -0.1968  0.0192
  616loPI   C2A 9848  15.812   8.793   9.999  0.2107  0.1060 -0.1588
  616loPI   C3A 9849  15.700   8.730   9.578  0.1063  0.0905  0.0265
  616loPI   C4A 9850  15.701   8.749   9.190  0.1286  0.2276 -0.1772
  616loPI   C5A 9851  15.589   8.839   8.800  0.0635  0.1734  0.0510
  616loPI   C6A 9852  15.195   9.022   8.587  0.1633 -0.0636 -0.2367
  616loPI   C1B 9853  15.988   8.258  10.102 -0.0394 -0.3242 -0.2782
  616loPI   C2B 9854  16.003   8.315   9.628 -0.0320 -0.0093 -0.4554
  616loPI   C3B 9855  15.988   8.353   9.228 -0.2901 -0.0081  0.0396
  616loPI   C4B 9856  15.898   8.267   8.768 -0.0670 -0.2752  0.2692
  617loPI    C1 9857   9.464   9.555  11.205 -0.1848 -0.2247  0.0696
  617loPI    C2 9858   9.608   9.265  11.440 -0.2517 -0.2522  0.0769
  617loPI    C3 9859   9.480   9.608  11.601  0.0785 -0.1109  0.0452
  617loPI   PO4 9860   9.333   9.406  11.047  0.1982  0.0107  0.0549
  617loPI   GL1 9861   9.042   9.459  10.751  0.1287  0.0868  0.2838
  617loPI   GL2 9862   9.018   9.120  10.550 -0.2622 -0.1964  0.4014
  617loPI   C1A 9863   9.127   9.550  10.281 -0.0905 -0.0752  0.0194
  617loPI   C2A 9864   9.182   9.601   9.922  0.1407  0.0738 -0.1112
  617loPI   C3A 9865   9.105   9.598   9.420 -0.3169  0.2416 -0.4145
  617loPI   C4A 9866   9.106   9.694   9.026 -0.0131  0.0850  0.0264
  617loPI   C5A 9867   9.135   9.721   8.553 -0.1354 -0.0177  0.0340
  617loPI   C6A 9868   8.756   9.469   8.295 -0.2660 -0.1891 -0.1383
  617loPI   C1B 9869   8.899   9.112  10.134 -0.0831  0.0486  0.1763
  617loPI   C2B 9870   8.833   9.098   9.696  0.2186  0.1967  0.1295
  617loPI   C3B 9871   8.857   9.207   9.121 -0.1548 -0.2558  0.0912
  617loPI   C4B 9872   8.827   9.340   8.762 -0.0140  0.1522  0.3320
  618loPI    C1 9873   0.629  14.887  11.433  0.1734 -0.0326 -0.0175
  618loPI    C2 9874   0.402  14.904  11.762  0.1086  0.1951 -0.0721
  618loPI    C3 9875   0.788  14.806  11.791  0.0157 -0.1554  0.0256
  618loPI   PO4 9876   0.397  15.013  11.246  0.0575  0.1206  0.0049
  618loPI   GL1 9877   0.329  14.966  10.728  0.1487 -0.1344 -0.0770
  618loPI   GL2 9878   0.409  15.284  10.758 -0.0174 -0.2093 -0.0452
  618loPI   C1A 9879   0.296  14.987  10.344  0.1042  0.0165  0.1078
  618loPI   C2A 9880   0.413  14.988   9.906  0.0198 -0.1349 -0.0817
  618loPI   C3A 9881   0.306  14.955   9.473  0.2927  0.0422 -0.0045
  618loPI   C4A 9882   0.431  14.966   9.015  0.1052  0.0353 -0.2309
  618loPI   C5A 9883   0.770  15.200   8.741 -0.1680 -0.2988  0.0480
  618loPI   C6A 9884   1.165  15.311   8.552 -0.0083  0.1162 -0.0254
  618loPI   C1B 9885   0.601  15.372  10.379  0.2039 -0.1741  0.0866
  618loPI   C2B 9886   0.644  15.485   9.982 -0.1065  0.2158  0.0163
  618loPI   C3B 9887   0.560  15.536   9.545 -0.2898  0.1267 -0.2003
  618loPI   C4B 9888   0.589  15.407   9.150 -0.0984  0.0099 -0.0664
  619loPI    C1 9889  10.499   1.154  10.925  0.0055 -0.3506 -0.1115
  619loPI    C2 9890  10.181   1.351  11.067  0.1398 -0.1770 -0.0481
  619loPI    C3 9891  10.404   1.127  11.313  0.2504 -0.0445 -0.0264
  619loPI   PO4 9892  10.483   1.101  10.712 -0.0426 -0.0854  0.0469
  619loPI   GL1 9893  10.414   1.112  10.336 -0.3024 -0.1947 -0.0694
  619loPI   GL2 9894  10.804   1.323  10.255 -0.1504 -0.1687  0.0643
  619loPI   C1A 9895  10.491   1.099   9.899 -0.0967  0.0391  0.1247
  619loPI   C2A 9896  10.363   1.291   9.611 -0.0456  0.1264  0.1976
  619loPI   C3A 9897  10.335   1.553   9.287 -0.0363  0.1351 -0.1366
  619loPI   C4A 9898  10.306   1.809   8.986 -0.0268  0.3246 -0.3496
  619loPI   C5A 9899  10.391   1.860   8.504  0.3715  0.2938 -0.1075
  619loPI   C6A 9900  10.512   1.705   8.109 -0.0469  0.0185  0.3438
  619loPI   C1B 9901  10.917   1.430   9.850 -0.2032  0.1634 -0.1171
  619loPI   C2B 9902  11.013   1.521   9.397 -0.2481 -0.0316 -0.1043
  619loPI   C3B 9903  11.094   1.934   9.246  0.1449  0.0289 -0.0079
  619loPI   C4B 9904  11.269   2.265   9.080 -0.3029  0.1882 -0.1634
  620loPI    C1 9905  17.363   6.147  11.543  0.1169  0.0674 -0.2514
  620loPI    C2 9906  17.129   5.859  11.692 -0.0374  0.2073 -0.2202
  620loPI    C3 9907  17.341   6.091  11.938  0.3349 -0.0820 -0.2584
  620loPI   PO4 9908  17.504   5.977  11.374 -0.2483 -0.2089  0.3527
  620loPI   GL1 9909  17.534   6.006  10.990 -0.0209 -0.0217  0.0615
  620loPI   GL2 9910  17.282   6.197  10.885 -0.1243  0.1461  0.0119
  620loPI   C1A 9911  17.877   5.978  10.630  0.2463 -0.0048 -0.3638
  620loPI   C2A 9912  17.761   6.005  10.176  0.0998 -0.1492 -0.1044
  620loPI   C3A 9913  17.843   6.010   9.735  0.1442 -0.0733  0.0880
  620loPI   C4A 9914  17.812   5.982   9.266 -0.0484  0.0313 -0.1760
  620loPI   C5A 9915  17.647   5.993   8.848  0.0812 -0.0382  0.0051
  620loPI   C6A 9916  17.356   5.792   8.665  0.0551 -0.2014  0.1285
  620loPI   C1B 9917  17.270   5.940  10.515  0.0322 -0.1519  0.1847
  620loPI   C2B 9918  17.292   6.064  10.049 -0.1639 -0.0726 -0.0067
  620loPI   C3B 9919  17.264   5.987   9.678 -0.2647  0.2750 -0.0438
  620loPI   C4B 9920  17.354   6.044   9.306 -0.1659 -0.1504 -0.1745
  621loPI    C1 9921  16.045   1.813  11.564  0.2359  0.2443  0.1547
  621loPI    C2 9922  16.325   1.559  11.695 -0.0812 -0.1330  0.1190
  621loPI    C3 9923  16.006   1.639  11.923 -0.1864 -0.0870 -0.0430
  621loPI   PO4 9924  16.056   1.757  11.258  0.2448 -0.2941  0.1734
  621loPI   GL1 9925  16.020   1.619  10.739 -0.3857 -0.0900  0.1844
  621loPI   GL2 9926  16.294   1.614  10.610  0.2035 -0.4201  0.1062
  621loPI   C1A 9927  15.773   1.640  10.447 -0.0423 -0.0208  0.1492
  621loPI   C2A 9928  15.772   1.551   9.980 -0.2521  0.0175  0.0926
  621loPI   C3A 9929  15.798   1.524   9.508 -0.0884 -0.2300  0.3273
  621loPI   C4A 9930  15.733   1.429   9.071 -0.2161 -0.1947  0.0924
  621loPI   C5A 9931  15.645   1.492   8.706 -0.2304  0.1861 -0.2858
  621loPI   C6A 9932  15.643   1.323   8.340 -0.2839 -0.2539 -0.2338
  621loPI   C1B 9933  16.282   1.549  10.193 -0.1274 -0.0610  0.2167
  621loPI   C2B 9934  16.251   1.590   9.746  0.0193  0.1100  0.0206
  621loPI   C3B 9935  16.256   1.515   9.219  0.1704 -0.1184  0.2070
  621loPI   C4B 9936  16.243   1.419   8.756 -0.3260  0.4141 -0.1479
  622loPI    C1 9937  18.023   6.654  11.547  0.0525 -0.1217  0.0020
  622loPI    C2 9938  17.731   6.447  11.725 -0.0816  0.0769  0.0164
  622loPI    C3 9939  17.919   6.738  11.924 -0.0088  0.0823 -0.0596
  622loPI   PO4 9940  17.840   6.823  11.268  0.2849 -0.0359 -0.3249
  622loPI   GL1 9941  17.796   7.035  10.830  0.1565 -0.4323 -0.0848
  622loPI   GL2 9942  18.145   6.802  10.827  0.1626  0.0817 -0.0537
  622loPI   C1A 9943  17.851   6.983  10.229  0.0306  0.0897  0.2185
  622loPI   C2A 9944  17.751   6.954   9.827  0.0570  0.1624 -0.0128
  622loPI   C3A 9945  17.824   6.908   9.378  0.1972  0.1415 -0.0280
  622loPI   C4A 9946  17.950   6.828   8.961 -0.0056 -0.2251 -0.0259
  622loPI   C5A 9947  18.000   6.502   8.645  0.0484 -0.1932 -0.0693
  622loPI   C6A 9948  17.845   6.145   8.388  0.0921  0.1517 -0.2202
  622loPI   C1B 9949  18.345   6.920  10.384  0.0808 -0.0662  0.1382
  622loPI   C2B 9950  18.271   6.948   9.990 -0.1322  0.0573  0.0403
  622loPI   C3B 9951  18.315   6.862   9.595 -0.2063 -0.1463  0.1969
  622loPI   C4B 9952  18.333   6.861   9.213 -0.2448 -0.0283  0.0479
  623loPI    C1 9953  14.580  14.166  11.671 -0.0199  0.0839 -0.1171
  623loPI    C2 9954  14.311  14.042  11.940  0.2528 -0.2022  0.0313
  623loPI    C3 9955  14.524  14.374  12.008 -0.0142 -0.0086 -0.0587
  623loPI   PO4 9956  14.466  14.180  11.386 -0.0835 -0.3858 -0.2161
  623loPI   GL1 9957  14.531  14.337  11.002  0.1267  0.1671  0.2538
  623loPI   GL2 9958  14.765  14.153  10.933  0.3155  0.0137  0.1968
  623loPI   C1A 9959  14.192  14.235  10.709  0.0898  0.3111 -0.0030
  623loPI   C2A 9960  14.230  14.119  10.233  0.0445 -0.0785  0.2632
  623loPI   C3A 9961  14.219  14.081   9.794 -0.2680 -0.1837  0.0749
  623loPI   C4A 9962  14.253  14.026   9.364  0.0273  0.1001 -0.0826
  623loPI   C5A 9963  14.370  13.981   8.955 -0.1425 -0.0466  0.0780
  623loPI   C6A 9964  14.696  14.160   8.691 -0.0079  0.3577 -0.2099
  623loPI   C1B 9965  14.713  14.139  10.438 -0.2502 -0.1339 -0.1132
  623loPI   C2B 9966  14.766  14.191  10.090 -0.1796  0.3019 -0.3449
  623loPI   C3B 9967  14.736  14.165   9.658 -0.1590 -0.1283  0.0175
  623loPI   C4B 9968  14.801  14.022   9.210 -0.1941 -0.1376 -0.1982
  624loPI    C1 9969  17.870  11.113  11.405 -0.2292  0.0657 -0.0723
  624loPI    C2 9970  17.800  10.789  11.629 -0.0821  0.0968  0.0210
  624loPI    C3 9971  18.045  11.075  11.764  0.0014  0.1200 -0.1768
  624loPI   PO4 9972  17.834  11.008  11.192 -0.2491 -0.2698  0.1352
  624loPI   GL1 9973  17.910  11.031  10.811 -0.0784 -0.1628  0.1135
  624loPI   GL2 9974  17.774  10.726  10.744 -0.0510 -0.0585  0.0161
  624loPI   C1A 9975  18.122  11.053  10.379  0.2288 -0.2949 -0.0637
  624loPI   C2A 9976  18.082  11.034   9.996  0.0151 -0.0016 -0.1111
  624loPI   C3A 9977  18.107  11.070   9.575  0.0199  0.1643  0.1521
  624loPI   C4A 9978  17.999  11.046   9.149  0.0499  0.1913 -0.1062
  624loPI   C5A 9979  18.186  10.859   8.786  0.2633 -0.2238 -0.0382
  624loPI   C6A 9980  18.260  10.744   8.403 -0.1613  0.1387  0.2238
  624loPI   C1B 9981  17.867  10.593  10.371 -0.1277  0.0239 -0.1655
  624loPI   C2B 9982  17.883  10.454   9.980 -0.1491 -0.1538  0.0877
  624loPI   C3B 9983  17.817  10.502   9.463 -0.1297 -0.1126 -0.4224
  624loPI   C4B 9984  17.826  10.504   9.033  0.1845  0.0923  0.2535
  625loPI    C1 9985  16.656  16.912  11.352 -0.2530  0.1472  0.2656
  625loPI    C2 9986  16.966  17.126  11.489 -0.0729  0.0575  0.0054
  625loPI    C3 9987  16.792  16.853  11.724 -0.1106  0.2763  0.2354
  625loPI   PO4 9988  16.569  17.098  11.138 -0.1175  0.1263  0.1054
  625loPI   GL1 9989  16.435  17.072  10.709 -0.1725  0.1998 -0.0473
  625loPI   GL2 9990  16.346  16.684  10.806  0.2549  0.0644 -0.2367
  625loPI   C1A 9991  16.512  17.328  10.301 -0.0305 -0.1021  0.1011
  625loPI   C2A 9992  16.572  17.280   9.844 -0.2992  0.0392  0.1836
  625loPI   C3A 9993  16.625  17.228   9.489 -0.0011  0.1584 -0.2483
  625loPI   C4A 9994  16.638  17.261   9.053 -0.1727 -0.0511  0.4568
  625loPI   C5A 9995  16.950  17.316   8.897 -0.3252  0.2902 -0.1346
  625loPI   C6A 9996  17.001  17.419   8.523 -0.0394  0.1181  0.2293
  625loPI   C1B 9997  16.232  16.751  10.329  0.0431 -0.0504 -0.1035
  625loPI   C2B 9998  16.266  16.847   9.837 -0.2323  0.0851 -0.0854
  625loPI   C3B 9999  16.264  16.857   9.345 -0.3765  0.0125 -0.0206
  625loPI   C4B10000  16.339  16.855   9.024 -0.4368  0.1506  0.2053
  626loPI    C110001  16.652  14.987  11.609 -0.1005  0.0855 -0.0324
  626loPI    C210002  17.009  15.159  11.663 -0.0330 -0.0056 -0.1835
  626loPI    C310003  16.692  15.289  11.869  0.0801  0.0964 -0.0717
  626loPI   PO410004  16.556  14.994  11.430  0.0995 -0.0670 -0.0908
  626loPI   GL110005  16.428  15.003  11.024  0.1490 -0.0433  0.1082
  626loPI   GL210006  16.406  14.765  11.053  0.0506  0.2245 -0.0057
  626loPI   C1A10007  16.310  15.031  10.558 -0.0667  0.2036  0.1437
  626loPI   C2A10008  16.329  15.039  10.083  0.1847  0.1363 -0.2329
  626loPI   C3A10009  16.334  14.934   9.621  0.0763 -0.1730  0.2632
  626loPI   C4A10010  16.231  15.047   9.123  0.0841  0.0145  0.0843
  626loPI   C5A10011  16.035  15.344   8.896  0.1670  0.0112 -0.0635
  626loPI   C6A10012  16.061  15.516   8.484  0.1211 -0.2368 -0.1752
  626loPI   C1B10013  16.561  14.616  10.618 -0.3425 -0.0018 -0.0313
  626loPI   C2B10014  16.587  14.515  10.138  0.0836  0.0357 -0.2053
  626loPI   C3B10015  16.592  14.498   9.754  0.2921  0.1253 -0.2165
  626loPI   C4B10016  16.571  14.533   9.325  0.1080  0.2802  0.1982
  627loPI    C110017  13.543  15.665  11.425 -0.1074  0.2626 -0.0317
  627loPI    C210018  13.220  15.889  11.502 -0.1944  0.0813  0.1404
  627loPI    C310019  13.543  15.916  11.737 -0.1454  0.1418  0.0663
  627loPI   PO410020  13.516  15.661  11.148  0.2607  0.1017 -0.0131
  627loPI   GL110021  13.499  15.832  10.810  0.0671  0.3177  0.2964
  627loPI   GL210022  13.631  16.033  10.750  0.1330 -0.2098 -0.2083
  627loPI   C1A10023  13.466  15.586  10.465 -0.3349  0.0695  0.3271
  627loPI   C2A10024  13.446  15.451  10.077 -0.0077 -0.2316 -0.3274
  627loPI   C3A10025  13.474  15.564   9.709  0.1166 -0.0071 -0.3647
  627loPI   C4A10026  13.547  15.508   9.321  0.0627 -0.4947 -0.1212
  627loPI   C5A10027  13.459  15.509   8.810  0.1548 -0.0790  0.1900
  627loPI   C6A10028  13.445  15.557   8.434  0.0334  0.0689  0.0733
  627loPI   C1B10029  13.730  16.025  10.356 -0.2973  0.0401 -0.2596
  627loPI   C2B10030  13.749  15.875   9.954  0.0986 -0.0748  0.2931
  627loPI   C3B10031  13.764  15.898   9.576  0.1008 -0.0961 -0.1469
  627loPI   C4B10032  13.818  15.859   9.092 -0.1122 -0.2497 -0.2588
  628loPI    C110033   7.154  13.023  11.605 -0.1334  0.0964  0.0429
  628loPI    C210034   7.155  12.769  11.914 -0.1909 -0.0378 -0.0663
  628loPI    C310035   7.477  12.995  11.839 -0.1581 -0.0420  0.0606
  628loPI   PO410036   7.143  12.819  11.421  0.1819  0.0651  0.1681
  628loPI   GL110037   7.291  12.787  11.017 -0.3350 -0.2197 -0.3859
  628loPI   GL210038   7.237  13.148  10.790 -0.0773 -0.1190 -0.0057
  628loPI   C1A10039   7.270  12.693  10.617 -0.1787  0.1106  0.2794
  628loPI   C2A10040   7.366  12.715  10.144 -0.1386 -0.2178  0.0113
  628loPI   C3A10041   7.355  12.775   9.714 -0.1887 -0.4281  0.0716
  628loPI   C4A10042   7.349  12.671   9.289 -0.1554 -0.0188  0.0207
  628loPI   C5A10043   7.266  12.838   8.848  0.1250  0.1798 -0.0547
  628loPI   C6A10044   7.181  12.857   8.448 -0.1195 -0.1671 -0.1184
  628loPI   C1B10045   7.022  13.249  10.460 -0.0549 -0.0640  0.0101
  628loPI   C2B10046   7.122  13.134  10.040  0.2167 -0.4203 -0.3002
  628loPI   C3B10047   7.032  13.207   9.622  0.1065  0.2015  0.0656
  628loPI   C4B10048   7.037  13.234   9.191  0.0345  0.1572  0.1301
  629loPI    C110049   1.967  12.332  11.290  0.4133 -0.1399 -0.0855
  629loPI    C210050   2.259  12.525  11.484  0.0598  0.2274  0.0974
  629loPI    C310051   1.986  12.318  11.690  0.1234 -0.0225 -0.0653
  629loPI   PO410052   2.057  12.132  11.084 -0.1696  0.0355 -0.2612
  629loPI   GL110053   2.247  11.917  10.806 -0.2251 -0.0410  0.3475
  629loPI   GL210054   2.446  12.168  10.667 -0.1115  0.1272 -0.1478
  629loPI   C1A10055   2.167  11.844  10.375  0.0162 -0.0529  0.0676
  629loPI   C2A10056   2.137  11.866   9.924 -0.1233 -0.0146 -0.2506
  629loPI   C3A10057   2.116  11.813   9.530 -0.1250  0.0810 -0.0614
  629loPI   C4A10058   2.246  11.894   9.181 -0.1541 -0.1792  0.2170
  629loPI   C5A10059   2.150  11.850   8.785  0.0169  0.5263 -0.0647
  629loPI   C6A10060   2.089  11.711   8.373 -0.0311  0.3363  0.0537
  629loPI   C1B10061   2.363  12.286  10.252  0.1516  0.1511 -0.1368
  629loPI   C2B10062   2.384  12.335   9.794 -0.1632  0.3506 -0.1201
  629loPI   C3B10063   2.402  12.316   9.401 -0.2213  0.0166  0.0571
  629loPI   C4B10064   2.458  12.295   8.885 -0.1336  0.2390  0.0959
  630loPI    C110065   5.613   3.954  11.329 -0.1175  0.1507  0.1837
  630loPI    C210066   5.850   3.804  11.613  0.0243 -0.2038 -0.1138
  630loPI    C310067   5.459   3.851  11.683  0.0492 -0.3340  0.1223
  630loPI   PO410068   5.779   3.967  11.063 -0.0756  0.1405 -0.1223
  630loPI   GL110069   5.900   4.167  10.737 -0.1925 -0.1728  0.0173
  630loPI   GL210070   5.588   4.189  10.607  0.0170 -0.0554 -0.0809
  630loPI   C1A10071   6.164   4.144  10.389 -0.0984 -0.0873  0.0204
  630loPI   C2A10072   6.047   4.228   9.937  0.0934 -0.0774 -0.2628
  630loPI   C3A10073   5.991   4.279   9.495  0.2079 -0.0171 -0.1125
  630loPI   C4A10074   6.015   4.190   9.109  0.3241 -0.1504  0.0386
  630loPI   C5A10075   5.993   4.017   8.588 -0.1105  0.1324  0.2141
  630loPI   C6A10076   5.674   4.274   8.347 -0.0500 -0.3168 -0.1221
  630loPI   C1B10077   5.581   4.225  10.193 -0.0910  0.2521  0.1786
  630loPI   C2B10078   5.545   4.204   9.770 -0.0029  0.1981  0.0338
  630loPI   C3B10079   5.471   4.209   9.260  0.2330  0.1072 -0.1764
  630loPI   C4B10080   5.606   4.292   8.869  0.2023 -0.0172 -0.0759
  631loPI    C110081   6.577  11.212  11.509  0.2044 -0.0191 -0.1423
  631loPI    C210082   6.805  11.527  11.601 -0.2677  0.3514 -0.1995
  631loPI    C310083   6.424  11.515  11.720 -0.1778 -0.3471  0.0650
  631loPI   PO410084   6.635  11.150  11.153 -0.0077 -0.0602  0.3710
  631loPI   GL110085   6.615  10.819  10.815  0.1128 -0.2461  0.0175
  631loPI   GL210086   6.392  11.015  10.712 -0.1081 -0.0232  0.1774
  631loPI   C1A10087   6.596  10.472  10.555  0.2188 -0.2546 -0.0163
  631loPI   C2A10088   6.551  10.521  10.164 -0.0187  0.4639  0.2422
  631loPI   C3A10089   6.459  10.412   9.739 -0.2838 -0.0532  0.1400
  631loPI   C4A10090   6.507  10.427   9.355 -0.1568  0.0124  0.0605
  631loPI   C5A10091   6.548  10.543   8.966 -0.0438 -0.2634 -0.2208
  631loPI   C6A10092   6.553  10.688   8.568 -0.0970 -0.0745 -0.1626
  631loPI   C1B10093   6.313  10.943  10.298  0.3649 -0.1917 -0.2571
  631loPI   C2B10094   6.210  10.991   9.884  0.1710 -0.2208  0.0771
  631loPI   C3B10095   6.331  10.959   9.460 -0.0022  0.2567  0.0396
  631loPI   C4B10096   6.302  10.964   9.082  0.0191 -0.1004  0.1693
  632loPI    C110097  12.247   3.664  10.752  0.1849  0.0667 -0.0269
  632loPI    C210098  12.173   3.795  11.123 -0.0561  0.0842 -0.0796
  632loPI    C310099  12.253   3.408  11.059 -0.0036  0.0831 -0.0087
  632loPI   PO410100  12.129   3.765  10.562  0.1632  0.0711  0.2071
  632loPI   GL110101  11.958   3.737  10.200 -0.2464 -0.2502 -0.1983
  632loPI   GL210102  11.731   3.493  10.289 -0.4333  0.3059  0.2109
  632loPI   C1A10103  11.909   4.022   9.839  0.0966 -0.3035 -0.1722
  632loPI   C2A10104  11.852   4.187   9.476 -0.2768 -0.1263 -0.2278
  632loPI   C3A10105  11.820   4.162   9.128 -0.1405 -0.1002  0.0133
  632loPI   C4A10106  11.932   3.913   8.807 -0.2275  0.2421  0.3927
  632loPI   C5A10107  11.913   3.419   8.544  0.3565  0.2670 -0.1427
  632loPI   C6A10108  12.046   3.207   8.217 -0.0267  0.1736 -0.1415
  632loPI   C1B10109  11.598   3.317   9.864  0.0544 -0.2829 -0.1853
  632loPI   C2B10110  11.370   3.090   9.501  0.2664 -0.0423  0.4638
  632loPI   C3B10111  11.172   3.184   9.118  0.3500 -0.2329  0.0260
  632loPI   C4B10112  11.148   3.005   8.727 -0.0802 -0.4011  0.1015
  633loPI    C110113   6.963  13.497  11.679 -0.0952 -0.0139  0.0355
  633loPI    C210114   6.943  13.667  12.040 -0.2171  0.0081  0.0188
  633loPI    C310115   7.056  13.285  12.005  0.0944  0.0949  0.0532
  633loPI   PO410116   6.699  13.620  11.472  0.0341  0.1801 -0.1445
  633loPI   GL110117   6.686  13.745  11.056 -0.2275 -0.1983  0.1461
  633loPI   GL210118   6.817  13.648  10.789 -0.1403  0.0179 -0.0350
  633loPI   C1A10119   6.626  14.055  10.790  0.0713 -0.1838  0.0987
  633loPI   C2A10120   6.563  14.026  10.351 -0.3093 -0.0434  0.0116
  633loPI   C3A10121   6.498  14.134   9.836 -0.2595 -0.0143 -0.2511
  633loPI   C4A10122   6.620  14.165   9.437 -0.4845  0.0911  0.2082
  633loPI   C5A10123   6.719  14.125   8.994  0.1522 -0.0628 -0.0747
  633loPI   C6A10124   7.071  14.047   8.853 -0.0003  0.0924  0.1404
  633loPI   C1B10125   6.836  13.644  10.251  0.1275  0.0645  0.4726
  633loPI   C2B10126   6.807  13.631   9.704  0.0135 -0.3069 -0.0111
  633loPI   C3B10127   6.824  13.686   9.308 -0.2393  0.0815  0.2065
  633loPI   C4B10128   6.809  13.633   8.885 -0.1675 -0.2129  0.0885
  634loPI    C110129  13.658   9.660  11.650  0.0279 -0.1601 -0.2858
  634loPI    C210130  13.258   9.661  11.667  0.0405  0.1891  0.1446
  634loPI    C310131  13.472   9.565  11.991  0.3086  0.1697 -0.0348
  634loPI   PO410132  13.727   9.533  11.439  0.1195 -0.1029 -0.2666
  634loPI   GL110133  13.780   9.456  10.950  0.0998 -0.0766 -0.0615
  634loPI   GL210134  13.708   9.737  10.950 -0.0935 -0.3488  0.2330
  634loPI   C1A10135  13.909   9.155  10.486 -0.0228 -0.0205 -0.1552
  634loPI   C2A10136  13.922   9.194  10.011  0.1903  0.0225 -0.1664
  634loPI   C3A10137  13.949   9.233   9.535 -0.0307  0.2140  0.0684
  634loPI   C4A10138  13.918   9.235   9.077 -0.2638  0.0076  0.1860
  634loPI   C5A10139  13.806   9.351   8.714 -0.0621 -0.0269  0.2079
  634loPI   C6A10140  13.525   9.347   8.412  0.2376  0.2533 -0.2231
  634loPI   C1B10141  13.733   9.652  10.462 -0.0373  0.4635 -0.0597
  634loPI   C2B10142  13.679   9.694   9.953 -0.3107  0.0101 -0.1250
  634loPI   C3B10143  13.712   9.668   9.512  0.0158 -0.2262  0.3694
  634loPI   C4B10144  13.696   9.778   9.114 -0.1576  0.1524  0.1908
  635loPI    C110145  13.676  16.676  11.524  0.2343  0.0228  0.1952
  635loPI    C210146  13.670  16.400  11.814  0.4530 -0.1368  0.0507
  635loPI    C310147  13.489  16.753  11.870 -0.0149 -0.3852  0.1575
  635loPI   PO410148  13.667  16.520  11.307  0.0323 -0.0744  0.0298
  635loPI   GL110149  13.656  16.570  10.850  0.2106 -0.0060  0.4978
  635loPI   GL210150  13.709  16.818  10.754 -0.2900  0.0978  0.0487
  635loPI   C1A10151  13.492  16.459  10.469 -0.0985 -0.0765 -0.0347
  635loPI   C2A10152  13.519  16.411  10.033 -0.0113 -0.1042 -0.2027
  635loPI   C3A10153  13.514  16.367   9.641  0.0411  0.1071 -0.1407
  635loPI   C4A10154  13.531  16.252   9.289  0.1384  0.2266 -0.1104
  635loPI   C5A10155  13.742  16.331   8.909  0.2508 -0.1269  0.0305
  635loPI   C6A10156  14.097  16.117   8.724  0.0499  0.0440  0.0455
  635loPI   C1B10157  13.744  16.914  10.367  0.0406 -0.0402  0.3450
  635loPI   C2B10158  13.717  16.873   9.943 -0.1649 -0.2348  0.0957
  635loPI   C3B10159  13.745  16.787   9.530  0.0309  0.1160  0.0053
  635loPI   C4B10160  13.791  16.794   9.046 -0.2341  0.0278  0.2255
  636loPI    C110161   2.012  15.347  11.381 -0.0042 -0.0460 -0.0192
  636loPI    C210162   2.392  15.350  11.256 -0.0379  0.0179 -0.1221
  636loPI    C310163   2.306  15.426  11.639  0.0653 -0.1647 -0.0614
  636loPI   PO410164   1.902  15.217  11.341 -0.0632  0.3040 -0.0598
  636loPI   GL110165   1.928  14.997  10.897  0.1457  0.1766 -0.1547
  636loPI   GL210166   2.107  15.274  10.881  0.0665 -0.3245  0.0103
  636loPI   C1A10167   1.905  14.963  10.498 -0.2668  0.1911 -0.0433
  636loPI   C2A10168   1.870  14.891  10.127 -0.3146 -0.3030 -0.1449
  636loPI   C3A10169   1.817  15.037   9.712  0.0461 -0.1428 -0.1716
  636loPI   C4A10170   1.974  14.958   9.199  0.2313  0.2133 -0.0940
  636loPI   C5A10171   1.687  14.906   8.896  0.1608 -0.0585  0.0504
  636loPI   C6A10172   1.404  14.692   8.537 -0.1145 -0.0123 -0.1597
  636loPI   C1B10173   2.153  15.458  10.459  0.1196 -0.1710 -0.2815
  636loPI   C2B10174   2.131  15.466  10.060 -0.0396 -0.1127  0.1471
  636loPI   C3B10175   2.153  15.436   9.698  0.0076  0.2505  0.1326
  636loPI   C4B10176   2.205  15.459   9.246  0.0023 -0.2940 -0.0775
  637loPI    C110177   0.802  12.398  11.450 -0.0881 -0.2829 -0.0567
  637loPI    C210178   0.924  12.320  11.823  0.0313 -0.0042 -0.0351
  637loPI    C310179   0.619  12.571  11.761  0.0101 -0.0521 -0.1248
  637loPI   PO410180   1.072  12.454  11.300 -0.0212  0.0235  0.1587
  637loPI   GL110181   1.325  12.342  10.908  0.0743  0.2540  0.2201
  637loPI   GL210182   1.635  12.318  10.931 -0.2465 -0.0845 -0.0027
  637loPI   C1A10183   1.402  12.313  10.462 -0.2105  0.0943 -0.1230
  637loPI   C2A10184   1.369  12.363  10.099 -0.1330 -0.1189  0.0895
  637loPI   C3A10185   1.365  12.374   9.683  0.2781  0.1402 -0.0656
  637loPI   C4A10186   1.390  12.248   9.255  0.2856  0.3344  0.0104
  637loPI   C5A10187   1.205  12.271   8.857  0.0820  0.2362  0.0027
  637loPI   C6A10188   1.131  11.889   8.708  0.2806  0.0234 -0.0566
  637loPI   C1B10189   1.863  12.282  10.464  0.0598 -0.2992 -0.1295
  637loPI   C2B10190   1.863  12.304   9.964 -0.0883 -0.1314  0.1386
  637loPI   C3B10191   1.808  12.254   9.631 -0.1703 -0.1582 -0.0347
  637loPI   C4B10192   1.936  12.271   9.172  0.2194 -0.0549  0.2189
  638loPI    C110193   9.057  14.786  11.629  0.1593  0.0509  0.0632
  638loPI    C210194   8.880  14.455  11.768  0.1501 -0.0461 -0.1752
  638loPI    C310195   9.138  14.655  11.999  0.0446 -0.1362  0.0235
  638loPI   PO410196   9.076  14.770  11.445 -0.2581 -0.1817  0.0556
  638loPI   GL110197   8.865  14.951  11.078 -0.0533  0.0169 -0.4038
  638loPI   GL210198   9.208  15.001  11.018  0.2278  0.0259  0.1505
  638loPI   C1A10199   8.688  15.019  10.753 -0.3080 -0.0204 -0.0273
  638loPI   C2A10200   8.666  14.944  10.333  0.1950 -0.2482  0.1248
  638loPI   C3A10201   8.663  15.030   9.897  0.1399 -0.1970 -0.0908
  638loPI   C4A10202   8.670  15.075   9.432  0.1962  0.2407 -0.1512
  638loPI   C5A10203   8.710  15.113   9.030 -0.1481 -0.1414 -0.0548
  638loPI   C6A10204   9.063  15.245   8.837 -0.2631  0.0367 -0.1473
  638loPI   C1B10205   9.163  14.976  10.610  0.2992 -0.0837 -0.1555
  638loPI   C2B10206   9.112  14.926  10.166 -0.0858 -0.0503  0.0096
  638loPI   C3B10207   9.215  15.064   9.714  0.0080  0.0049 -0.1613
  638loPI   C4B10208   9.132  15.140   9.362  0.2874  0.1306  0.2642
  639loPI    C110209  12.385   4.139  10.825 -0.0260  0.1095 -0.1296
  639loPI    C210210  12.078   4.334  10.992 -0.0038  0.1395 -0.1237
  639loPI    C310211  12.429   4.314  11.181  0.0058  0.1277 -0.1425
  639loPI   PO410212  12.493   4.176  10.589  0.1303  0.0354 -0.1425
  639loPI   GL110213  12.416   3.900  10.169 -0.2598  0.1482  0.0160
  639loPI   GL210214  12.735   4.050  10.197 -0.0254 -0.0899 -0.0790
  639loPI   C1A10215  12.389   3.700   9.834  0.0898  0.0401  0.0711
  639loPI   C2A10216  12.652   3.690   9.485  0.2619 -0.0142  0.3957
  639loPI   C3A10217  12.766   3.706   9.158 -0.1888 -0.1978  0.0199
  639loPI   C4A10218  12.781   3.737   8.706 -0.2773  0.0431 -0.0762
  639loPI   C5A10219  13.210   3.647   8.632  0.0926  0.0802  0.2227
  639loPI   C6A10220  13.307   3.209   8.416 -0.2411  0.2056 -0.0322
  639loPI   C1B10221  12.877   3.658   9.961  0.0415 -0.1086  0.1886
  639loPI   C2B10222  13.308   3.513   9.801  0.3423 -0.1320 -0.0978
  639loPI   C3B10223  13.513   3.248   9.688  0.1137 -0.0860 -0.0858
  639loPI   C4B10224  13.745   2.982   9.410  0.1706  0.0584  0.0862
  640loPI    C110225  15.643  14.025  11.546  0.0256  0.0680 -0.2218
  640loPI    C210226  15.651  14.251  11.875  0.0667 -0.0687 -0.1281
  640loPI    C310227  15.379  14.322  11.590  0.2256  0.2450 -0.2054
  640loPI   PO410228  15.971  14.052  11.482 -0.0846  0.1927  0.1201
  640loPI   GL110229  16.293  14.008  11.154 -0.1147 -0.0401  0.2172
  640loPI   GL210230  16.085  13.806  11.053  0.0747  0.1137 -0.0861
  640loPI   C1A10231  16.208  14.174  10.738 -0.3067 -0.1509 -0.0229
  640loPI   C2A10232  16.264  14.147  10.316 -0.2523 -0.1551  0.2485
  640loPI   C3A10233  16.236  14.100   9.914  0.0780  0.0408  0.1412
  640loPI   C4A10234  16.230  14.187   9.568  0.0484  0.0809 -0.0605
  640loPI   C5A10235  16.312  14.052   9.192 -0.3510  0.1007  0.0702
  640loPI   C6A10236  16.026  14.275   8.938  0.1978 -0.2013  0.0552
  640loPI   C1B10237  15.967  13.755  10.596 -0.2834 -0.0623 -0.3575
  640loPI   C2B10238  15.960  13.719  10.102 -0.0728 -0.0266  0.2016
  640loPI   C3B10239  16.020  13.664   9.681 -0.1117  0.1284 -0.0358
  640loPI   C4B10240  16.005  13.608   9.204 -0.1510  0.3661  0.0208
  641loPI    C110241  17.462  15.699  11.432 -0.0059  0.2632  0.1317
  641loPI    C210242  17.736  15.755  11.146 -0.0082  0.0008  0.0758
  641loPI    C310243  17.851  15.673  11.520 -0.0091  0.0367  0.0840
  641loPI   PO410244  17.290  15.469  11.313 -0.2770  0.1887  0.1515
  641loPI   GL110245  17.124  15.332  10.940 -0.1759  0.0459 -0.0114
  641loPI   GL210246  16.930  15.160  11.148  0.2023  0.0275 -0.1142
  641loPI   C1A10247  17.049  15.373  10.459 -0.0084 -0.2760 -0.1504
  641loPI   C2A10248  17.092  15.472  10.083  0.0869 -0.0163 -0.0651
  641loPI   C3A10249  17.035  15.445   9.628 -0.0733  0.3249 -0.0754
  641loPI   C4A10250  16.999  15.375   9.192  0.1667 -0.1157 -0.0506
  641loPI   C5A10251  17.127  15.399   8.808 -0.2142  0.0841 -0.0722
  641loPI   C6A10252  16.893  15.590   8.472 -0.0664  0.0665 -0.0603
  641loPI   C1B10253  16.796  15.046  10.733 -0.1122 -0.1079  0.3331
  641loPI   C2B10254  16.828  14.960  10.261 -0.1830  0.2152  0.2547
  641loPI   C3B10255  16.757  14.989   9.845 -0.3454  0.1809  0.0634
  641loPI   C4B10256  16.826  14.937   9.431 -0.2448 -0.0251  0.0440
  642loPI    C110257  10.946   8.197  11.000  0.0584 -0.2192  0.0060
  642loPI    C210258  10.743   8.155  11.342 -0.2744 -0.2612 -0.1917
  642loPI    C310259  10.979   7.860  11.211 -0.0523 -0.1982  0.0576
  642loPI   PO410260  10.757   8.336  10.857 -0.2197 -0.3597 -0.3511
  642loPI   GL110261  10.734   8.455  10.500 -0.1397 -0.3675  0.0605
  642loPI   GL210262  10.650   8.814  10.517 -0.1237  0.1167  0.2281
  642loPI   C1A10263  10.849   8.249  10.110 -0.3872  0.2613 -0.1157
  642loPI   C2A10264  10.910   8.293   9.707  0.0721 -0.1437  0.4038
  642loPI   C3A10265  10.820   8.380   9.341 -0.0434 -0.1389 -0.0923
  642loPI   C4A10266  10.840   8.367   8.876  0.1708 -0.1082 -0.1194
  642loPI   C5A10267  10.772   8.385   8.406  0.0690  0.0617 -0.1127
  642loPI   C6A10268  10.723   8.420   7.924  0.0975 -0.0384 -0.0520
  642loPI   C1B10269  10.636   8.711  10.085 -0.0547  0.2036  0.2575
  642loPI   C2B10270  10.645   8.797   9.622  0.0228  0.0370 -0.1599
  642loPI   C3B10271  10.571   8.857   9.188  0.2854  0.0716  0.2006
  642loPI   C4B10272  10.654   8.790   8.665  0.0614  0.0128 -0.1781
  643loPI    C110273  13.605   5.574  10.935 -0.1128 -0.1470  0.1344
  643loPI    C210274  13.505   5.885  11.165  0.2394 -0.0300  0.1358
  643loPI    C310275  13.514   5.517  11.321  0.1778  0.0071  0.2286
  643loPI   PO410276  13.541   5.705  10.677  0.2165 -0.0836  0.3563
  643loPI   GL110277  13.473   5.608  10.265 -0.2201 -0.0015  0.0277
  643loPI   GL210278  13.871   5.556  10.215 -0.0158  0.4419 -0.2406
  643loPI   C1A10279  13.249   5.754   9.906 -0.1746 -0.2258  0.2798
  643loPI   C2A10280  13.307   6.086   9.541  0.3726  0.1909 -0.1545
  643loPI   C3A10281  13.245   6.171   9.164 -0.0261 -0.0249 -0.0699
  643loPI   C4A10282  13.047   6.066   8.774  0.2643 -0.0168  0.0512
  643loPI   C5A10283  12.669   6.032   8.678  0.0803  0.4496 -0.1164
  643loPI   C6A10284  12.340   6.210   8.532 -0.0275 -0.1008  0.4832
  643loPI   C1B10285  13.865   5.221   9.937  0.1818 -0.0763  0.0896
  643loPI   C2B10286  14.184   5.117   9.691  0.2720  0.0147 -0.1351
  643loPI   C3B10287  14.227   5.154   9.173 -0.0629  0.1413 -0.2367
  643loPI   C4B10288  14.201   5.159   8.705  0.0404  0.0520  0.0510
  644loPI    C110289   0.486  13.445  11.510  0.1797  0.0971 -0.2409
  644loPI    C210290   0.848  13.342  11.645  0.0672 -0.0556 -0.0517
  644loPI    C310291   0.623  13.600  11.852 -0.1047 -0.2886  0.0575
  644loPI   PO410292   0.580  13.464  11.249 -0.1886 -0.0888  0.2821
  644loPI   GL110293   0.591  13.779  10.993  0.5048 -0.1364  0.0311
  644loPI   GL210294   0.338  13.648  10.842  0.0110  0.0420 -0.0034
  644loPI   C1A10295   0.676  13.657  10.452 -0.0730 -0.0846  0.0265
  644loPI   C2A10296   0.644  13.675   9.979 -0.0916  0.0589  0.0106
  644loPI   C3A10297   0.559  13.699   9.544 -0.0001 -0.0576 -0.2516
  644loPI   C4A10298   0.647  13.676   9.131 -0.5665  0.1375  0.0946
  644loPI   C5A10299   0.536  13.700   8.641  0.1224  0.1701 -0.3251
  644loPI   C6A10300   0.345  13.931   8.369  0.1607  0.0121  0.1622
  644loPI   C1B10301   0.143  13.612  10.470 -0.1168  0.5289  0.1732
  644loPI   C2B10302   0.060  13.601  10.070  0.2513 -0.0403  0.3143
  644loPI   C3B10303  -0.005  13.658   9.659 -0.4125  0.3061 -0.0813
  644loPI   C4B10304  -0.037  13.652   9.175  0.0890 -0.4027  0.0270
  645loPI    C110305   5.864   9.467  11.631 -0.2553 -0.1946  0.0114
  645loPI    C210306   5.669   9.702  11.890  0.2001  0.0328  0.1595
  645loPI    C310307   5.977   9.479  12.015  0.3804  0.0890 -0.1701
  645loPI   PO410308   5.826   9.445  11.346  0.3348  0.0380  0.0105
  645loPI   GL110309   5.806   9.490  10.915  0.0073 -0.1804 -0.3932
  645loPI   GL210310   5.884   9.222  10.880 -0.1078 -0.1789 -0.1486
  645loPI   C1A10311   5.566   9.602  10.563  0.0731 -0.1456 -0.0898
  645loPI   C2A10312   5.502   9.551  10.129 -0.1719 -0.1792 -0.0167
  645loPI   C3A10313   5.502   9.543   9.713 -0.0743 -0.1288 -0.2954
  645loPI   C4A10314   5.464   9.612   9.300 -0.2320 -0.2306 -0.0553
  645loPI   C5A10315   5.527   9.636   8.884  0.1453 -0.0088 -0.0355
  645loPI   C6A10316   5.843   9.809   8.522  0.0937  0.1163  0.1628
  645loPI   C1B10317   5.796   9.231  10.406 -0.0266  0.5382 -0.1731
  645loPI   C2B10318   5.732   9.093   9.976  0.2360  0.1178  0.1812
  645loPI   C3B10319   5.674   9.029   9.601 -0.0955  0.4421 -0.0652
  645loPI   C4B10320   5.695   9.207   9.135 -0.0195 -0.1818 -0.2845
  646loPI    C110321   1.838   0.961  11.569  0.0753  0.0112  0.0536
  646loPI    C210322   1.965   0.669  11.810  0.0233 -0.0938 -0.0450
  646loPI    C310323   1.600   0.824  11.859 -0.0255 -0.1844 -0.1185
  646loPI   PO410324   2.061   1.048  11.490  0.0482 -0.0356 -0.3652
  646loPI   GL110325   2.077   0.966  11.003  0.0661 -0.0311  0.2219
  646loPI   GL210326   1.764   0.861  11.025 -0.2192  0.4238  0.3654
  646loPI   C1A10327   2.118   0.999  10.611  0.1476  0.0563 -0.1800
  646loPI   C2A10328   2.145   0.946  10.177  0.0126  0.0560 -0.0855
  646loPI   C3A10329   2.231   0.994   9.738 -0.1516  0.0591 -0.1190
  646loPI   C4A10330   2.296   1.087   9.364 -0.1006  0.1128  0.1185
  646loPI   C5A10331   2.224   1.075   9.009 -0.0186  0.0247  0.3749
  646loPI   C6A10332   2.219   1.338   8.663  0.0453  0.1854 -0.5106
  646loPI   C1B10333   1.876   0.561  10.664  0.1045  0.1785  0.0221
  646loPI   C2B10334   1.870   0.463  10.201  0.1096  0.0770  0.1513
  646loPI   C3B10335   1.853   0.579   9.848 -0.1080 -0.0133  0.1091
  646loPI   C4B10336   1.966   0.641   9.411  0.1297  0.1485  0.1341
  647loPI    C110337   0.126  11.541  11.410  0.0968 -0.3436  0.0153
  647loPI    C210338   0.234  11.649  11.780  0.2636  0.0180 -0.1338
  647loPI    C310339  -0.143  11.535  11.706  0.1836  0.1166  0.1119
  647loPI   PO410340   0.154  11.738  11.287 -0.1947 -0.2495 -0.0561
  647loPI   GL110341  -0.003  11.877  10.894  0.0333  0.0686 -0.1148
  647loPI   GL210342  -0.003  11.550  10.850 -0.0616 -0.2784 -0.2750
  647loPI   C1A10343   0.105  11.920  10.475  0.4512  0.1757  0.2945
  647loPI   C2A10344   0.116  11.927  10.050 -0.2713 -0.2101 -0.0448
  647loPI   C3A10345   0.115  11.884   9.503 -0.0419  0.0153 -0.0740
  647loPI   C4A10346   0.057  11.870   9.024  0.0736  0.3728  0.0320
  647loPI   C5A10347   0.281  11.775   8.616  0.3257 -0.1820  0.0020
  647loPI   C6A10348   0.685  12.040   8.662 -0.0352 -0.0711 -0.3508
  647loPI   C1B10349  -0.155  11.496  10.477 -0.2928  0.0913 -0.2134
  647loPI   C2B10350  -0.226  11.396  10.168 -0.0880  0.1734 -0.0782
  647loPI   C3B10351  -0.218  11.515   9.709  0.3838 -0.2324  0.2711
  647loPI   C4B10352  -0.237  11.429   9.290 -0.1383 -0.2331  0.0441
  648loPI    C110353   3.148   6.709  11.690 -0.1690  0.1181 -0.0553
  648loPI    C210354   3.220   6.351  11.855 -0.0061  0.2094  0.0746
  648loPI    C310355   3.246   6.683  12.078 -0.0700  0.3098 -0.0664
  648loPI   PO410356   3.342   6.730  11.445  0.2361 -0.0705  0.2500
  648loPI   GL110357   3.287   6.894  10.929 -0.0215  0.2133  0.0555
  648loPI   GL210358   3.611   6.725  10.790  0.0882 -0.1784  0.0132
  648loPI   C1A10359   3.027   6.880  10.596  0.1295 -0.2033  0.1649
  648loPI   C2A10360   3.001   6.777  10.117 -0.1547  0.2313  0.0454
  648loPI   C3A10361   2.979   6.794   9.704  0.0196  0.0355  0.0966
  648loPI   C4A10362   2.901   6.989   9.284 -0.5073 -0.1558 -0.0397
  648loPI   C5A10363   3.125   7.214   8.937  0.3784  0.0563  0.0565
  648loPI   C6A10364   3.217   7.057   8.504 -0.1554 -0.1123 -0.0134
  648loPI   C1B10365   3.526   6.826  10.410 -0.0353  0.3413  0.1395
  648loPI   C2B10366   3.501   6.834  10.046  0.2126 -0.3510  0.1131
  648loPI   C3B10367   3.430   6.885   9.647  0.0505 -0.0441  0.1950
  648loPI   C4B10368   3.365   6.827   9.177 -0.1610  0.1214 -0.0069
  649loPI    C110369  16.871  12.032  11.632 -0.1578 -0.1961 -0.2529
  649loPI    C210370  16.539  12.011  11.854 -0.0097 -0.0428 -0.0116
  649loPI    C310371  16.866  11.809  11.964  0.0880  0.0936 -0.0484
  649loPI   PO410372  16.848  11.936  11.355  0.4275  0.0813 -0.1331
  649loPI   GL110373  16.752  11.898  10.913 -0.0675 -0.1108  0.1843
  649loPI   GL210374  16.510  11.826  10.832  0.2860 -0.0724 -0.0346
  649loPI   C1A10375  16.912  11.813  10.539  0.1820 -0.2480  0.0460
  649loPI   C2A10376  17.116  11.837  10.089  0.2417 -0.1809  0.2361
  649loPI   C3A10377  17.045  11.869   9.695  0.1288  0.0708  0.0396
  649loPI   C4A10378  16.997  11.864   9.310 -0.5129 -0.2019 -0.0421
  649loPI   C5A10379  17.054  11.897   8.814 -0.0974  0.2645  0.0279
  649loPI   C6A10380  17.215  12.105   8.453  0.3437  0.0137 -0.2740
  649loPI   C1B10381  16.393  11.896  10.432 -0.2257  0.2650 -0.1820
  649loPI   C2B10382  16.606  11.892  10.030  0.0285 -0.0763  0.1930
  649loPI   C3B10383  16.543  11.845   9.585 -0.0165  0.3074 -0.1505
  649loPI   C4B10384  16.528  11.901   9.216  0.4894 -0.1175 -0.0511
  650loPI    C110385   7.056  15.150  11.413 -0.0900  0.0371  0.0353
  650loPI    C210386   7.139  15.292  11.777 -0.0058 -0.3080  0.1549
  650loPI    C310387   6.769  15.324  11.630 -0.0023 -0.0242  0.2025
  650loPI   PO410388   7.366  15.133  11.323  0.0480  0.1943 -0.4098
  650loPI   GL110389   7.565  15.074  10.948 -0.1087 -0.1262 -0.0736
  650loPI   GL210390   7.373  15.326  10.819  0.0075 -0.2570 -0.2071
  650loPI   C1A10391   7.668  14.941  10.517 -0.1966  0.1515 -0.3943
  650loPI   C2A10392   7.669  15.058  10.052  0.1871 -0.0873  0.1940
  650loPI   C3A10393   7.726  15.065   9.535 -0.1365  0.1492  0.1630
  650loPI   C4A10394   7.685  14.980   9.147  0.0768  0.1448  0.0061
  650loPI   C5A10395   7.495  14.998   8.808  0.1350  0.0829 -0.2451
  650loPI   C6A10396   7.701  15.017   8.491  0.2912  0.0896 -0.2475
  650loPI   C1B10397   7.455  15.409  10.346 -0.0066  0.0547 -0.0056
  650loPI   C2B10398   7.363  15.444   9.998  0.0160  0.1793 -0.0311
  650loPI   C3B10399   7.382  15.383   9.566  0.0549  0.2157 -0.0077
  650loPI   C4B10400   7.413  15.480   9.059 -0.0132  0.1750  0.3494
  651loPI    C110401   3.228   1.363  11.511  0.0990 -0.0747  0.1144
  651loPI    C210402   3.148   1.736  11.632  0.4047 -0.0373  0.2093
  651loPI    C310403   3.104   1.430  11.886  0.0743 -0.0790  0.1069
  651loPI   PO410404   3.052   1.214  11.311 -0.0604  0.1296  0.2736
  651loPI   GL110405   2.848   1.291  10.913  0.3169  0.1823 -0.1204
  651loPI   GL210406   2.511   1.341  10.833  0.1565  0.1505 -0.2863
  651loPI   C1A10407   2.875   1.440  10.467  0.2246  0.0241 -0.0743
  651loPI   C2A10408   2.986   1.498   9.973 -0.3128 -0.3448  0.2376
  651loPI   C3A10409   2.924   1.493   9.633 -0.2925  0.0417  0.0690
  651loPI   C4A10410   2.989   1.517   9.241 -0.1183 -0.2724 -0.2914
  651loPI   C5A10411   2.938   1.510   8.845  0.1414 -0.2632 -0.1354
  651loPI   C6A10412   3.030   1.596   8.498  0.1211 -0.0865  0.1319
  651loPI   C1B10413   2.337   1.361  10.346  0.2703  0.1789 -0.1605
  651loPI   C2B10414   2.453   1.403   9.918 -0.0352 -0.0517 -0.0797
  651loPI   C3B10415   2.396   1.543   9.511 -0.2486  0.1413  0.1525
  651loPI   C4B10416   2.460   1.508   9.039 -0.2130  0.0938  0.2150
  652loPI    C110417  14.118  14.946  11.632  0.2095  0.0047 -0.1286
  652loPI    C210418  14.481  14.873  11.783  0.0524 -0.1461  0.1852
  652loPI    C310419  14.159  14.858  12.020 -0.1696 -0.0958 -0.1076
  652loPI   PO410420  14.156  14.926  11.411 -0.0538 -0.1923  0.2921
  652loPI   GL110421  14.328  14.916  11.085  0.0665 -0.2947 -0.1285
  652loPI   GL210422  14.180  15.140  10.924  0.0936 -0.0590  0.1118
  652loPI   C1A10423  14.468  14.700  10.683 -0.1414 -0.0019 -0.0409
  652loPI   C2A10424  14.513  14.649  10.228 -0.0291 -0.0203  0.1910
  652loPI   C3A10425  14.469  14.551   9.786  0.0326 -0.2634 -0.2945
  652loPI   C4A10426  14.499  14.484   9.381  0.2711 -0.1228  0.2574
  652loPI   C5A10427  14.703  14.607   8.999  0.0409 -0.1860  0.0323
  652loPI   C6A10428  15.141  14.377   8.781 -0.4521  0.0238 -0.0053
  652loPI   C1B10429  14.252  15.092  10.396 -0.1339 -0.0472  0.4342
  652loPI   C2B10430  14.249  15.014   9.923  0.2554 -0.3190 -0.2408
  652loPI   C3B10431  14.322  14.956   9.423  0.1487 -0.1384 -0.3006
  652loPI   C4B10432  14.337  14.992   8.995 -0.4094 -0.0169  0.3858
  653loPI    C110433   8.623  14.032  11.626  0.0448  0.0008 -0.0331
  653loPI    C210434   8.735  13.720  11.850 -0.0037 -0.0230 -0.0421
  653loPI    C310435   8.651  14.071  12.023 -0.0740 -0.0510 -0.0195
  653loPI   PO410436   8.665  14.012  11.485 -0.1220  0.3355  0.0033
  653loPI   GL110437   8.808  13.837  11.064  0.1212 -0.2057  0.1793
  653loPI   GL210438   8.676  14.093  10.982  0.2854 -0.0299  0.0107
  653loPI   C1A10439   8.465  13.670  10.782  0.1179  0.5405  0.1261
  653loPI   C2A10440   8.423  13.607  10.260  0.2310 -0.0721  0.0866
  653loPI   C3A10441   8.338  13.707   9.732 -0.2832  0.1318  0.2511
  653loPI   C4A10442   8.313  13.644   9.275 -0.0733  0.1612 -0.1786
  653loPI   C5A10443   8.619  13.361   8.980 -0.0278  0.2073  0.2264
  653loPI   C6A10444   8.860  13.526   8.638  0.4705 -0.1273  0.2552
  653loPI   C1B10445   8.664  14.067  10.588 -0.0073 -0.2034 -0.0094
  653loPI   C2B10446   8.587  14.058  10.143 -0.2965  0.1382  0.1601
  653loPI   C3B10447   8.630  14.143   9.705  0.3212  0.0703  0.0602
  653loPI   C4B10448   8.602  14.075   9.284 -0.0282 -0.1960 -0.0525
  654loPI    C110449   6.096  10.692  11.647  0.4669  0.0193  0.1464
  654loPI    C210450   6.092  10.437  11.955  0.2695 -0.1231  0.0289
  654loPI    C310451   5.972  10.815  12.007 -0.0673 -0.2308  0.0590
  654loPI   PO410452   5.988  10.535  11.346  0.2191 -0.0528  0.0488
  654loPI   GL110453   5.915  10.326  10.940 -0.0261  0.0786  0.2171
  654loPI   GL210454   6.151  10.586  10.890  0.2545  0.2788 -0.4272
  654loPI   C1A10455   5.763  10.082  10.570 -0.2905 -0.0205 -0.1371
  654loPI   C2A10456   5.808  10.055  10.165 -0.0354  0.3422  0.0094
  654loPI   C3A10457   5.780   9.963   9.734  0.1815 -0.4135 -0.0351
  654loPI   C4A10458   5.747  10.064   9.246 -0.1853  0.2148  0.1076
  654loPI   C5A10459   5.697  10.201   8.865 -0.0322  0.0129  0.3197
  654loPI   C6A10460   5.574  10.509   8.604 -0.0407 -0.1331 -0.2504
  654loPI   C1B10461   6.095  10.531  10.486 -0.1329  0.0563  0.1692
  654loPI   C2B10462   6.072  10.433  10.026  0.0852  0.1724  0.2501
  654loPI   C3B10463   6.029  10.612   9.612  0.1731 -0.1880 -0.1305
  654loPI   C4B10464   6.023  10.549   9.205  0.0683 -0.2874 -0.1858
  655loPI    C110465   7.391  13.438  11.374 -0.2544  0.0038  0.2451
  655loPI    C210466   7.474  13.817  11.471 -0.0792  0.0357 -0.0174
  655loPI    C310467   7.455  13.537  11.756 -0.0825  0.2173  0.1633
  655loPI   PO410468   7.243  13.556  11.110 -0.1838 -0.0405 -0.1555
  655loPI   GL110469   7.390  13.671  10.702 -0.1505  0.0309  0.3422
  655loPI   GL210470   7.703  13.950  10.603  0.2763  0.5060  0.0056
  655loPI   C1A10471   7.428  13.563  10.311  0.0235 -0.0412 -0.1352
  655loPI   C2A10472   7.447  13.623   9.916 -0.2147  0.0217  0.1170
  655loPI   C3A10473   7.246  13.664   9.516  0.0737 -0.3859 -0.0653
  655loPI   C4A10474   7.282  13.645   9.092  0.0062  0.0199 -0.1180
  655loPI   C5A10475   7.202  13.332   8.753 -0.0048  0.0234 -0.3496
  655loPI   C6A10476   7.319  13.276   8.262 -0.0827  0.0003 -0.3013
  655loPI   C1B10477   7.636  14.087  10.226 -0.1102 -0.0346  0.0015
  655loPI   C2B10478   7.564  14.197   9.768 -0.0260  0.2498  0.0328
  655loPI   C3B10479   7.598  14.087   9.373 -0.0895  0.0179 -0.0238
  655loPI   C4B10480   7.600  14.044   8.891 -0.0564 -0.1541  0.1040
  656loPI    C110481   9.872  14.362  11.634 -0.1797  0.1004  0.1098
  656loPI    C210482  10.107  14.301  11.952 -0.1908  0.2599  0.1495
  656loPI    C310483   9.832  14.028  11.852  0.2331 -0.0921 -0.0970
  656loPI   PO410484  10.009  14.323  11.476  0.1539 -0.2161  0.1369
  656loPI   GL110485  10.101  14.239  11.135 -0.0670 -0.3403 -0.1113
  656loPI   GL210486   9.764  14.073  10.962  0.0976  0.0416 -0.0086
  656loPI   C1A10487  10.187  14.175  10.706  0.1055  0.0184  0.2395
  656loPI   C2A10488  10.211  14.067  10.323 -0.1773  0.0285 -0.3847
  656loPI   C3A10489  10.231  14.189   9.948  0.0817 -0.1657  0.0287
  656loPI   C4A10490  10.161  14.218   9.503 -0.3393  0.0639 -0.1226
  656loPI   C5A10491  10.155  14.053   9.091 -0.0600 -0.1686  0.0180
  656loPI   C6A10492  10.177  14.006   8.669 -0.1129 -0.1918  0.1136
  656loPI   C1B10493   9.736  14.102  10.492 -0.1011  0.1145  0.0401
  656loPI   C2B10494   9.703  14.109  10.008  0.1416 -0.0789 -0.3506
  656loPI   C3B10495   9.635  14.177   9.598  0.1835 -0.1417 -0.1101
  656loPI   C4B10496   9.568  14.196   9.156 -0.2893  0.0895  0.0261
  657loPI    C110497  12.684   0.422  11.241 -0.1419 -0.1079  0.0164
  657loPI    C210498  13.034   0.263  11.351  0.1259  0.2824 -0.2446
  657loPI    C310499  12.874   0.560  11.565 -0.2067 -0.0985  0.0508
  657loPI   PO410500  12.727   0.446  10.970  0.0362 -0.1542 -0.1743
  657loPI   GL110501  12.893   0.568  10.549 -0.1296  0.2037  0.1323
  657loPI   GL210502  12.877   0.195  10.436 -0.1322 -0.0970 -0.2854
  657loPI   C1A10503  13.153   0.728  10.262  0.5180 -0.1071  0.0510
  657loPI   C2A10504  13.197   0.647   9.803 -0.2712 -0.1987  0.0521
  657loPI   C3A10505  13.119   0.595   9.397 -0.1420 -0.0782  0.0813
  657loPI   C4A10506  13.152   0.627   8.968 -0.2662 -0.0337  0.2133
  657loPI   C5A10507  12.948   0.701   8.568  0.4494 -0.1459 -0.3711
  657loPI   C6A10508  12.513   0.622   8.385  0.1837 -0.2029 -0.1769
  657loPI   C1B10509  13.022   0.253  10.078 -0.2443  0.1329  0.2644
  657loPI   C2B10510  12.927   0.191   9.675  0.0263  0.2799 -0.0776
  657loPI   C3B10511  12.907   0.108   9.235 -0.0761  0.1782 -0.1649
  657loPI   C4B10512  12.864   0.294   8.808  0.2113 -0.8471 -0.3697
  658loPI    C110513  10.331  13.987  11.669  0.1905  0.1281 -0.0392
  658loPI    C210514  10.582  14.231  11.862  0.0452  0.1403  0.1374
  658loPI    C310515  10.457  13.895  12.038  0.1754 -0.0194 -0.0702
  658loPI   PO410516  10.457  14.007  11.438 -0.0156 -0.0038 -0.3189
  658loPI   GL110517  10.533  13.951  10.967  0.2595  0.0165  0.0659
  658loPI   GL210518  10.214  13.747  10.930 -0.1406  0.3860 -0.2583
  658loPI   C1A10519  10.637  14.095  10.659  0.1342 -0.0570  0.1069
  658loPI   C2A10520  10.710  14.126  10.227  0.0122  0.0574 -0.2546
  658loPI   C3A10521  10.690  14.105   9.769 -0.0238  0.0282 -0.2750
  658loPI   C4A10522  10.613  14.150   9.307  0.0722  0.1283  0.2861
  658loPI   C5A10523  10.607  13.998   8.905 -0.3746  0.0178  0.0211
  658loPI   C6A10524  10.654  13.828   8.531 -0.1502  0.0888 -0.1336
  658loPI   C1B10525   9.978  13.661  10.584  0.0021  0.0681 -0.0842
  658loPI   C2B10526   9.877  13.642  10.116  0.2469 -0.1763  0.0302
  658loPI   C3B10527   9.891  13.740   9.716  0.1968  0.2865  0.0284
  658loPI   C4B10528   9.957  13.731   9.394  0.1976 -0.1531  0.0255
  659loPI    C110529   7.886   3.492  11.249  0.0371  0.1781  0.0241
  659loPI    C210530   7.877   3.095  11.296 -0.1173  0.1739 -0.0353
  659loPI    C310531   8.225   3.280  11.227 -0.0245  0.0666  0.1367
  659loPI   PO410532   7.791   3.595  11.019 -0.0833  0.0269 -0.2896
  659loPI   GL110533   7.742   3.607  10.651 -0.0553 -0.0480  0.2504
  659loPI   GL210534   7.881   3.825  10.378  0.2131 -0.1038 -0.0072
  659loPI   C1A10535   7.376   3.548  10.363 -0.1244 -0.1390 -0.2276
  659loPI   C2A10536   7.359   3.800   9.954 -0.4905  0.0768 -0.1388
  659loPI   C3A10537   7.291   3.761   9.521 -0.3412  0.1851 -0.2337
  659loPI   C4A10538   7.385   3.816   9.069 -0.2136 -0.0320 -0.1106
  659loPI   C5A10539   7.506   3.849   8.578  0.0572  0.0282  0.3192
  659loPI   C6A10540   7.400   3.721   8.137 -0.2710 -0.0273 -0.1864
  659loPI   C1B10541   7.839   3.769   9.923 -0.2252 -0.1947  0.2274
  659loPI   C2B10542   7.864   3.836   9.548 -0.0513  0.1792  0.0114
  659loPI   C3B10543   7.862   3.816   9.148  0.2782 -0.1016 -0.0250
  659loPI   C4B10544   8.055   3.833   8.750 -0.0804 -0.1440 -0.1129
  660loPI    C110545  13.200  16.616  11.186 -0.1201  0.1485 -0.1634
  660loPI    C210546  13.390  16.963  11.125 -0.0163  0.1350  0.0706
  660loPI    C310547  13.229  16.884  11.482 -0.2767  0.0550 -0.0620
  660loPI   PO410548  13.056  16.620  10.936 -0.2013 -0.0013  0.1338
  660loPI   GL110549  12.832  16.548  10.534 -0.1941 -0.3394  0.1909
  660loPI   GL210550  12.544  16.401  10.554  0.0357  0.2428  0.0788
  660loPI   C1A10551  12.961  16.423  10.150  0.1261  0.1188 -0.2549
  660loPI   C2A10552  12.917  16.347   9.730 -0.2162 -0.0064  0.0660
  660loPI   C3A10553  12.990  16.295   9.337 -0.4670 -0.0224  0.0585
  660loPI   C4A10554  13.018  16.264   8.860 -0.0174  0.0856 -0.1408
  660loPI   C5A10555  12.792  16.353   8.532 -0.1867 -0.2571 -0.4501
  660loPI   C6A10556  12.517  16.566   8.278  0.0916 -0.1175  0.1466
  660loPI   C1B10557  12.394  16.342  10.168  0.1645 -0.1954 -0.0897
  660loPI   C2B10558  12.403  16.337   9.698  0.2202  0.0454  0.0726
  660loPI   C3B10559  12.406  16.282   9.289 -0.2174 -0.2522 -0.0296
  660loPI   C4B10560  12.504  16.271   8.903 -0.3140 -0.4783 -0.2762
  661loPI    C110561   2.284   9.010  11.859  0.0547 -0.0098  0.1085
  661loPI    C210562   2.438   9.031  12.228  0.1248  0.2149  0.0683
  661loPI    C310563   2.135   9.270  12.125 -0.1715 -0.1359  0.1067
  661loPI   PO410564   2.530   9.067  11.616 -0.2267  0.2191  0.2682
  661loPI   GL110565   2.620   9.040  11.132  0.1125  0.1868  0.1312
  661loPI   GL210566   2.832   8.882  11.150 -0.4214 -0.2175 -0.0026
  661loPI   C1A10567   2.570   9.180  10.727 -0.1221  0.1162  0.0179
  661loPI   C2A10568   2.661   9.078  10.305 -0.0300 -0.0143  0.0369
  661loPI   C3A10569   2.656   9.122   9.838 -0.2285 -0.0767 -0.1426
  661loPI   C4A10570   2.635   9.140   9.477  0.1156  0.1213  0.3104
  661loPI   C5A10571   2.653   9.109   9.119 -0.0595 -0.1752 -0.2226
  661loPI   C6A10572   2.738   9.173   8.745  0.1979 -0.0308 -0.1009
  661loPI   C1B10573   3.007   8.679  10.835  0.1043 -0.0266 -0.0199
  661loPI   C2B10574   2.936   8.645  10.373  0.1647 -0.0711  0.3831
  661loPI   C3B10575   2.890   8.677   9.852 -0.2027 -0.0270 -0.0029
  661loPI   C4B10576   2.924   8.744   9.414 -0.0972  0.0245 -0.0677
  662loPI    C110577   9.872   9.322  10.990  0.1507 -0.1354 -0.1819
  662loPI    C210578  10.117   9.195  11.280 -0.2620 -0.1909  0.1532
  662loPI    C310579   9.955   9.560  11.301 -0.1319 -0.1142 -0.1204
  662loPI   PO410580   9.710   9.125  10.944 -0.1483  0.1918 -0.0972
  662loPI   GL110581   9.513   9.151  10.642 -0.1380 -0.3773 -0.1975
  662loPI   GL210582   9.633   9.521  10.614  0.1169 -0.0169  0.4144
  662loPI   C1A10583   9.442   9.132  10.206  0.2622  0.0675  0.1273
  662loPI   C2A10584   9.320   9.132   9.850 -0.0414  0.0571 -0.4306
  662loPI   C3A10585   9.293   9.118   9.330  0.0983  0.0168 -0.1331
  662loPI   C4A10586   9.361   9.247   8.955  0.0925  0.0957 -0.0682
  662loPI   C5A10587   9.469   9.385   8.517 -0.1825  0.0528 -0.1439
  662loPI   C6A10588   9.294   9.474   8.135 -0.2203  0.1895 -0.2930
  662loPI   C1B10589   9.652   9.583  10.173 -0.0506  0.0994  0.1404
  662loPI   C2B10590   9.629   9.674   9.664 -0.0490  0.1685 -0.1427
  662loPI   C3B10591   9.624   9.673   9.222  0.4360  0.2179 -0.1876
  662loPI   C4B10592   9.645   9.696   8.850 -0.2769  0.1388  0.1613
  663loPI    C110593  12.465   7.363  11.099 -0.1815  0.2075  0.1162
  663loPI    C210594  12.542   7.110  11.399 -0.0272 -0.0001 -0.0948
  663loPI    C310595  12.437   7.487  11.478  0.1554 -0.0108  0.2178
  663loPI   PO410596  12.375   7.219  10.893 -0.0066  0.3516 -0.1378
  663loPI   GL110597  12.720   7.058  10.508 -0.4340  0.0883 -0.1002
  663loPI   GL210598  12.387   6.933  10.482  0.2778  0.0798 -0.0874
  663loPI   C1A10599  12.733   6.946  10.031  0.0795  0.0544  0.0230
  663loPI   C2A10600  13.102   6.840   9.755  0.0317  0.0964  0.2312
  663loPI   C3A10601  13.195   6.830   9.300  0.0697  0.1393 -0.0516
  663loPI   C4A10602  13.014   6.863   8.887  0.1829 -0.1350  0.0786
  663loPI   C5A10603  13.131   6.789   8.478  0.2994  0.0965  0.1787
  663loPI   C6A10604  13.309   6.410   8.193  0.0225 -0.3974 -0.0481
  663loPI   C1B10605  12.522   7.428  10.286 -0.2551  0.0850 -0.3544
  663loPI   C2B10606  12.947   7.508  10.113  0.1310 -0.1737 -0.0143
  663loPI   C3B10607  13.141   7.851   9.945 -0.1495 -0.0647  0.1281
  663loPI   C4B10608  13.154   7.881   9.519  0.2799 -0.1791 -0.1777
  664loPI    C110609   1.746   1.881  11.439  0.0589  0.0942  0.2590
  664loPI    C210610   1.459   2.159  11.440  0.1896  0.2307  0.1708
  664loPI    C310611   1.446   1.857  11.702 -0.1813  0.0831 -0.0115
  664loPI   PO410612   1.863   1.885  11.240  0.0204 -0.1297  0.0504
  664loPI   GL110613   1.702   1.713  10.905  0.0842 -0.1407  0.2852
  664loPI   GL210614   1.743   1.428  10.781 -0.2522  0.1800  0.1019
  664loPI   C1A10615   1.661   1.813  10.439  0.0025 -0.0773 -0.0848
  664loPI   C2A10616   1.680   1.847   9.957  0.0890  0.3141 -0.1216
  664loPI   C3A10617   1.679   1.918   9.439  0.0886  0.2016 -0.0718
  664loPI   C4A10618   1.656   1.973   9.012  0.0804  0.2209  0.1436
  664loPI   C5A10619   1.599   2.192   8.622  0.1167 -0.0227  0.3119
  664loPI   C6A10620   1.723   2.149   8.161  0.3314 -0.0725 -0.0277
  664loPI   C1B10621   1.838   1.341  10.305 -0.1582  0.0238 -0.0634
  664loPI   C2B10622   1.864   1.377   9.902 -0.1588  0.2049  0.1798
  664loPI   C3B10623   1.959   1.396   9.545 -0.1667  0.2484  0.0649
  664loPI   C4B10624   1.993   1.519   9.100  0.0153 -0.3312 -0.0007
  665loPI    C110625   2.083  10.816  11.363 -0.0164  0.4426  0.2264
  665loPI    C210626   2.321  10.809  11.684  0.1055 -0.2783  0.1374
  665loPI    C310627   1.927  10.756  11.726  0.1013 -0.2158  0.1798
  665loPI   PO410628   2.220  10.736  11.200 -0.1430 -0.1632  0.3370
  665loPI   GL110629   2.291  10.939  10.818 -0.5125  0.0418  0.1047
  665loPI   GL210630   2.686  10.943  10.847 -0.1329 -0.1780 -0.2837
  665loPI   C1A10631   2.259  10.912  10.372  0.3379  0.0066  0.0512
  665loPI   C2A10632   2.166  11.002   9.973  0.1527  0.1214 -0.0158
  665loPI   C3A10633   2.082  10.978   9.502  0.0290  0.2712  0.0640
  665loPI   C4A10634   2.227  11.027   9.024 -0.1845  0.1522  0.0009
  665loPI   C5A10635   2.127  11.201   8.605  0.4718  0.3396  0.0400
  665loPI   C6A10636   1.933  11.292   8.241 -0.1304 -0.0828 -0.3713
  665loPI   C1B10637   2.733  10.904  10.389 -0.0586 -0.1790  0.0166
  665loPI   C2B10638   2.687  10.860   9.973 -0.2101  0.1947  0.2488
  665loPI   C3B10639   2.580  10.950   9.588 -0.2273 -0.1933 -0.0096
  665loPI   C4B10640   2.697  11.040   9.151 -0.2237 -0.2181 -0.0439
  666loPI    C110641  11.343  16.017  10.957  0.3364  0.2760 -0.3197
  666loPI    C210642  11.095  16.262  10.761 -0.0737  0.1857  0.0706
  666loPI    C310643  11.192  16.339  11.142 -0.2518 -0.2799  0.2169
  666loPI   PO410644  11.570  15.967  10.738  0.2147 -0.1762 -0.1944
  666loPI   GL110645  11.626  15.945  10.280  0.1532  0.0577 -0.0912
  666loPI   GL210646  11.466  16.291  10.294 -0.1763  0.0253  0.4408
  666loPI   C1A10647  11.705  15.905   9.922 -0.0221 -0.1614 -0.0467
  666loPI   C2A10648  11.712  15.953   9.398 -0.4095  0.1314  0.1452
  666loPI   C3A10649  11.674  15.823   9.009  0.2760  0.0824 -0.0300
  666loPI   C4A10650  11.725  15.870   8.664 -0.0607  0.0435  0.4110
  666loPI   C5A10651  11.562  16.109   8.330  0.0465 -0.3094 -0.3747
  666loPI   C6A10652  11.236  16.451   8.216  0.2020 -0.1645  0.2879
  666loPI   C1B10653  11.381  16.295   9.819 -0.0440 -0.0990 -0.0881
  666loPI   C2B10654  11.435  16.379   9.443  0.2099 -0.2505 -0.0809
  666loPI   C3B10655  11.436  16.385   8.946  0.0162  0.0785 -0.2811
  666loPI   C4B10656  11.491  16.534   8.621  0.2072  0.4752  0.3009
  667loPI    C110657  16.959   0.047  11.377 -0.2694  0.3800 -0.2188
  667loPI    C210658  16.563   0.008  11.336 -0.2524 -0.1081  0.0117
  667loPI    C310659  16.717   0.126  11.686 -0.1928  0.1129 -0.0874
  667loPI   PO410660  17.009  -0.017  11.085  0.0167  0.0552 -0.0143
  667loPI   GL110661  16.990   0.238  10.724  0.1037  0.0862 -0.1393
  667loPI   GL210662  16.697   0.563  10.691  0.0509 -0.2484 -0.5521
  667loPI   C1A10663  16.981   0.171  10.257 -0.0267  0.0519  0.4582
  667loPI   C2A10664  17.015   0.192   9.835  0.1072 -0.2707 -0.1042
  667loPI   C3A10665  17.046   0.154   9.339  0.1432 -0.0915 -0.1661
  667loPI   C4A10666  17.019   0.166   8.829 -0.0065  0.1524 -0.0684
  667loPI   C5A10667  17.120  -0.070   8.494 -0.1857 -0.1553 -0.1577
  667loPI   C6A10668  17.180  -0.287   8.122  0.1703  0.1389  0.0240
  667loPI   C1B10669  16.743   0.619  10.278  0.1503  0.2994  0.2131
  667loPI   C2B10670  16.791   0.597   9.878  0.0355 -0.2662 -0.0408
  667loPI   C3B10671  16.759   0.636   9.458 -0.2036 -0.1552 -0.1113
  667loPI   C4B10672  16.781   0.560   8.973  0.0224 -0.1968 -0.0991
  668loPI    C110673   2.712  13.631  11.228 -0.0219 -0.0302  0.2248
  668loPI    C210674   3.031  13.573  11.461 -0.0373  0.0277  0.2605
  668loPI    C310675   2.840  13.925  11.467 -0.0766  0.0073  0.2084
  668loPI   PO410676   2.732  13.541  11.002 -0.1253 -0.1648 -0.3076
  668loPI   GL110677   2.634  13.452  10.667 -0.1503 -0.1362 -0.2845
  668loPI   GL210678   2.482  13.152  10.677  0.1755  0.1046 -0.1890
  668loPI   C1A10679   2.266  13.570  10.408 -0.0040  0.0590  0.0397
  668loPI   C2A10680   2.157  13.645   9.997 -0.0261  0.1544 -0.1293
  668loPI   C3A10681   2.113  13.671   9.530 -0.0225  0.1695 -0.1977
  668loPI   C4A10682   2.203  13.603   9.181  0.1238 -0.2963 -0.0776
  668loPI   C5A10683   2.281  13.668   8.722  0.2484 -0.1389  0.0506
  668loPI   C6A10684   2.592  13.804   8.511  0.2094 -0.0827 -0.2403
  668loPI   C1B10685   2.499  13.143  10.229  0.2878 -0.0038  0.2582
  668loPI   C2B10686   2.370  13.236   9.818  0.1186 -0.0256 -0.1361
  668loPI   C3B10687   2.401  13.169   9.399  0.1961  0.0053  0.0118
  668loPI   C4B10688   2.338  13.183   8.891  0.3163 -0.1263  0.1030
  669loPI    C110689   4.395   2.891  11.345  0.0127  0.0099  0.2571
  669loPI    C210690   4.338   3.287  11.349  0.1483  0.0304  0.1967
  669loPI    C310691   4.339   3.082  11.692 -0.0565  0.0622  0.2174
  669loPI   PO410692   4.599   2.839  11.220 -0.2432 -0.1576 -0.3962
  669loPI   GL110693   4.765   3.000  10.788 -0.2109  0.2854 -0.0319
  669loPI   GL210694   4.485   3.298  10.749 -0.0973 -0.4189  0.1526
  669loPI   C1A10695   4.848   2.866  10.482 -0.1015  0.6102  0.1618
  669loPI   C2A10696   4.729   2.841  10.036 -0.0181  0.2284  0.0804
  669loPI   C3A10697   4.802   2.897   9.585 -0.4240 -0.0283 -0.1053
  669loPI   C4A10698   4.803   2.859   9.193 -0.0651  0.0578 -0.1170
  669loPI   C5A10699   4.755   2.803   8.806 -0.2754 -0.0763 -0.1624
  669loPI   C6A10700   5.178   2.964   8.548 -0.1978 -0.1146 -0.0535
  669loPI   C1B10701   4.603   3.310  10.276 -0.4500  0.1610  0.0772
  669loPI   C2B10702   4.571   3.269   9.855  0.0154  0.4506  0.1177
  669loPI   C3B10703   4.519   3.382   9.473  0.0236  0.1192 -0.2035
  669loPI   C4B10704   4.546   3.320   9.095 -0.1886 -0.1453 -0.1282
  670loPI    C110705   3.746   0.708  11.412 -0.1331 -0.0616  0.2296
  670loPI    C210706   3.625   1.081  11.491 -0.0577 -0.0323  0.2077
  670loPI    C310707   3.911   0.912  11.713  0.2122  0.0794 -0.0477
  670loPI   PO410708   3.710   0.702  11.099  0.4834  0.0885 -0.1632
  670loPI   GL110709   3.406   0.699  10.756  0.3505 -0.0953  0.0056
  670loPI   GL210710   3.089   0.810  10.785 -0.2752  0.1026 -0.2442
  670loPI   C1A10711   3.368   0.504  10.354 -0.3347 -0.2208 -0.0088
  670loPI   C2A10712   3.460   0.567   9.960  0.3135 -0.0704  0.0337
  670loPI   C3A10713   3.502   0.636   9.546 -0.3511  0.1437  0.1297
  670loPI   C4A10714   3.591   0.624   9.044  0.2226 -0.0034  0.4369
  670loPI   C5A10715   3.548   0.703   8.649 -0.0622  0.3988  0.0864
  670loPI   C6A10716   3.156   0.666   8.448 -0.0911 -0.0416 -0.0455
  670loPI   C1B10717   3.120   1.028  10.477  0.5137  0.1257 -0.1402
  670loPI   C2B10718   3.193   1.035  10.113  0.2285  0.0170 -0.0436
  670loPI   C3B10719   3.187   1.069   9.767 -0.2977  0.1231 -0.4132
  670loPI   C4B10720   3.257   0.964   9.277 -0.1882  0.3422  0.1894
  671loPI    C110721  16.762  13.501  11.634  0.1071 -0.0042  0.1382
  671loPI    C210722  16.499  13.354  11.897 -0.0206 -0.0186  0.0036
  671loPI    C310723  16.661  13.715  11.956  0.0319 -0.0666  0.1562
  671loPI   PO410724  16.701  13.310  11.457 -0.1656 -0.2201  0.0405
  671loPI   GL110725  16.742  13.322  11.025  0.0752  0.2433  0.1407
  671loPI   GL210726  16.622  13.582  11.046  0.1378 -0.2397  0.1841
  671loPI   C1A10727  16.471  13.222  10.757  0.1142  0.0085  0.0351
  671loPI   C2A10728  16.208  13.289  10.429 -0.3447 -0.1485  0.0183
  671loPI   C3A10729  16.297  13.165   9.980 -0.0602 -0.1617  0.0917
  671loPI   C4A10730  16.234  13.154   9.529  0.1437  0.1975  0.2518
  671loPI   C5A10731  16.286  13.143   9.113  0.0808  0.0568  0.1379
  671loPI   C6A10732  16.457  13.518   8.849  0.1063  0.0573 -0.2594
  671loPI   C1B10733  16.439  13.692  10.685 -0.3960  0.0220 -0.1550
  671loPI   C2B10734  16.562  13.622  10.201  0.1846  0.1327 -0.3249
  671loPI   C3B10735  16.521  13.605   9.866 -0.1139 -0.1543  0.1500
  671loPI   C4B10736  16.463  13.539   9.324 -0.0144 -0.0290 -0.0381
  672loPI    C110737   0.683   6.332  11.734 -0.0417 -0.0390  0.1724
  672loPI    C210738   0.860   6.574  11.999 -0.0591  0.0187  0.1314
  672loPI    C310739   0.658   6.253  12.126  0.2761 -0.1839  0.1672
  672loPI   PO410740   0.850   6.371  11.520  0.0076 -0.0286  0.2643
  672loPI   GL110741   1.109   6.335  11.152 -0.0200 -0.0465 -0.1472
  672loPI   GL210742   1.394   6.484  11.249  0.1147  0.0378 -0.3655
  672loPI   C1A10743   1.136   6.482  10.691 -0.0208  0.1711 -0.0969
  672loPI   C2A10744   1.123   6.456  10.278 -0.0471 -0.1389 -0.0122
  672loPI   C3A10745   1.220   6.431   9.829 -0.2016 -0.1695  0.1122
  672loPI   C4A10746   1.163   6.455   9.453  0.0222 -0.1737 -0.0310
  672loPI   C5A10747   1.462   6.468   9.073  0.0771  0.0418 -0.2439
  672loPI   C6A10748   1.759   6.175   8.818  0.3249 -0.0953  0.1298
  672loPI   C1B10749   1.598   6.451  10.907  0.0416 -0.1429  0.3463
  672loPI   C2B10750   1.603   6.380  10.491  0.5744  0.2251 -0.0196
  672loPI   C3B10751   1.676   6.370  10.037  0.1428  0.0798  0.0305
  672loPI   C4B10752   1.626   6.364   9.589 -0.3336 -0.3130  0.1861
  673loPI    C110753  17.007  15.971  11.708 -0.1295 -0.1998  0.0784
  673loPI    C210754  17.378  16.095  11.789 -0.1887  0.0411 -0.0105
  673loPI    C310755  17.103  16.088  12.079 -0.1913  0.1413 -0.0103
  673loPI   PO410756  16.955  16.106  11.492 -0.0038  0.2877  0.2117
  673loPI   GL110757  16.997  15.901  11.152 -0.3040  0.1667 -0.0574
  673loPI   GL210758  17.268  15.850  10.932  0.2011  0.1052 -0.1747
  673loPI   C1A10759  16.818  15.804  10.694 -0.1112  0.1308  0.1030
  673loPI   C2A10760  16.830  15.850  10.272  0.3200 -0.2997 -0.1930
  673loPI   C3A10761  16.803  15.932   9.821  0.4058 -0.2856  0.0957
  673loPI   C4A10762  16.937  15.907   9.379 -0.2604  0.0913 -0.2734
  673loPI   C5A10763  16.713  15.990   9.095 -0.3347 -0.0299  0.1719
  673loPI   C6A10764  16.888  16.096   8.725 -0.1008 -0.1357 -0.0560
  673loPI   C1B10765  17.307  15.824  10.411  0.1283 -0.2872 -0.1512
  673loPI   C2B10766  17.298  15.850   9.883 -0.0030 -0.1169  0.2347
  673loPI   C3B10767  17.421  15.862   9.513 -0.1987 -0.0607  0.2161
  673loPI   C4B10768  17.316  15.986   9.045 -0.2157  0.0787  0.1324
  674loPI    C110769   4.915  17.083  11.430  0.1054  0.0464 -0.0692
  674loPI    C210770   5.294  17.096  11.558 -0.0118 -0.0908  0.3052
  674loPI    C310771   5.003  16.979  11.806 -0.3300  0.2081  0.0833
  674loPI   PO410772   4.983  16.937  11.171  0.1915  0.2562  0.2269
  674loPI   GL110773   5.138  17.001  10.882  0.2067 -0.0831  0.0011
  674loPI   GL210774   5.147  17.299  10.722  0.0862  0.2289  0.2599
  674loPI   C1A10775   5.160  16.769  10.462 -0.0392 -0.2030  0.1565
  674loPI   C2A10776   5.040  16.818  10.016 -0.2459  0.1992  0.0536
  674loPI   C3A10777   4.974  16.795   9.545 -0.0453  0.1112 -0.2227
  674loPI   C4A10778   5.048  16.844   9.117 -0.1621  0.0612  0.1294
  674loPI   C5A10779   4.842  17.079   8.765 -0.0554 -0.3347  0.0404
  674loPI   C6A10780   4.951  17.146   8.322 -0.3537  0.2421  0.0788
  674loPI   C1B10781   4.994  17.214  10.424  0.2628 -0.2930  0.1073
  674loPI   C2B10782   4.685  17.203  10.108 -0.1275 -0.4269 -0.5647
  674loPI   C3B10783   4.686  17.233   9.655 -0.1035 -0.1595  0.0662
  674loPI   C4B10784   4.697  17.278   9.249  0.0481 -0.0366  0.2419
  675loPI    C110785   1.289   8.185  11.301 -0.0481  0.2267  0.3425
  675loPI    C210786   1.225   7.798  11.379 -0.2377  0.2222  0.1740
  675loPI    C310787   1.554   7.910  11.180 -0.2018  0.1440  0.1886
  675loPI   PO410788   1.088   8.250  11.157 -0.0076 -0.0261  0.0071
  675loPI   GL110789   1.012   8.259  10.754  0.0936  0.0612 -0.1542
  675loPI   GL210790   0.625   8.197  10.895 -0.2040  0.4701  0.0707
  675loPI   C1A10791   1.091   8.284  10.417 -0.1324  0.2151  0.1225
  675loPI   C2A10792   1.185   8.262  10.004 -0.5699 -0.0749 -0.0217
  675loPI   C3A10793   1.098   8.238   9.584  0.0046 -0.3105  0.1388
  675loPI   C4A10794   1.122   8.310   9.095  0.1246  0.0218 -0.4783
  675loPI   C5A10795   1.265   8.183   8.742  0.1102 -0.0669  0.0797
  675loPI   C6A10796   1.555   8.444   8.530 -0.0693  0.2093  0.2732
  675loPI   C1B10797   0.529   8.312  10.497 -0.0256  0.0365  0.2053
  675loPI   C2B10798   0.641   8.288  10.081  0.3169  0.0901  0.1440
  675loPI   C3B10799   0.540   8.221   9.665  0.1394 -0.1974 -0.0199
  675loPI   C4B10800   0.656   8.236   9.244 -0.1108 -0.2315  0.1271
  676loPI    C110801  14.214  16.416  11.770 -0.0184 -0.0363  0.4104
  676loPI    C210802  14.290  16.044  11.643 -0.0840  0.0284  0.1756
  676loPI    C310803  14.528  16.216  11.916  0.1972 -0.0305 -0.0274
  676loPI   PO410804  14.178  16.516  11.495  0.3933  0.3042 -0.2155
  676loPI   GL110805  14.267  16.263  11.058 -0.0808  0.0793 -0.2465
  676loPI   GL210806  14.190  16.578  11.003 -0.0491 -0.2286  0.1854
  676loPI   C1A10807  14.537  16.424  10.708 -0.0070  0.4527 -0.4629
  676loPI   C2A10808  14.518  16.424  10.319  0.1450 -0.3570 -0.0790
  676loPI   C3A10809  14.567  16.370   9.768  0.1208  0.1431 -0.1302
  676loPI   C4A10810  14.546  16.331   9.342  0.3040  0.0564 -0.1757
  676loPI   C5A10811  14.479  16.310   8.948 -0.2280  0.0599 -0.2151
  676loPI   C6A10812  14.563  16.301   8.525  0.0017  0.0208  0.1608
  676loPI   C1B10813  14.067  16.508  10.588  0.1866  0.0628 -0.1248
  676loPI   C2B10814  14.049  16.459  10.090 -0.4129 -0.1106  0.1486
  676loPI   C3B10815  13.972  16.323   9.707  0.2392  0.1181 -0.2157
  676loPI   C4B10816  14.036  16.344   9.327  0.1776 -0.0593 -0.1182
  677loPI    C110817   1.310   5.571   5.685  0.0287 -0.1785  0.2331
  677loPI    C210818   1.069   5.740   5.414  0.1084 -0.2297  0.1292
  677loPI    C310819   1.348   5.479   5.297  0.1689 -0.2229  0.2568
  677loPI   PO410820   1.216   5.463   5.807 -0.0064  0.2822  0.0578
  677loPI   GL110821   1.197   5.415   6.216  0.0208  0.1240 -0.0325
  677loPI   GL210822   1.557   5.515   6.264 -0.0063 -0.0129 -0.0972
  677loPI   C1A10823   1.233   5.330   6.647  0.0591 -0.1739 -0.3126
  677loPI   C2A10824   1.292   5.356   7.164  0.0975 -0.1365 -0.1296
  677loPI   C3A10825   1.210   5.369   7.575  0.1309 -0.1093 -0.1631
  677loPI   C4A10826   1.137   5.254   7.905  0.2846  0.4269 -0.1718
  677loPI   C5A10827   1.203   5.295   8.296 -0.0377 -0.0934 -0.3821
  677loPI   C6A10828   1.082   5.596   8.666  0.2567  0.4038 -0.1803
  677loPI   C1B10829   1.733   5.696   6.613 -0.2999 -0.1729  0.1201
  677loPI   C2B10830   1.693   5.715   7.112 -0.0271  0.2036  0.2418
  677loPI   C3B10831   1.672   5.677   7.574 -0.1752 -0.1310 -0.2574
  677loPI   C4B10832   1.637   5.773   8.044  0.2871 -0.0036  0.1531
  678loPI    C110833   3.931   4.857   5.340  0.0195  0.0231  0.1207
  678loPI    C210834   4.306   4.921   5.214  0.0288  0.0941  0.1836
  678loPI    C310835   4.035   4.765   4.965  0.1042  0.0280  0.1425
  678loPI   PO410836   3.891   4.725   5.596 -0.1359 -0.3398  0.1606
  678loPI   GL110837   3.653   4.761   6.036 -0.0332  0.0224 -0.1307
  678loPI   GL210838   3.335   4.996   6.058  0.1437  0.1716  0.0064
  678loPI   C1A10839   3.596   4.834   6.464  0.0425 -0.3031 -0.3056
  678loPI   C2A10840   3.541   4.840   6.934 -0.3189 -0.2584 -0.0664
  678loPI   C3A10841   3.638   4.852   7.369  0.4648 -0.0018  0.1368
  678loPI   C4A10842   3.622   4.827   7.724 -0.1687  0.4031 -0.2234
  678loPI   C5A10843   3.444   4.722   8.208  0.1106  0.0999  0.3520
  678loPI   C6A10844   3.068   4.750   8.456 -0.0172 -0.1511  0.2672
  678loPI   C1B10845   3.144   5.003   6.454  0.2114  0.0067  0.1196
  678loPI   C2B10846   3.075   5.049   6.901 -0.0932  0.2124 -0.1657
  678loPI   C3B10847   3.046   5.034   7.291 -0.2209 -0.1301  0.0491
  678loPI   C4B10848   3.125   4.888   7.649 -0.2452  0.3061  0.0329
  679loPI    C110849   3.091   2.873   5.481  0.1574  0.1500 -0.0341
  679loPI    C210850   3.335   2.672   5.236  0.1601  0.2137 -0.0839
  679loPI    C310851   2.960   2.751   5.124  0.0853  0.0316  0.0318
  679loPI   PO410852   3.144   2.772   5.736 -0.1403 -0.1034  0.2030
  679loPI   GL110853   3.323   2.958   6.052 -0.0389  0.0163  0.3153
  679loPI   GL210854   3.610   3.285   6.031 -0.1923 -0.1319  0.0052
  679loPI   C1A10855   3.321   2.994   6.427 -0.4118  0.1659  0.3211
  679loPI   C2A10856   3.410   3.025   6.945  0.1191 -0.0837 -0.1470
  679loPI   C3A10857   3.408   3.026   7.372  0.1534  0.2642 -0.3573
  679loPI   C4A10858   3.377   2.970   7.759 -0.0019  0.3518 -0.2020
  679loPI   C5A10859   3.165   2.964   8.144 -0.3587  0.0515 -0.1627
  679loPI   C6A10860   3.161   3.282   8.458  0.0538  0.0917 -0.2947
  679loPI   C1B10861   3.711   3.360   6.366 -0.0456  0.0344  0.0642
  679loPI   C2B10862   3.778   3.383   6.763 -0.3778 -0.2822  0.1107
  679loPI   C3B10863   3.846   3.296   7.101 -0.3111 -0.1145 -0.4472
  679loPI   C4B10864   3.788   3.246   7.591  0.3267 -0.3267 -0.4323
  680loPI    C110865   6.864  14.259   5.293 -0.0038 -0.0964 -0.0162
  680loPI    C210866   6.571  14.005   5.195  0.1261 -0.2315 -0.0589
  680loPI    C310867   6.937  13.956   5.042  0.2010 -0.1344  0.0872
  680loPI   PO410868   6.958  14.311   5.604 -0.1987 -0.0368  0.1372
  680loPI   GL110869   7.161  14.343   5.988  0.4588  0.4187 -0.2844
  680loPI   GL210870   7.027  14.530   6.145 -0.0816  0.0641  0.1914
  680loPI   C1A10871   7.386  14.324   6.357  0.1793  0.1724  0.0304
  680loPI   C2A10872   7.515  14.331   6.735 -0.0019 -0.2295  0.0202
  680loPI   C3A10873   7.531  14.394   7.194  0.1434  0.0498  0.1704
  680loPI   C4A10874   7.558  14.515   7.680  0.1917 -0.3133 -0.2616
  680loPI   C5A10875   7.552  14.543   8.170  0.0416 -0.2269  0.1567
  680loPI   C6A10876   7.172  14.280   8.325 -0.1992  0.0221 -0.1286
  680loPI   C1B10877   7.005  14.585   6.567 -0.0445  0.3276 -0.0545
  680loPI   C2B10878   7.005  14.677   7.067  0.3696  0.0099  0.1603
  680loPI   C3B10879   7.052  14.663   7.559 -0.1106  0.0358 -0.1825
  680loPI   C4B10880   7.085  14.724   8.011  0.0072  0.0965  0.0785
  681loPI    C110881  13.628  11.652   5.630  0.3106 -0.1592  0.1075
  681loPI    C210882  13.543  11.689   5.241 -0.0185 -0.0102  0.1898
  681loPI    C310883  13.683  12.003   5.446 -0.0526 -0.0280  0.2403
  681loPI   PO410884  13.675  11.370   5.684  0.1466 -0.0098  0.1947
  681loPI   GL110885  13.786  11.399   6.110  0.1180 -0.0177  0.2401
  681loPI   GL210886  14.131  11.544   5.900  0.1928  0.0088 -0.0137
  681loPI   C1A10887  13.809  11.401   6.599 -0.2498 -0.0013 -0.0128
  681loPI   C2A10888  13.813  11.355   7.024 -0.1953 -0.1836 -0.1466
  681loPI   C3A10889  13.743  11.574   7.424 -0.1182  0.1926  0.2958
  681loPI   C4A10890  13.828  11.680   7.880 -0.1604  0.0481  0.2506
  681loPI   C5A10891  14.178  11.864   8.075  0.2964 -0.0838 -0.1924
  681loPI   C6A10892  14.350  11.633   8.399  0.0386 -0.2831 -0.2073
  681loPI   C1B10893  14.253  11.686   6.332 -0.2957 -0.0594 -0.0031
  681loPI   C2B10894  14.266  11.709   6.702 -0.0528 -0.0635  0.2822
  681loPI   C3B10895  14.216  11.725   7.106  0.2324 -0.3011  0.4626
  681loPI   C4B10896  14.278  11.792   7.561  0.1674  0.2538 -0.1018
  682loPI    C110897   1.762   0.987   4.927  0.2322 -0.2204 -0.1559
  682loPI    C210898   1.536   1.085   4.612 -0.1183  0.3186  0.2437
  682loPI    C310899   1.931   1.144   4.601 -0.0840  0.0505 -0.1954
  682loPI   PO410900   1.591   1.122   5.130  0.0851 -0.0827 -0.0909
  682loPI   GL110901   1.600   1.141   5.635  0.1107  0.0244 -0.0795
  682loPI   GL210902   1.742   1.401   5.833  0.1125  0.2059  0.1718
  682loPI   C1A10903   1.337   1.009   5.984 -0.0696  0.1827  0.2072
  682loPI   C2A10904   1.399   0.943   6.420  0.0102 -0.0663  0.0910
  682loPI   C3A10905   1.309   0.941   6.919  0.0053  0.1639 -0.1364
  682loPI   C4A10906   1.464   0.846   7.366 -0.1927  0.3186 -0.1638
  682loPI   C5A10907   1.383   0.715   7.943 -0.0887 -0.2665 -0.1458
  682loPI   C6A10908   1.522   0.725   8.386  0.1108 -0.0086  0.1608
  682loPI   C1B10909   1.803   1.253   6.143  0.1250  0.2916  0.1709
  682loPI   C2B10910   1.767   1.256   6.557  0.0441 -0.0167  0.3945
  682loPI   C3B10911   1.780   1.197   7.034  0.3276  0.1399 -0.4481
  682loPI   C4B10912   1.880   1.213   7.478  0.0584  0.0582  0.1556
  683loPI    C110913  10.666  13.174   5.572  0.1419 -0.1305 -0.1397
  683loPI    C210914  10.462  13.430   5.343 -0.1559 -0.1377  0.1119
  683loPI    C310915  10.522  13.055   5.219 -0.1024 -0.0725 -0.0616
  683loPI   PO410916  10.561  13.176   5.784  0.3785  0.0979 -0.0613
  683loPI   GL110917  10.747  12.943   6.030  0.0462  0.1849  0.0818
  683loPI   GL210918  10.765  12.644   6.040  0.1009 -0.0467 -0.5082
  683loPI   C1A10919  10.783  13.076   6.501 -0.1398 -0.0472 -0.1274
  683loPI   C2A10920  10.791  13.075   6.970 -0.2310 -0.1052 -0.1976
  683loPI   C3A10921  10.878  13.112   7.431 -0.0495 -0.1010  0.0982
  683loPI   C4A10922  10.903  13.074   7.944  0.2474  0.0449 -0.0485
  683loPI   C5A10923  10.946  12.841   8.358  0.0097  0.0636 -0.1502
  683loPI   C6A10924  11.144  12.797   8.726  0.2501  0.0375 -0.3411
  683loPI   C1B10925  10.949  12.581   6.507  0.1095 -0.2337  0.0250
  683loPI   C2B10926  10.909  12.614   6.938  0.0251 -0.1833 -0.3505
  683loPI   C3B10927  10.883  12.563   7.329  0.0968  0.1873  0.1594
  683loPI   C4B10928  10.854  12.625   7.748  0.1361  0.0791 -0.2562
  684loPI    C110929  17.258  12.194   5.455 -0.0646  0.0666  0.0301
  684loPI    C210930  17.410  12.556   5.528  0.1529  0.0201 -0.1797
  684loPI    C310931  17.093  12.517   5.288  0.0639  0.0797 -0.0729
  684loPI   PO410932  17.134  12.113   5.627 -0.2736  0.0251 -0.2792
  684loPI   GL110933  17.267  12.251   5.968 -0.1932 -0.0885  0.0856
  684loPI   GL210934  16.945  12.136   6.138 -0.2045 -0.3715  0.0876
  684loPI   C1A10935  17.232  12.470   6.386  0.2196 -0.0615  0.3722
  684loPI   C2A10936  17.268  12.443   6.820 -0.1124  0.2902 -0.1557
  684loPI   C3A10937  17.248  12.412   7.246 -0.1658  0.0880 -0.1715
  684loPI   C4A10938  17.286  12.489   7.648  0.1544  0.0669 -0.2722
  684loPI   C5A10939  17.151  12.470   8.026 -0.2671  0.4633 -0.4132
  684loPI   C6A10940  17.008  12.670   8.398 -0.2391 -0.1564  0.0923
  684loPI   C1B10941  16.866  12.140   6.584  0.1436  0.4305  0.0891
  684loPI   C2B10942  16.839  12.073   6.972  0.0549  0.1378 -0.1724
  684loPI   C3B10943  16.858  12.130   7.371 -0.1114  0.3344  0.2012
  684loPI   C4B10944  16.944  12.133   7.760 -0.0318  0.0518 -0.0994
  685loPI    C110945   8.317   0.993   5.473 -0.1067 -0.1650  0.0125
  685loPI    C210946   8.458   1.031   5.101  0.1546 -0.1185  0.1139
  685loPI    C310947   8.173   0.762   5.180 -0.0827  0.0442 -0.1668
  685loPI   PO410948   8.543   1.033   5.599 -0.2551 -0.4213  0.2146
  685loPI   GL110949   8.659   0.808   5.977 -0.0092  0.1679  0.2128
  685loPI   GL210950   8.606   0.463   6.111 -0.0137 -0.0728 -0.0244
  685loPI   C1A10951   8.629   0.860   6.461  0.0485 -0.2645  0.1276
  685loPI   C2A10952   8.662   0.901   6.886 -0.1277  0.1398 -0.1532
  685loPI   C3A10953   8.711   0.833   7.371  0.1015  0.1239 -0.0911
  685loPI   C4A10954   8.771   0.998   7.737 -0.2571 -0.1360 -0.0781
  685loPI   C5A10955   8.733   1.324   8.080  0.1492  0.2434 -0.0168
  685loPI   C6A10956   9.031   1.420   8.413 -0.2750 -0.2723  0.3391
  685loPI   C1B10957   8.652   0.293   6.479 -0.0816  0.2752 -0.0309
  685loPI   C2B10958   8.725   0.250   6.936 -0.1222 -0.1701 -0.0503
  685loPI   C3B10959   8.778   0.387   7.226  0.1296 -0.1515 -0.1089
  685loPI   C4B10960   8.878   0.478   7.709 -0.1566 -0.0973  0.1465
  686loPI    C110961   2.660   3.057   5.388  0.2224 -0.0026 -0.1534
  686loPI    C210962   2.335   3.227   5.229  0.0247 -0.2055  0.0267
  686loPI    C310963   2.468   2.878   5.087  0.0598 -0.2095  0.0688
  686loPI   PO410964   2.836   3.301   5.545 -0.1309  0.2279 -0.1052
  686loPI   GL110965   2.907   3.249   5.991  0.2237  0.2009  0.0605
  686loPI   GL210966   3.173   3.497   6.112  0.1035  0.1924 -0.2018
  686loPI   C1A10967   2.830   3.120   6.384  0.1834 -0.1529 -0.2829
  686loPI   C2A10968   2.878   3.210   6.818 -0.0055 -0.0639  0.0270
  686loPI   C3A10969   2.837   3.259   7.247 -0.2837 -0.3187 -0.0566
  686loPI   C4A10970   2.933   3.169   7.662  0.3211 -0.1072  0.0048
  686loPI   C5A10971   2.735   3.200   8.106  0.5006  0.1846  0.1254
  686loPI   C6A10972   2.471   3.537   8.347 -0.2451 -0.1075 -0.2169
  686loPI   C1B10973   3.229   3.472   6.560  0.1489  0.2884 -0.1229
  686loPI   C2B10974   3.376   3.481   7.043 -0.2896 -0.0644 -0.0393
  686loPI   C3B10975   3.254   3.514   7.465 -0.0240  0.3202  0.0428
  686loPI   C4B10976   3.317   3.472   7.902 -0.0478  0.1522 -0.1488
  687loPI    C110977   0.997  10.193   5.567  0.2225  0.0601 -0.0948
  687loPI    C210978   0.968  10.358   5.204  0.1916 -0.0445 -0.1400
  687loPI    C310979   1.280  10.445   5.439  0.0697  0.2412 -0.0805
  687loPI   PO410980   0.663  10.329   5.726  0.2136 -0.2048 -0.0897
  687loPI   GL110981   0.630  10.130   6.194  0.0558  0.0435  0.0112
  687loPI   GL210982   0.722  10.508   6.241 -0.0356  0.0038 -0.0137
  687loPI   C1A10983   0.514   9.954   6.536 -0.0138 -0.0852  0.2161
  687loPI   C2A10984   0.521  10.043   7.011 -0.0978 -0.2379  0.1864
  687loPI   C3A10985   0.490   9.973   7.349  0.5788 -0.0299 -0.1570
  687loPI   C4A10986   0.631   9.998   7.717  0.1867 -0.2206 -0.2169
  687loPI   C5A10987   0.711  10.095   8.254 -0.3062  0.1106  0.0899
  687loPI   C6A10988   1.137  10.129   8.443  0.0813  0.0486 -0.1492
  687loPI   C1B10989   0.616  10.537   6.686  0.3988 -0.0331  0.1039
  687loPI   C2B10990   0.433  10.561   7.150 -0.0075 -0.0566  0.4509
  687loPI   C3B10991   0.465  10.604   7.615  0.1636  0.0408 -0.0531
  687loPI   C4B10992   0.687  10.562   7.996 -0.1157 -0.2107 -0.2108
  688loPI    C110993  14.706   4.517   4.998 -0.1152 -0.0319 -0.1862
  688loPI    C210994  14.878   4.818   4.800 -0.3462 -0.1343 -0.5510
  688loPI    C310995  14.858   4.455   4.634 -0.0453 -0.3639 -0.1038
  688loPI   PO410996  14.796   4.645   5.289  0.1844  0.1650  0.0811
  688loPI   GL110997  14.801   4.545   5.742 -0.1441  0.2971 -0.2501
  688loPI   GL210998  14.914   4.357   5.792  0.3849 -0.0750  0.2305
  688loPI   C1A10999  14.798   4.717   6.203 -0.1580  0.1313  0.1703
  688loPI   C2A11000  14.912   4.686   6.602 -0.2648  0.0663 -0.0904
  688loPI   C3A11001  14.842   4.758   7.122 -0.1672 -0.0400  0.2141
  688loPI   C4A11002  14.859   4.664   7.617 -0.0625 -0.1478  0.0397
  688loPI   C5A11003  14.751   4.586   8.089  0.0586  0.0588 -0.1277
  688loPI   C6A11004  14.796   4.347   8.414  0.0840 -0.2259  0.1052
  688loPI   C1B11005  14.875   4.225   6.168  0.1302 -0.0926 -0.0938
  688loPI   C2B11006  14.904   4.156   6.584  0.2704 -0.1750  0.1647
  688loPI   C3B11007  14.957   4.186   7.033 -0.1478 -0.1543 -0.2402
  688loPI   C4B11008  15.042   4.156   7.521 -0.2845 -0.1105 -0.2127
  689loPI    C111009   3.399  14.204   5.826 -0.2570 -0.0120  0.0850
  689loPI    C211010   3.063  14.225   5.610 -0.1621 -0.1638 -0.0794
  689loPI    C311011   3.409  14.130   5.433 -0.0616 -0.1697  0.1184
  689loPI   PO411012   3.311  14.096   6.036 -0.0233 -0.2032  0.1774
  689loPI   GL111013   3.436  14.180   6.479 -0.1250 -0.1162 -0.1407
  689loPI   GL211014   3.161  14.325   6.505  0.2450  0.2031  0.0998
  689loPI   C1A11015   3.762  14.560   6.576  0.2034  0.2112  0.3161
  689loPI   C2A11016   3.784  14.831   6.871 -0.2126  0.3816  0.1934
  689loPI   C3A11017   3.842  15.043   7.305 -0.1886 -0.2408  0.2987
  689loPI   C4A11018   3.747  15.133   7.697 -0.0275 -0.1311  0.0732
  689loPI   C5A11019   3.574  15.053   8.164 -0.0182  0.0864 -0.0338
  689loPI   C6A11020   3.232  15.085   8.484 -0.0395  0.1715 -0.1645
  689loPI   C1B11021   3.122  14.019   6.908  0.1803  0.2066  0.0888
  689loPI   C2B11022   3.326  14.007   7.237 -0.0596 -0.0948  0.1053
  689loPI   C3B11023   3.437  14.289   7.509  0.1038  0.2049  0.2213
  689loPI   C4B11024   3.690  14.634   7.760 -0.2249 -0.1207  0.1950
  690loPI    C111025   2.426   8.257   6.104 -0.0094  0.0926  0.0027
  690loPI    C211026   2.341   8.647   6.125 -0.2253  0.0513 -0.0868
  690loPI    C311027   2.678   8.526   5.947 -0.1142  0.2013  0.0191
  690loPI   PO411028   2.282   8.142   6.285  0.1956 -0.0670  0.2534
  690loPI   GL111029   2.054   8.519   6.550 -0.2873 -0.2935 -0.1105
  690loPI   GL211030   2.208   8.898   6.556 -0.2190 -0.3677  0.0307
  690loPI   C1A11031   2.075   8.342   6.881  0.5929  0.0685 -0.2014
  690loPI   C2A11032   1.772   8.066   7.148 -0.0872 -0.2238 -0.0071
  690loPI   C3A11033   1.803   8.061   7.563 -0.0449  0.1021  0.0302
  690loPI   C4A11034   1.746   8.071   8.018  0.3920 -0.0887 -0.0093
  690loPI   C5A11035   1.490   7.918   8.311 -0.3810 -0.3946  0.0118
  690loPI   C6A11036   1.175   7.698   8.440  0.0401  0.2143 -0.0812
  690loPI   C1B11037   2.168   8.854   6.957 -0.2441  0.0100  0.1854
  690loPI   C2B11038   2.094   8.817   7.327  0.1141  0.0637  0.0484
  690loPI   C3B11039   2.400   8.820   7.595 -0.1469 -0.4164 -0.2239
  690loPI   C4B11040   2.587   9.084   7.767 -0.0053  0.1288  0.0288
  691loPI    C111041  11.517   1.326   5.514  0.0478  0.0240  0.0769
  691loPI    C211042  11.818   1.159   5.310 -0.1512 -0.1325 -0.0933
  691loPI    C311043  11.513   1.329   5.114 -0.0935  0.1777  0.0781
  691loPI   PO411044  11.689   1.393   5.783 -0.0476 -0.1268 -0.1780
  691loPI   GL111045  11.633   1.517   6.186  0.1399 -0.1179 -0.1391
  691loPI   GL211046  11.671   1.938   6.224  0.4679  0.0772  0.1213
  691loPI   C1A11047  11.697   1.551   6.616 -0.0786 -0.0374  0.0956
  691loPI   C2A11048  11.690   1.619   7.055 -0.0933 -0.1156 -0.0068
  691loPI   C3A11049  11.805   1.681   7.433 -0.0408  0.0153 -0.0033
  691loPI   C4A11050  11.764   1.681   7.878 -0.3051 -0.3201  0.0774
  691loPI   C5A11051  11.729   1.507   8.339 -0.0618 -0.1632 -0.1113
  691loPI   C6A11052  11.667   1.419   8.665  0.0381  0.0213 -0.0306
  691loPI   C1B11053  11.630   2.121   6.627 -0.1246  0.0297 -0.1813
  691loPI   C2B11054  11.615   2.121   6.937  0.1107 -0.1701  0.1213
  691loPI   C3B11055  11.777   2.163   7.384  0.2391  0.1696  0.1914
  691loPI   C4B11056  11.733   2.200   7.760 -0.2933  0.2459 -0.2400
  692loPI    C111057  14.841  12.272   5.336 -0.2368  0.3898 -0.0863
  692loPI    C211058  14.712  12.300   4.959 -0.0458  0.3313 -0.1568
  692loPI    C311059  15.102  12.338   5.040 -0.0452  0.0271 -0.0035
  692loPI   PO411060  14.710  12.199   5.569 -0.1218  0.5035 -0.1288
  692loPI   GL111061  14.582  12.043   5.970 -0.2152  0.1031 -0.3636
  692loPI   GL211062  14.637  11.712   6.036 -0.1853 -0.0102  0.0778
  692loPI   C1A11063  14.584  12.090   6.401 -0.1560 -0.0943 -0.2082
  692loPI   C2A11064  14.584  12.100   6.861  0.0977  0.0937 -0.0823
  692loPI   C3A11065  14.522  12.069   7.257 -0.1664  0.1004  0.0779
  692loPI   C4A11066  14.593  12.251   7.676 -0.2040  0.0974 -0.1346
  692loPI   C5A11067  14.612  12.117   8.080  0.0240 -0.0178 -0.0317
  692loPI   C6A11068  14.698  11.960   8.570  0.1271 -0.0256 -0.0181
  692loPI   C1B11069  14.736  11.610   6.479 -0.2182  0.0328 -0.0945
  692loPI   C2B11070  14.731  11.542   6.966 -0.0163 -0.1397  0.1890
  692loPI   C3B11071  14.692  11.596   7.453  0.1205 -0.2815 -0.3384
  692loPI   C4B11072  14.663  11.657   7.873 -0.1332 -0.4026 -0.1608
  693loPI    C111073   1.264   6.712   5.553 -0.1239  0.0487 -0.1515
  693loPI    C211074   1.440   6.464   5.292 -0.0553  0.0060 -0.0651
  693loPI    C311075   1.203   6.758   5.160 -0.1124 -0.0862 -0.1697
  693loPI   PO411076   1.324   6.713   5.743 -0.0684  0.2269  0.1453
  693loPI   GL111077   1.211   6.690   6.111 -0.0633  0.2561  0.1895
  693loPI   GL211078   1.063   6.833   6.384 -0.0095  0.1017  0.0046
  693loPI   C1A11079   1.190   6.374   6.542 -0.2458 -0.0671 -0.0072
  693loPI   C2A11080   1.149   6.424   7.044 -0.0366  0.1594 -0.1131
  693loPI   C3A11081   1.133   6.370   7.473  0.3391  0.2603 -0.0151
  693loPI   C4A11082   1.121   6.325   7.914 -0.0264 -0.0312 -0.0567
  693loPI   C5A11083   1.005   6.348   8.310 -0.1676 -0.1258  0.0163
  693loPI   C6A11084   0.922   6.534   8.540  0.4464 -0.0248 -0.2231
  693loPI   C1B11085   1.026   6.900   6.890  0.2320  0.1854  0.2034
  693loPI   C2B11086   1.022   6.918   7.319  0.0555  0.1687  0.1243
  693loPI   C3B11087   1.172   6.836   7.767  0.1562  0.1905 -0.0057
  693loPI   C4B11088   1.225   6.822   8.209  0.3334 -0.0749  0.1538
  694loPI    C111089  11.677   0.137   5.170  0.1960 -0.1147 -0.4268
  694loPI    C211090  11.334   0.338   5.128 -0.0550 -0.4890 -0.2273
  694loPI    C311091  11.662   0.459   4.934 -0.1406  0.2303  0.0475
  694loPI   PO411092  11.721   0.164   5.459  0.0296 -0.2518 -0.4027
  694loPI   GL111093  11.821   0.061   5.895 -0.3828  0.1658 -0.0663
  694loPI   GL211094  11.517   0.133   5.940  0.3878 -0.2254  0.1977
  694loPI   C1A11095  11.897  -0.090   6.244 -0.3679  0.0012 -0.0478
  694loPI   C2A11096  11.886  -0.055   6.718  0.0669 -0.0560 -0.0649
  694loPI   C3A11097  12.007   0.013   6.988 -0.1378  0.0284 -0.1602
  694loPI   C4A11098  11.944   0.072   7.393 -0.0007 -0.1322  0.2621
  694loPI   C5A11099  11.899   0.190   7.857 -0.0095 -0.0371  0.3488
  694loPI   C6A11100  11.684   0.329   8.139  0.0639 -0.1285 -0.0946
  694loPI   C1B11101  11.416   0.169   6.419  0.0480  0.2043 -0.1296
  694loPI   C2B11102  11.474   0.253   6.861  0.1056  0.0262  0.2012
  694loPI   C3B11103  11.525   0.144   7.219 -0.1011 -0.3702 -0.0262
  694loPI   C4B11104  11.514   0.337   7.553  0.0679 -0.2748 -0.0470
  695loPI    C111105   5.223   9.516   5.604 -0.0574  0.0421  0.0037
  695loPI    C211106   5.510   9.779   5.514  0.2538 -0.2262  0.1926
  695loPI    C311107   5.362   9.541   5.230  0.0762  0.0455  0.0530
  695loPI   PO411108   5.377   9.388   5.829  0.2251 -0.3145 -0.0579
  695loPI   GL111109   5.296   9.350   6.297 -0.1022  0.3227 -0.3117
  695loPI   GL211110   5.681   9.398   6.425 -0.2750  0.1359  0.1184
  695loPI   C1A11111   5.253   9.153   6.668 -0.2602  0.2999 -0.3515
  695loPI   C2A11112   5.182   9.061   7.060 -0.2157 -0.1587 -0.1533
  695loPI   C3A11113   5.261   8.928   7.479 -0.1707  0.4956  0.1316
  695loPI   C4A11114   5.626   8.799   7.652  0.0399 -0.2257  0.0285
  695loPI   C5A11115   5.795   8.566   8.031 -0.3046 -0.0007 -0.1457
  695loPI   C6A11116   5.897   8.426   8.479 -0.2433 -0.2113 -0.0513
  695loPI   C1B11117   5.692   9.287   6.884 -0.1936  0.0081 -0.2715
  695loPI   C2B11118   5.600   9.259   7.356 -0.2180  0.2442 -0.2392
  695loPI   C3B11119   5.878   9.426   7.668 -0.1166  0.1651  0.1632
  695loPI   C4B11120   6.053   9.813   7.909 -0.0533  0.0428 -0.0243
  696loPI    C111121  11.088   1.208   5.301 -0.0893  0.0126 -0.1261
  696loPI    C211122  10.815   1.461   5.156 -0.1683 -0.1200 -0.2111
  696loPI    C311123  10.934   1.148   4.937  0.1008 -0.0267 -0.2013
  696loPI   PO411124  11.007   1.189   5.536  0.1036  0.1797  0.1934
  696loPI   GL111125  10.815   1.205   5.982 -0.0183  0.1826  0.0578
  696loPI   GL211126  10.770   1.430   6.187 -0.1533 -0.1478 -0.2010
  696loPI   C1A11127  10.843   0.892   6.382  0.0188  0.2031 -0.0927
  696loPI   C2A11128  10.913   0.896   6.730  0.0876  0.1004  0.1385
  696loPI   C3A11129  10.984   0.905   7.201 -0.0881  0.1266 -0.2705
  696loPI   C4A11130  11.027   1.034   7.578  0.0425 -0.1002  0.0709
  696loPI   C5A11131  11.016   1.077   7.974 -0.3167  0.0535 -0.1767
  696loPI   C6A11132  11.315   1.217   8.289  0.1455  0.0804 -0.0394
  696loPI   C1B11133  10.860   1.415   6.661  0.0729 -0.2051  0.3129
  696loPI   C2B11134  10.887   1.524   7.018  0.1189 -0.0039  0.2524
  696loPI   C3B11135  10.913   1.644   7.440 -0.0026 -0.1107 -0.1489
  696loPI   C4B11136  10.868   1.548   7.828  0.1894 -0.2341 -0.2722
  697loPI    C111137   3.078  15.840   5.617 -0.0836 -0.1694 -0.0465
  697loPI    C211138   3.349  15.693   5.363  0.2432  0.1063  0.1349
  697loPI    C311139   3.061  15.934   5.229  0.1688 -0.0757 -0.0368
  697loPI   PO411140   3.213  15.911   5.806 -0.0520  0.1293  0.1314
  697loPI   GL111141   3.265  15.899   6.220  0.1431  0.0245 -0.0685
  697loPI   GL211142   3.578  15.966   6.282  0.1179 -0.0339 -0.2289
  697loPI   C1A11143   3.242  15.764   6.691  0.1587 -0.1596  0.1373
  697loPI   C2A11144   3.217  15.628   7.110  0.0192  0.0801 -0.0156
  697loPI   C3A11145   2.907  15.520   7.466  0.0847  0.1517  0.0999
  697loPI   C4A11146   2.834  15.422   7.886  0.3663  0.0778  0.1287
  697loPI   C5A11147   2.929  15.493   8.256 -0.1917 -0.0786  0.1624
  697loPI   C6A11148   3.042  15.546   8.760  0.0248  0.3627 -0.2208
  697loPI   C1B11149   3.658  16.024   6.717 -0.2081 -0.2185 -0.1013
  697loPI   C2B11150   3.660  15.974   7.177  0.0540  0.0475  0.2281
  697loPI   C3B11151   3.546  15.972   7.589 -0.0803 -0.1084  0.3571
  697loPI   C4B11152   3.270  15.700   7.842 -0.0513 -0.0331 -0.2565
  698loPI    C111153   8.413  10.000   5.310 -0.1083 -0.0999  0.1396
  698loPI    C211154   8.499   9.610   5.325  0.0128 -0.0782  0.0246
  698loPI    C311155   8.564   9.817   4.989 -0.1224  0.0251  0.0611
  698loPI   PO411156   8.368  10.091   5.580 -0.1531  0.3691 -0.0267
  698loPI   GL111157   8.403  10.129   5.944  0.0511 -0.3707 -0.2982
  698loPI   GL211158   8.718  10.053   6.067 -0.0873 -0.1195 -0.2436
  698loPI   C1A11159   8.218  10.252   6.307 -0.1658  0.0318 -0.2085
  698loPI   C2A11160   8.142  10.306   6.689  0.0271  0.1910 -0.3361
  698loPI   C3A11161   8.177  10.330   7.052  0.1431 -0.1459 -0.0077
  698loPI   C4A11162   8.039  10.351   7.421  0.1133  0.0645 -0.1892
  698loPI   C5A11163   8.129  10.284   7.887  0.0480 -0.1707  0.1353
  698loPI   C6A11164   7.862  10.233   8.335  0.1076 -0.1184  0.1615
  698loPI   C1B11165   8.670  10.008   6.376 -0.2118 -0.2367 -0.0254
  698loPI   C2B11166   8.655  10.069   6.816 -0.1366 -0.0412 -0.0492
  698loPI   C3B11167   8.664  10.223   7.221 -0.0196  0.0474  0.1023
  698loPI   C4B11168   8.571  10.249   7.719 -0.2258 -0.1001 -0.1423
  699loPI    C111169  16.215  15.974   5.369  0.1905  0.2241 -0.1826
  699loPI    C211170  16.125  15.648   5.155  0.0700  0.1033  0.0484
  699loPI    C311171  16.385  15.916   5.012  0.1160 -0.0580 -0.1744
  699loPI   PO411172  16.260  15.904   5.649 -0.0166  0.4358  0.0060
  699loPI   GL111173  16.215  15.964   6.055  0.3403  0.2468 -0.0930
  699loPI   GL211174  15.962  15.801   6.081 -0.1375  0.1274 -0.2473
  699loPI   C1A11175  16.216  16.204   6.416 -0.0548  0.2515 -0.0775
  699loPI   C2A11176  16.242  16.284   6.884 -0.0219  0.0477 -0.1616
  699loPI   C3A11177  16.237  16.410   7.343  0.1490  0.0497  0.1346
  699loPI   C4A11178  16.199  16.304   7.768 -0.1054  0.0566  0.1038
  699loPI   C5A11179  16.195  16.438   8.192  0.0032 -0.1405  0.1416
  699loPI   C6A11180  16.090  16.667   8.603  0.0949  0.1546  0.1890
  699loPI   C1B11181  15.813  15.896   6.459  0.0430 -0.0678  0.0061
  699loPI   C2B11182  15.831  15.967   6.862  0.1883  0.0052 -0.0633
  699loPI   C3B11183  15.828  15.961   7.279  0.1567 -0.1454  0.1370
  699loPI   C4B11184  15.724  15.986   7.664  0.0247 -0.2921  0.0427
  700loPI    C111185   9.082  10.712   5.258  0.0782 -0.0745  0.2967
  700loPI    C211186   8.950  10.647   4.886 -0.1732  0.0796  0.3567
  700loPI    C311187   9.227  10.406   5.044 -0.1470 -0.0550  0.1116
  700loPI   PO411188   8.903  10.773   5.393  0.1660  0.0091 -0.1644
  700loPI   GL111189   8.908  10.814   5.774 -0.4066 -0.1753  0.3104
  700loPI   GL211190   8.900  10.969   5.984  0.0243 -0.2646 -0.1355
  700loPI   C1A11191   9.085  10.488   6.054 -0.0497  0.0478 -0.0122
  700loPI   C2A11192   9.055  10.360   6.436  0.1533 -0.0860 -0.4087
  700loPI   C3A11193   9.098  10.489   6.921 -0.0779  0.0100  0.2473
  700loPI   C4A11194   9.049  10.512   7.382  0.1309  0.3419  0.0387
  700loPI   C5A11195   8.905  10.611   7.686  0.0398 -0.0063  0.0050
  700loPI   C6A11196   8.562  10.699   7.896 -0.0625 -0.2953 -0.2373
  700loPI   C1B11197   8.906  10.914   6.414  0.5360 -0.1244 -0.0772
  700loPI   C2B11198   8.983  10.989   6.874 -0.0754  0.0567  0.5252
  700loPI   C3B11199   8.944  11.079   7.257 -0.3932  0.0153  0.2582
  700loPI   C4B11200   8.849  11.086   7.669 -0.0902  0.1463  0.0120
  701loPI    C111201   8.286  11.435   5.351 -0.1263 -0.1019 -0.2407
  701loPI    C211202   7.897  11.526   5.327 -0.1812 -0.2216  0.1285
  701loPI    C311203   8.050  11.240   5.093 -0.3321 -0.2292  0.0377
  701loPI   PO411204   8.295  11.451   5.700  0.1463 -0.4125 -0.0054
  701loPI   GL111205   8.243  11.759   6.030  0.0862 -0.1204  0.1739
  701loPI   GL211206   8.358  12.108   6.123 -0.1261  0.1215  0.4078
  701loPI   C1A11207   8.356  11.542   6.427  0.0452 -0.2602  0.1284
  701loPI   C2A11208   8.324  11.585   6.891  0.0604  0.2874  0.0279
  701loPI   C3A11209   8.276  11.667   7.337 -0.1547  0.1176  0.0060
  701loPI   C4A11210   8.311  11.801   7.784  0.1299 -0.2300  0.0636
  701loPI   C5A11211   8.221  11.942   8.171  0.3943  0.2266 -0.0639
  701loPI   C6A11212   7.936  11.856   8.502 -0.2458 -0.2708  0.1855
  701loPI   C1B11213   8.233  12.041   6.505  0.0392 -0.1676 -0.1789
  701loPI   C2B11214   8.285  12.179   7.020 -0.0778  0.0697 -0.0912
  701loPI   C3B11215   8.224  12.165   7.365  0.2657 -0.0714 -0.1697
  701loPI   C4B11216   8.178  12.286   7.841 -0.0346 -0.3184  0.1488
  702loPI    C111217  15.936  13.407   5.354  0.1756 -0.0209 -0.0072
  702loPI    C211218  16.004  13.109   5.096 -0.0536  0.0087 -0.1042
  702loPI    C311219  15.647  13.290   5.103  0.0326  0.1759  0.0629
  702loPI   PO411220  16.098  13.358   5.577  0.1000  0.1448  0.2228
  702loPI   GL111221  16.078  13.161   5.970  0.0668 -0.0092  0.4064
  702loPI   GL211222  15.900  13.505   6.007 -0.0326 -0.1875  0.1047
  702loPI   C1A11223  16.292  13.338   6.368 -0.0796 -0.0833 -0.0352
  702loPI   C2A11224  16.252  13.287   6.773  0.0315 -0.3295  0.4565
  702loPI   C3A11225  16.239  13.302   7.187 -0.0522 -0.1438  0.2836
  702loPI   C4A11226  16.218  13.425   7.647  0.2682  0.2809  0.1372
  702loPI   C5A11227  16.322  13.400   8.093  0.0934  0.0131 -0.3157
  702loPI   C6A11228  16.278  13.072   8.476  0.1227  0.1240 -0.1752
  702loPI   C1B11229  15.828  13.472   6.422  0.1337  0.4074  0.2204
  702loPI   C2B11230  15.817  13.493   6.901 -0.0020 -0.0724  0.0335
  702loPI   C3B11231  15.677  13.555   7.306  0.0876  0.2387 -0.3581
  702loPI   C4B11232  15.697  13.555   7.798 -0.1768 -0.1677 -0.0782
  703loPI    C111233   6.167   7.634   5.490 -0.0616 -0.2571 -0.1207
  703loPI    C211234   6.398   7.523   5.182 -0.0469 -0.0580 -0.1830
  703loPI    C311235   6.202   7.871   5.170  0.0072 -0.0171  0.0621
  703loPI   PO411236   6.136   7.379   5.547 -0.4063  0.3584  0.0444
  703loPI   GL111237   6.085   7.230   5.967  0.1136  0.0618  0.0313
  703loPI   GL211238   6.306   7.541   6.039  0.0417  0.3119  0.2450
  703loPI   C1A11239   5.998   7.305   6.481  0.4499 -0.0687  0.3547
  703loPI   C2A11240   5.971   7.299   6.931  0.1246  0.0404 -0.1369
  703loPI   C3A11241   5.940   7.272   7.307 -0.1066  0.0352  0.1116
  703loPI   C4A11242   5.843   7.183   7.780 -0.0735 -0.0495  0.2084
  703loPI   C5A11243   5.955   7.420   8.113  0.2249  0.2575 -0.1182
  703loPI   C6A11244   6.192   7.288   8.495  0.2085 -0.1857 -0.0903
  703loPI   C1B11245   6.403   7.669   6.518  0.0039 -0.1285  0.1076
  703loPI   C2B11246   6.422   7.627   6.958 -0.0626  0.0255  0.0410
  703loPI   C3B11247   6.404   7.588   7.400 -0.1637  0.2887  0.1377
  703loPI   C4B11248   6.281   7.572   7.770  0.0056  0.0306 -0.1023
  704loPI    C111249   6.483   6.263   5.305 -0.0861  0.0727 -0.1042
  704loPI    C211250   6.681   6.563   5.481 -0.0609  0.0113 -0.0270
  704loPI    C311251   6.444   6.636   5.167  0.1992  0.0645 -0.2139
  704loPI   PO411252   6.580   6.086   5.491 -0.0619  0.1020  0.0516
  704loPI   GL111253   6.886   6.158   5.793 -0.1471 -0.2908 -0.0088
  704loPI   GL211254   6.924   6.491   5.979  0.3034  0.0521 -0.1701
  704loPI   C1A11255   6.915   6.009   6.174 -0.0037  0.2703  0.0343
  704loPI   C2A11256   7.033   5.801   6.522  0.0605 -0.0105 -0.2319
  704loPI   C3A11257   7.032   5.811   7.003 -0.1819  0.2771  0.0126
  704loPI   C4A11258   7.161   5.851   7.436 -0.1906 -0.0941 -0.0124
  704loPI   C5A11259   7.109   5.933   7.830  0.2120 -0.0781  0.2172
  704loPI   C6A11260   7.029   6.340   8.095  0.0801  0.3203  0.1833
  704loPI   C1B11261   7.019   6.406   6.419 -0.2970 -0.0480  0.1415
  704loPI   C2B11262   6.989   6.344   6.715 -0.0382 -0.0031  0.1117
  704loPI   C3B11263   6.988   6.362   7.178  0.1242  0.0760  0.2315
  704loPI   C4B11264   7.062   6.411   7.605  0.3251 -0.0985  0.2491
  705loPI    C111265  11.893   9.555   5.153  0.1773  0.0129 -0.0219
  705loPI    C211266  11.722   9.716   4.829 -0.1861 -0.0916  0.1132
  705loPI    C311267  12.078   9.536   4.798 -0.2013 -0.0718 -0.2206
  705loPI   PO411268  11.718   9.654   5.329 -0.0787 -0.1115  0.2384
  705loPI   GL111269  11.675   9.729   5.700  0.2600  0.1393  0.1826
  705loPI   GL211270  11.904   9.865   5.837 -0.0583  0.1363  0.0746
  705loPI   C1A11271  11.416   9.474   5.930  0.4432  0.0872 -0.0793
  705loPI   C2A11272  11.406   9.451   6.391 -0.1173  0.1259  0.0331
  705loPI   C3A11273  11.393   9.626   6.752  0.0873  0.1404 -0.0626
  705loPI   C4A11274  11.390   9.579   7.228  0.1152  0.0671 -0.0677
  705loPI   C5A11275  11.433   9.646   7.756  0.1535  0.0789 -0.1606
  705loPI   C6A11276  11.452   9.561   8.259 -0.4852  0.0689 -0.0218
  705loPI   C1B11277  11.810   9.844   6.249  0.0957  0.2642  0.1565
  705loPI   C2B11278  11.840   9.940   6.627 -0.4534 -0.2350 -0.2753
  705loPI   C3B11279  11.776   9.873   7.066  0.0527 -0.0147  0.2227
  705loPI   C4B11280  11.781   9.910   7.460 -0.0211  0.2612 -0.1284
  706loPI    C111281   5.268   6.549   5.482 -0.0676  0.0859  0.0158
  706loPI    C211282   5.390   6.799   5.195  0.0667  0.2121  0.1810
  706loPI    C311283   5.123   6.921   5.467  0.0021  0.1198  0.1591
  706loPI   PO411284   5.462   6.539   5.660 -0.1934  0.0309 -0.2951
  706loPI   GL111285   5.536   6.512   6.069  0.0456  0.0585 -0.2819
  706loPI   GL211286   5.834   6.346   5.992  0.0212  0.2840  0.3070
  706loPI   C1A11287   5.610   6.541   6.465 -0.3487 -0.2238  0.0142
  706loPI   C2A11288   5.595   6.493   6.867 -0.4442  0.2227  0.0132
  706loPI   C3A11289   5.549   6.378   7.281 -0.2356 -0.1515  0.2780
  706loPI   C4A11290   5.663   6.323   7.725  0.1039  0.0953  0.4247
  706loPI   C5A11291   5.712   6.229   8.147  0.0248 -0.0417  0.0661
  706loPI   C6A11292   5.547   5.827   8.281  0.0077  0.0450 -0.1420
  706loPI   C1B11293   6.082   6.384   6.437 -0.0458  0.0768 -0.1291
  706loPI   C2B11294   6.200   6.321   6.883  0.0353 -0.1975 -0.0238
  706loPI   C3B11295   6.115   6.165   7.207 -0.0491 -0.0973 -0.1883
  706loPI   C4B11296   6.111   6.144   7.642 -0.4850  0.3156  0.1765
  707loPI    C111297   4.590  11.435   6.017 -0.0860 -0.0997 -0.1083
  707loPI    C211298   4.953  11.279   6.080 -0.0518  0.0685  0.1257
  707loPI    C311299   4.821  11.334   5.706  0.0268 -0.3024  0.0393
  707loPI   PO411300   4.591  11.649   6.167 -0.2321  0.0731  0.0365
  707loPI   GL111301   4.967  11.591   6.453 -0.0662 -0.2149 -0.1788
  707loPI   GL211302   4.781  11.880   6.651 -0.2082  0.0703  0.2093
  707loPI   C1A11303   5.044  11.489   6.845 -0.1051 -0.1372 -0.0945
  707loPI   C2A11304   4.898  11.188   7.174 -0.1834  0.0144  0.4768
  707loPI   C3A11305   4.696  11.125   7.528 -0.2534 -0.1859 -0.1249
  707loPI   C4A11306   4.463  10.880   7.624  0.3077  0.0092 -0.1767
  707loPI   C5A11307   4.158  10.632   7.371  0.0294  0.2684  0.1316
  707loPI   C6A11308   3.874  10.236   7.461 -0.2698  0.1150 -0.0991
  707loPI   C1B11309   4.957  11.949   7.027 -0.1223  0.1327 -0.1775
  707loPI   C2B11310   4.987  12.211   7.457 -0.1500 -0.1112  0.1464
  707loPI   C3B11311   4.810  12.083   7.799 -0.1061  0.0174  0.1055
  707loPI   C4B11312   4.797  11.641   8.033  0.0890 -0.1794  0.2689
  708loPI    C111313  17.030  15.676   5.518 -0.1268  0.0644  0.0916
  708loPI    C211314  17.145  15.893   5.202  0.1047  0.2152  0.2754
  708loPI    C311315  16.769  15.920   5.337 -0.0244  0.0734 -0.0454
  708loPI   PO411316  17.245  15.733   5.731 -0.1720 -0.0998  0.0613
  708loPI   GL111317  17.110  15.545   6.058  0.1830  0.2950  0.1236
  708loPI   GL211318  16.864  15.324   6.231  0.1596 -0.1701  0.0451
  708loPI   C1A11319  17.103  15.865   6.315 -0.2421 -0.4129  0.0390
  708loPI   C2A11320  17.098  15.890   6.737  0.1396 -0.1037 -0.0044
  708loPI   C3A11321  17.110  15.994   7.256 -0.0261 -0.1074 -0.1865
  708loPI   C4A11322  17.235  15.991   7.668  0.2133  0.1201 -0.0120
  708loPI   C5A11323  17.124  16.046   8.140 -0.2656  0.3222  0.1271
  708loPI   C6A11324  17.200  16.346   8.453  0.0994 -0.1310  0.4266
  708loPI   C1B11325  16.800  15.530   6.550  0.1653 -0.1081  0.1531
  708loPI   C2B11326  16.780  15.529   7.054  0.3975  0.1714  0.0343
  708loPI   C3B11327  16.814  15.662   7.488  0.3650 -0.3140  0.1526
  708loPI   C4B11328  16.757  15.706   8.009  0.1038 -0.0894 -0.1486
  709loPI    C111329  12.175  13.883   5.285  0.0514  0.0365  0.0068
  709loPI    C211330  12.469  13.988   5.035  0.1063  0.1143  0.1028
  709loPI    C311331  12.262  14.270   5.230 -0.0008  0.0579  0.0718
  709loPI   PO411332  12.238  13.725   5.513 -0.0599 -0.0901 -0.2395
  709loPI   GL111333  12.329  13.663   5.904  0.2327  0.2562  0.2755
  709loPI   GL211334  12.017  13.767   5.964  0.1989  0.1690 -0.1537
  709loPI   C1A11335  12.467  13.799   6.304 -0.0823 -0.1966  0.2585
  709loPI   C2A11336  12.546  13.939   6.682 -0.0363  0.0470 -0.2011
  709loPI   C3A11337  12.484  13.943   7.104  0.0239 -0.3594  0.2392
  709loPI   C4A11338  12.473  13.913   7.474  0.3565  0.2552  0.1023
  709loPI   C5A11339  12.438  13.944   7.872  0.0404 -0.2547 -0.0778
  709loPI   C6A11340  12.531  13.880   8.191  0.2135 -0.0918  0.0462
  709loPI   C1B11341  12.003  13.975   6.344  0.0966  0.1338  0.0177
  709loPI   C2B11342  12.076  14.058   6.692 -0.2471 -0.0865  0.2981
  709loPI   C3B11343  11.982  14.045   7.123 -0.3143 -0.0892  0.1283
  709loPI   C4B11344  11.973  14.105   7.609 -0.3510 -0.2834 -0.1844
  710loPI    C111345  12.810  13.666   5.677  0.0146 -0.0466  0.0761
  710loPI    C211346  12.681  13.644   5.299 -0.0249  0.1056  0.0803
  710loPI    C311347  12.565  13.370   5.566 -0.0383  0.0274 -0.0054
  710loPI   PO411348  13.006  13.678   5.661 -0.0458 -0.0074 -0.3882
  710loPI   GL111349  13.196  13.543   5.998 -0.1232  0.0868  0.1122
  710loPI   GL211350  13.513  13.539   6.165  0.0742  0.2811  0.0353
  710loPI   C1A11351  13.021  13.553   6.284  0.3179 -0.1335  0.2217
  710loPI   C2A11352  12.980  13.598   6.641  0.0707 -0.0841  0.0104
  710loPI   C3A11353  13.019  13.656   7.076  0.0851 -0.1502  0.1550
  710loPI   C4A11354  12.969  13.757   7.448  0.0871 -0.0276  0.3016
  710loPI   C5A11355  13.029  13.803   7.912  0.2468 -0.0610  0.4691
  710loPI   C6A11356  13.314  14.093   8.153  0.0768  0.2718  0.2325
  710loPI   C1B11357  13.496  13.418   6.533  0.0739 -0.0970 -0.0367
  710loPI   C2B11358  13.485  13.464   6.943  0.2061 -0.1987  0.0532
  710loPI   C3B11359  13.440  13.555   7.382  0.0259 -0.1364 -0.4404
  710loPI   C4B11360  13.549  13.554   7.770 -0.2001  0.0182  0.0653
  711loPI    C111361   1.771  10.936   5.864 -0.0005 -0.4472  0.1989
  711loPI    C211362   1.384  10.992   5.782  0.0832 -0.0044  0.0805
  711loPI    C311363   1.650  10.962   5.484  0.1740 -0.0518  0.1657
  711loPI   PO411364   1.695  10.978   6.181  0.2130 -0.1384  0.2470
  711loPI   GL111365   1.520  11.063   6.558  0.0121 -0.0380 -0.2156
  711loPI   GL211366   1.800  11.008   6.743  0.1557 -0.2331  0.2192
  711loPI   C1A11367   1.335  11.386   6.740  0.1488 -0.0775 -0.0870
  711loPI   C2A11368   1.298  11.531   7.177 -0.4612 -0.2201  0.4643
  711loPI   C3A11369   1.513  11.756   7.473  0.3242  0.2445  0.1530
  711loPI   C4A11370   1.690  12.111   7.647  0.0901  0.0498  0.1753
  711loPI   C5A11371   1.927  12.539   7.656 -0.1276 -0.0528 -0.0919
  711loPI   C6A11372   2.001  12.670   8.076 -0.4389 -0.3824  0.0879
  711loPI   C1B11373   1.681  10.989   7.148  0.1618 -0.3230  0.3804
  711loPI   C2B11374   1.618  11.168   7.632  0.2133  0.1143  0.2505
  711loPI   C3B11375   1.388  11.287   7.991  0.1116  0.0223 -0.1484
  711loPI   C4B11376   1.219  11.392   8.436 -0.2432 -0.1069  0.1802
  712loPI    C111377  11.538  10.076   5.099 -0.0624  0.0393  0.0311
  712loPI    C211378  11.180  10.242   5.164 -0.1228  0.0470 -0.3082
  712loPI    C311379  11.327  10.222   4.792  0.3430  0.2752 -0.1436
  712loPI   PO411380  11.672  10.140   5.192  0.0901 -0.0333  0.3112
  712loPI   GL111381  11.628  10.215   5.594  0.2397  0.3527  0.1874
  712loPI   GL211382  11.309  10.320   5.707  0.1028 -0.0122 -0.1942
  712loPI   C1A11383  11.745  10.331   6.001 -0.1240 -0.2493 -0.2999
  712loPI   C2A11384  11.728  10.403   6.429  0.0572 -0.5366 -0.2613
  712loPI   C3A11385  11.730  10.365   6.862 -0.0589 -0.1188 -0.1764
  712loPI   C4A11386  11.704  10.418   7.300  0.1725 -0.0609 -0.0199
  712loPI   C5A11387  11.626  10.401   7.697  0.1989 -0.1257 -0.0850
  712loPI   C6A11388  11.607  10.228   8.163  0.3767  0.0365  0.0599
  712loPI   C1B11389  11.342  10.052   6.055  0.1412 -0.1050 -0.1137
  712loPI   C2B11390  11.386  10.011   6.481 -0.0761 -0.1346 -0.0370
  712loPI   C3B11391  11.341  10.103   6.942  0.2995  0.1524 -0.4965
  712loPI   C4B11392  11.253  10.191   7.409  0.3097  0.0925 -0.3116
  713loPI    C111393  15.118  11.751   5.099 -0.0139 -0.1258 -0.0475
  713loPI    C211394  14.760  11.835   4.941  0.0490 -0.0548 -0.1533
  713loPI    C311395  15.094  11.933   4.744  0.1263 -0.2309 -0.1117
  713loPI   PO411396  15.096  11.845   5.322 -0.2470  0.0671 -0.0202
  713loPI   GL111397  15.137  11.929   5.803 -0.1986 -0.0835 -0.1919
  713loPI   GL211398  15.051  12.292   6.035 -0.0562  0.0158 -0.0040
  713loPI   C1A11399  15.122  11.850   6.273 -0.2546 -0.1916  0.1486
  713loPI   C2A11400  15.072  11.898   6.714  0.1897 -0.0956 -0.2575
  713loPI   C3A11401  15.074  11.974   7.221 -0.0662  0.0081 -0.0136
  713loPI   C4A11402  15.028  12.013   7.590 -0.2671  0.1361  0.0306
  713loPI   C5A11403  15.057  11.949   7.999 -0.1521  0.1808 -0.2128
  713loPI   C6A11404  15.091  11.613   8.297  0.0812 -0.1090 -0.2055
  713loPI   C1B11405  15.009  12.341   6.439 -0.1983  0.0907 -0.0372
  713loPI   C2B11406  14.989  12.498   6.890  0.1967  0.0799  0.0197
  713loPI   C3B11407  14.942  12.439   7.363  0.1192 -0.1855  0.1506
  713loPI   C4B11408  14.979  12.490   7.809  0.1625 -0.2932  0.1558
  714loPI    C111409   2.611  17.520   5.238  0.1111 -0.0403 -0.1426
  714loPI    C211410   2.411  17.855   5.150 -0.2084 -0.1563  0.1194
  714loPI    C311411   2.615  17.662   4.865 -0.2335  0.1199 -0.0892
  714loPI   PO411412   2.556  17.592   5.603  0.2246 -0.3524 -0.0542
  714loPI   GL111413   2.607  17.441   6.006 -0.2667  0.1735  0.0970
  714loPI   GL211414   2.851  17.158   5.858 -0.0482 -0.0034  0.1999
  714loPI   C1A11415   2.522  17.504   6.488 -0.2929 -0.0682  0.1178
  714loPI   C2A11416   2.531  17.423   6.902  0.0320 -0.0950 -0.1312
  714loPI   C3A11417   2.431  17.421   7.287  0.2419  0.1212 -0.1359
  714loPI   C4A11418   2.587  17.448   7.734 -0.1161  0.0045  0.1106
  714loPI   C5A11419   2.518  17.393   8.145  0.0144 -0.0099  0.2110
  714loPI   C6A11420   2.527  17.122   8.488  0.1614 -0.0285  0.1008
  714loPI   C1B11421   2.988  17.246   6.300  0.0889 -0.1266 -0.2871
  714loPI   C2B11422   3.031  17.332   6.884 -0.1543 -0.0434 -0.0098
  714loPI   C3B11423   3.031  17.350   7.343  0.0607 -0.2917 -0.0466
  714loPI   C4B11424   3.079  17.330   7.738  0.1734 -0.2644  0.0131
  715loPI    C111425  10.700   2.666   5.349  0.0693 -0.0580 -0.0456
  715loPI    C211426  10.806   2.985   5.132 -0.0630  0.0599  0.0606
  715loPI    C311427  10.443   2.824   5.086  0.0946 -0.2391 -0.1814
  715loPI   PO411428  10.798   2.694   5.586  0.2660 -0.1183 -0.2134
  715loPI   GL111429  10.584   2.656   5.930 -0.0014 -0.4728  0.1280
  715loPI   GL211430  10.516   2.413   6.124  0.0387  0.1983  0.0646
  715loPI   C1A11431  10.608   2.860   6.304 -0.2714 -0.0304  0.0897
  715loPI   C2A11432  10.632   3.011   6.751 -0.0753  0.0078 -0.0097
  715loPI   C3A11433  10.660   3.091   7.226  0.1702  0.0881  0.1700
  715loPI   C4A11434  10.682   3.093   7.644  0.1057  0.1401 -0.0578
  715loPI   C5A11435  10.875   3.127   8.018  0.1794 -0.2983  0.1820
  715loPI   C6A11436  11.126   2.788   8.260  0.0932  0.2238  0.2168
  715loPI   C1B11437  10.635   2.343   6.538 -0.1990 -0.0344  0.1154
  715loPI   C2B11438  10.775   2.574   6.904  0.1590  0.2319  0.0238
  715loPI   C3B11439  10.718   2.559   7.380 -0.4040 -0.2361 -0.1852
  715loPI   C4B11440  10.825   2.616   7.834  0.0314  0.0963  0.0811
  716loPI    C111441  16.432   0.369   5.000 -0.0180 -0.1355 -0.0416
  716loPI    C211442  16.806   0.482   4.911 -0.0741 -0.2173 -0.3943
  716loPI    C311443  16.498   0.627   4.701 -0.2088 -0.4438 -0.3560
  716loPI   PO411444  16.266   0.385   5.294 -0.1189 -0.4428  0.0779
  716loPI   GL111445  16.463   0.293   5.738 -0.2524  0.3167 -0.0455
  716loPI   GL211446  16.514   0.523   5.874 -0.1143 -0.3973 -0.0774
  716loPI   C1A11447  16.459   0.190   6.189  0.0171  0.0642 -0.1400
  716loPI   C2A11448  16.480   0.181   6.625  0.0373 -0.0768  0.0420
  716loPI   C3A11449  16.359   0.163   6.988 -0.0279 -0.2204 -0.0329
  716loPI   C4A11450  16.307   0.158   7.439  0.1935  0.0830  0.0518
  716loPI   C5A11451  16.312   0.298   7.864  0.1741  0.1889 -0.2596
  716loPI   C6A11452  16.148   0.350   8.296  0.2071 -0.0559 -0.0753
  716loPI   C1B11453  16.396   0.654   6.355 -0.0534  0.0280  0.2210
  716loPI   C2B11454  16.393   0.744   6.751  0.0200  0.1569 -0.1735
  716loPI   C3B11455  16.348   0.679   7.135 -0.0086 -0.1632 -0.0632
  716loPI   C4B11456  16.299   0.640   7.554 -0.0888 -0.0751 -0.1231
  717loPI    C111457  18.002  12.908   5.639 -0.3093  0.2255  0.2478
  717loPI    C211458  17.774  12.971   5.316 -0.0513  0.3603  0.0879
  717loPI    C311459  17.953  13.279   5.498 -0.0146  0.2585  0.2261
  717loPI   PO411460  17.856  12.650   5.813 -0.2927 -0.0361 -0.2381
  717loPI   GL111461  17.764  12.462   6.162 -0.0046  0.0467  0.1481
  717loPI   GL211462  17.659  12.236   6.253 -0.0736  0.1245 -0.3194
  717loPI   C1A11463  17.579  12.781   6.464  0.0447 -0.3108  0.0910
  717loPI   C2A11464  17.609  12.824   6.835  0.3033 -0.0263  0.1022
  717loPI   C3A11465  17.733  12.767   7.269  0.2691  0.0371  0.2594
  717loPI   C4A11466  17.594  12.864   7.682 -0.1227  0.4732 -0.1334
  717loPI   C5A11467  17.468  12.812   8.072 -0.1952 -0.1350 -0.0779
  717loPI   C6A11468  17.245  13.077   8.400  0.3006  0.0104 -0.1212
  717loPI   C1B11469  17.702  12.280   6.687 -0.0091  0.1468 -0.0686
  717loPI   C2B11470  17.719  12.324   7.073 -0.2835 -0.1661 -0.0829
  717loPI   C3B11471  17.762  12.257   7.514 -0.1624  0.0567 -0.3957
  717loPI   C4B11472  17.604  12.260   7.985 -0.2757 -0.0005 -0.0436
  718loPI    C111473  17.679   2.523   5.227  0.2510 -0.0182  0.2276
  718loPI    C211474  17.868   2.288   4.966 -0.2737 -0.1531 -0.0460
  718loPI    C311475  17.718   2.639   4.846 -0.1485 -0.0199  0.1812
  718loPI   PO411476  17.811   2.439   5.430  0.5052  0.2166  0.0732
  718loPI   GL111477  17.740   2.492   5.882  0.0948  0.1231  0.0780
  718loPI   GL211478  18.097   2.316   5.839 -0.0733  0.1489  0.0629
  718loPI   C1A11479  17.855   2.401   6.266  0.0318 -0.0032  0.0991
  718loPI   C2A11480  17.856   2.458   6.680 -0.2498 -0.0179 -0.0319
  718loPI   C3A11481  17.834   2.534   7.089  0.3947  0.2378  0.0349
  718loPI   C4A11482  17.863   2.501   7.510 -0.2183  0.1966 -0.0163
  718loPI   C5A11483  17.985   2.404   7.859 -0.0844 -0.1561 -0.1593
  718loPI   C6A11484  18.428   2.221   7.938  0.0712 -0.1520  0.0374
  718loPI   C1B11485  18.351   2.295   6.192  0.4097 -0.0382 -0.1218
  718loPI   C2B11486  18.359   2.230   6.623  0.0157 -0.0900  0.0266
  718loPI   C3B11487  18.339   2.371   6.990 -0.0900 -0.0606  0.1584
  718loPI   C4B11488  18.317   2.276   7.393  0.0804 -0.2229 -0.0820
  719loPI    C111489   2.058  17.015   5.246  0.3056 -0.2265  0.0228
  719loPI    C211490   1.689  16.949   5.107  0.2295  0.0153  0.1041
  719loPI    C311491   2.005  16.799   4.914  0.1167  0.2109 -0.2415
  719loPI   PO411492   2.091  16.995   5.516  0.0881 -0.1035  0.3386
  719loPI   GL111493   2.229  17.270   5.728  0.2206 -0.1484  0.1779
  719loPI   GL211494   2.287  17.004   5.927  0.3869  0.1886  0.0038
  719loPI   C1A11495   2.093  17.319   6.233  0.0059 -0.2055  0.1158
  719loPI   C2A11496   2.093  17.219   6.633  0.1226  0.0615  0.1062
  719loPI   C3A11497   2.204  17.065   7.035  0.0195 -0.0974 -0.1464
  719loPI   C4A11498   2.131  17.124   7.573  0.0061  0.1278 -0.0649
  719loPI   C5A11499   2.139  17.094   8.061  0.2543  0.5251  0.2133
  719loPI   C6A11500   2.077  16.751   8.365 -0.1000 -0.1777  0.0592
  719loPI   C1B11501   2.170  16.786   6.395  0.0440  0.0417  0.1153
  719loPI   C2B11502   2.132  16.646   6.782  0.1533  0.1653  0.0038
  719loPI   C3B11503   2.163  16.654   7.339  0.2665 -0.0682 -0.0001
  719loPI   C4B11504   2.258  16.594   7.812  0.0024  0.0659  0.2966
  720loPI    C111505  13.231  17.848   5.217  0.1723  0.0333 -0.0610
  720loPI    C211506  13.094  17.542   4.998 -0.0451  0.0870 -0.0025
  720loPI    C311507  13.290  17.843   4.822  0.0476 -0.0180 -0.0795
  720loPI   PO411508  13.067  17.854   5.510 -0.4481  0.0332  0.1024
  720loPI   GL111509  13.056  17.643   5.880 -0.1198  0.1852 -0.1069
  720loPI   GL211510  12.748  17.465   6.003 -0.0696  0.1550  0.1564
  720loPI   C1A11511  13.360  17.397   6.259  0.0997  0.0819  0.0979
  720loPI   C2A11512  13.380  17.354   6.718 -0.1019  0.2429  0.2051
  720loPI   C3A11513  13.422  17.376   7.143 -0.1613  0.0166 -0.0826
  720loPI   C4A11514  13.399  17.419   7.584  0.1022 -0.2328 -0.1401
  720loPI   C5A11515  13.533  17.420   7.897 -0.3160  0.1292  0.0759
  720loPI   C6A11516  13.422  17.397   8.358 -0.1791 -0.0504 -0.0889
  720loPI   C1B11517  12.931  17.555   6.491 -0.2638 -0.1718  0.1138
  720loPI   C2B11518  12.895  17.650   6.859 -0.0856  0.0688  0.2080
  720loPI   C3B11519  12.915  17.657   7.284 -0.0251 -0.0657 -0.0931
  720loPI   C4B11520  12.916  17.568   7.713 -0.3213 -0.0132  0.2382
  721loPI    C111521   4.820   4.416   5.399 -0.0194  0.1288 -0.0089
  721loPI    C211522   5.118   4.527   5.157  0.0638  0.1931  0.1215
  721loPI    C311523   4.765   4.714   5.138  0.0841  0.2275  0.0810
  721loPI   PO411524   4.801   4.399   5.687 -0.2573  0.1701 -0.3442
  721loPI   GL111525   4.971   4.408   6.090 -0.0268  0.2041 -0.1829
  721loPI   GL211526   4.907   4.746   6.142  0.0007 -0.1094 -0.0591
  721loPI   C1A11527   4.934   4.285   6.514 -0.2634  0.2106  0.1686
  721loPI   C2A11528   5.077   4.176   6.872 -0.2455 -0.1451  0.1814
  721loPI   C3A11529   5.006   4.194   7.306 -0.1237  0.1878 -0.0205
  721loPI   C4A11530   4.957   4.252   7.764  0.1661 -0.3244  0.0726
  721loPI   C5A11531   5.237   4.531   8.103 -0.0849 -0.0895 -0.0769
  721loPI   C6A11532   5.172   4.549   8.568  0.2173  0.0266 -0.0368
  721loPI   C1B11533   4.958   4.835   6.576 -0.2300 -0.1219  0.0041
  721loPI   C2B11534   4.971   4.682   6.999  0.1369 -0.0167  0.0699
  721loPI   C3B11535   4.990   4.776   7.400  0.0027  0.1956  0.1994
  721loPI   C4B11536   4.934   4.706   7.798  0.0855  0.3675 -0.0055
  722loPI    C111537   2.916  15.383   5.433  0.0318 -0.2453  0.0325
  722loPI    C211538   2.955  15.005   5.310  0.1119 -0.1941 -0.1015
  722loPI    C311539   3.106  15.303   5.090  0.0927 -0.0877  0.0286
  722loPI   PO411540   2.601  15.312   5.537 -0.0442 -0.1983  0.0713
  722loPI   GL111541   2.554  15.424   5.971  0.1749  0.0128 -0.3342
  722loPI   GL211542   2.286  15.606   6.184 -0.1679  0.0840  0.0632
  722loPI   C1A11543   2.571  15.319   6.472 -0.0011  0.2053  0.0962
  722loPI   C2A11544   2.569  15.261   6.773 -0.2627 -0.1529 -0.2280
  722loPI   C3A11545   2.716  15.153   7.134  0.0877  0.3055  0.3465
  722loPI   C4A11546   2.711  14.811   7.354  0.0297 -0.0637 -0.0363
  722loPI   C5A11547   2.816  14.699   7.822 -0.0480 -0.3314  0.0237
  722loPI   C6A11548   2.827  14.990   8.162 -0.1848  0.0276  0.4773
  722loPI   C1B11549   2.316  15.729   6.567  0.3553  0.1292 -0.0087
  722loPI   C2B11550   2.322  15.616   7.054  0.1082  0.2376  0.2792
  722loPI   C3B11551   2.381  15.529   7.464 -0.3284  0.2683 -0.0454
  722loPI   C4B11552   2.472  15.089   7.740  0.0985 -0.1719 -0.1694
  723loPI    C111553  17.935  14.745   5.470  0.2042 -0.3520  0.0114
  723loPI    C211554  17.804  14.674   5.099  0.1872 -0.1615 -0.0198
  723loPI    C311555  17.684  15.001   5.295  0.3322 -0.1719  0.0885
  723loPI   PO411556  17.978  14.607   5.562  0.1525  0.0286 -0.1398
  723loPI   GL111557  18.012  14.487   6.080  0.1236 -0.0396 -0.0897
  723loPI   GL211558  18.261  14.641   5.962  0.1632 -0.2514 -0.2027
  723loPI   C1A11559  17.921  14.587   6.518  0.0633  0.1988  0.1543
  723loPI   C2A11560  17.778  14.688   6.945 -0.1729  0.3691  0.2801
  723loPI   C3A11561  17.843  14.727   7.410  0.2366 -0.1088  0.0532
  723loPI   C4A11562  17.870  14.735   7.889  0.0711  0.0243 -0.0958
  723loPI   C5A11563  18.014  15.022   8.207 -0.4703  0.2805 -0.2049
  723loPI   C6A11564  18.117  15.248   8.466  0.1069  0.0781 -0.0956
  723loPI   C1B11565  18.253  14.885   6.370 -0.1109 -0.3224 -0.1291
  723loPI   C2B11566  18.238  14.929   6.824 -0.2627  0.3711  0.1291
  723loPI   C3B11567  18.140  15.109   7.225 -0.2990  0.0524  0.0938
  723loPI   C4B11568  18.192  15.091   7.687  0.1604 -0.1820  0.0150
  724loPI    C111569  10.102   4.998   5.343  0.0708 -0.0276 -0.0792
  724loPI    C211570   9.774   5.021   5.570  0.1375  0.0183  0.0136
  724loPI    C311571   9.753   4.863   5.203 -0.0333  0.2230 -0.0671
  724loPI   PO411572  10.269   5.270   5.362 -0.1889  0.2280 -0.1571
  724loPI   GL111573  10.288   5.228   5.833 -0.0588  0.0620 -0.2286
  724loPI   GL211574  10.448   5.521   5.791 -0.1108  0.1853  0.0560
  724loPI   C1A11575  10.324   5.051   6.244 -0.2426 -0.1560 -0.1351
  724loPI   C2A11576  10.268   4.977   6.610  0.2143  0.0672 -0.2332
  724loPI   C3A11577  10.269   5.098   7.003  0.2113  0.0926  0.2384
  724loPI   C4A11578  10.433   5.229   7.416 -0.1363  0.0980 -0.1196
  724loPI   C5A11579  10.425   5.168   7.807 -0.1624  0.4748  0.3770
  724loPI   C6A11580  10.407   5.134   8.221  0.0171  0.3761 -0.3042
  724loPI   C1B11581  10.225   5.581   6.211 -0.1519  0.1139 -0.2720
  724loPI   C2B11582  10.164   5.502   6.585 -0.2844 -0.0459 -0.0201
  724loPI   C3B11583  10.249   5.599   7.008  0.0701 -0.0127 -0.2702
  724loPI   C4B11584  10.316   5.663   7.456  0.0469  0.1937  0.2484
  725loPI    C111585  15.134  15.068   5.417 -0.0262  0.0090  0.0716
  725loPI    C211586  15.081  14.844   5.090 -0.2757  0.0019  0.1155
  725loPI    C311587  14.929  15.214   5.106 -0.0663  0.0884  0.1350
  725loPI   PO411588  15.155  14.877   5.632 -0.2708  0.0031  0.0357
  725loPI   GL111589  15.090  14.949   6.010  0.0545  0.1919 -0.0182
  725loPI   GL211590  15.424  15.032   6.096  0.2112 -0.1060 -0.0518
  725loPI   C1A11591  15.144  14.768   6.484 -0.0754  0.0085  0.3826
  725loPI   C2A11592  15.189  14.698   6.923 -0.1588 -0.2076  0.0569
  725loPI   C3A11593  15.090  14.777   7.336  0.4907 -0.0483 -0.1130
  725loPI   C4A11594  15.123  14.798   7.782  0.1449  0.0742  0.0892
  725loPI   C5A11595  15.144  14.887   8.232 -0.0095  0.1001  0.0627
  725loPI   C6A11596  15.519  14.692   8.552  0.1552  0.1475  0.0518
  725loPI   C1B11597  15.511  15.099   6.576 -0.0641  0.0951  0.0865
  725loPI   C2B11598  15.516  15.091   7.099  0.2225  0.0714 -0.1529
  725loPI   C3B11599  15.546  15.139   7.466  0.0876  0.0715 -0.2310
  725loPI   C4B11600  15.587  15.119   7.937  0.0343  0.0963  0.0768
  726loPI    C111601   9.998   3.016   5.144 -0.0157 -0.1079 -0.1070
  726loPI    C211602   9.792   3.279   4.923 -0.1252 -0.0816  0.0248
  726loPI    C311603  10.141   3.135   4.790 -0.0100  0.2130 -0.0002
  726loPI   PO411604  10.006   3.134   5.356  0.0225 -0.0125  0.0570
  726loPI   GL111605   9.804   3.141   5.864 -0.1202  0.3381 -0.0894
  726loPI   GL211606   9.603   3.041   6.105  0.0537 -0.0129  0.0892
  726loPI   C1A11607  10.058   3.409   6.177  0.2374  0.2468 -0.1270
  726loPI   C2A11608  10.095   3.624   6.468  0.2078 -0.1106  0.0780
  726loPI   C3A11609  10.040   3.728   6.903 -0.1039  0.0991 -0.3176
  726loPI   C4A11610  10.120   3.749   7.287  0.1805 -0.1562 -0.3889
  726loPI   C5A11611  10.033   3.791   7.690  0.0302 -0.0549  0.2932
  726loPI   C6A11612  10.253   3.765   8.013  0.1152 -0.1130  0.0818
  726loPI   C1B11613   9.702   2.886   6.486 -0.0926  0.1498 -0.0112
  726loPI   C2B11614   9.782   2.885   6.866  0.2580 -0.0263  0.1159
  726loPI   C3B11615   9.698   2.931   7.280  0.3248  0.3053  0.0824
  726loPI   C4B11616   9.788   2.912   7.671  0.0093  0.0620  0.0768
  727loPI    C111617   5.834   9.331   5.936 -0.0632  0.1714 -0.1235
  727loPI    C211618   6.037   9.630   5.765 -0.0519  0.0157 -0.3882
  727loPI    C311619   5.715   9.709   5.989  0.1302  0.2442 -0.2017
  727loPI   PO411620   6.017   9.174   5.922  0.0902 -0.0908 -0.1266
  727loPI   GL111621   6.128   8.980   6.262  0.0453  0.0736 -0.1605
  727loPI   GL211622   6.199   9.102   6.413 -0.0193 -0.1145 -0.0285
  727loPI   C1A11623   5.859   8.873   6.670 -0.2536 -0.1572  0.5310
  727loPI   C2A11624   5.805   8.851   7.191 -0.1183  0.0625 -0.1167
  727loPI   C3A11625   6.211   9.150   7.405 -0.1200 -0.0259 -0.3490
  727loPI   C4A11626   6.438   9.411   7.728  0.0766  0.0978  0.1083
  727loPI   C5A11627   6.644   9.394   8.147  0.1296  0.0758  0.1974
  727loPI   C6A11628   6.838   9.673   8.448  0.4134 -0.1636 -0.0754
  727loPI   C1B11629   6.196   9.153   6.893 -0.1264 -0.1972  0.2712
  727loPI   C2B11630   6.547   9.401   7.052  0.3633 -0.0196 -0.0485
  727loPI   C3B11631   6.859   9.714   6.944  0.1993  0.0109 -0.1179
  727loPI   C4B11632   6.921   9.919   6.621 -0.0809 -0.3059 -0.2534
  728loPI    C111633  11.122   5.118   5.234 -0.1156  0.1783 -0.0234
  728loPI    C211634  11.499   5.248   5.202  0.0232 -0.2194 -0.0667
  728loPI    C311635  11.303   5.121   4.877 -0.1954  0.1006 -0.0648
  728loPI   PO411636  11.173   4.946   5.458 -0.2810 -0.0765  0.2151
  728loPI   GL111637  11.273   4.890   5.947  0.1005 -0.2104  0.0473
  728loPI   GL211638  11.329   4.612   6.056 -0.3015 -0.2154  0.1695
  728loPI   C1A11639  11.226   5.198   6.303  0.1740 -0.0464 -0.2112
  728loPI   C2A11640  11.160   5.244   6.722 -0.0384 -0.0297 -0.2270
  728loPI   C3A11641  11.246   5.164   7.220 -0.2128 -0.0848 -0.1840
  728loPI   C4A11642  11.203   5.339   7.668 -0.0737  0.0923  0.1567
  728loPI   C5A11643  10.971   5.173   8.048  0.1507  0.0790  0.2178
  728loPI   C6A11644  10.933   4.878   8.314 -0.1636  0.1156 -0.0476
  728loPI   C1B11645  11.327   4.763   6.507  0.0489 -0.0558 -0.2031
  728loPI   C2B11646  11.180   4.763   6.897 -0.1183 -0.2326  0.1324
  728loPI   C3B11647  11.342   4.710   7.236 -0.0054  0.0867  0.0489
  728loPI   C4B11648  11.325   4.836   7.679 -0.0256  0.0208  0.0695
  729loPI    C111649   2.092  12.785   5.801 -0.0820 -0.0699  0.0027
  729loPI    C211650   2.304  12.873   5.473  0.1083 -0.3242  0.0546
  729loPI    C311651   2.030  12.582   5.462 -0.1725 -0.0637  0.0152
  729loPI   PO411652   2.177  12.812   6.004  0.2900 -0.2666  0.3239
  729loPI   GL111653   2.175  12.880   6.364  0.2723 -0.1901  0.1396
  729loPI   GL211654   1.938  12.697   6.455  0.2991  0.0760  0.0740
  729loPI   C1A11655   2.172  12.909   6.871  0.2377  0.1461 -0.2943
  729loPI   C2A11656   1.899  12.925   7.266 -0.2380  0.0225  0.2001
  729loPI   C3A11657   2.058  13.038   7.545 -0.2930 -0.0576  0.1046
  729loPI   C4A11658   2.248  13.070   7.856  0.3757  0.0875 -0.4019
  729loPI   C5A11659   2.438  13.016   8.173 -0.3457 -0.0666 -0.1356
  729loPI   C6A11660   2.776  12.795   8.168 -0.0289 -0.0027  0.2321
  729loPI   C1B11661   1.773  12.558   6.891 -0.1611 -0.5458 -0.2070
  729loPI   C2B11662   1.503  12.522   7.354 -0.3422 -0.1780 -0.2511
  729loPI   C3B11663   1.440  12.577   7.823  0.0330  0.3056 -0.2005
  729loPI   C4B11664   1.475  12.732   8.199  0.2338  0.1133 -0.1215
  730loPI    C111665   4.390  16.298   5.302  0.1324 -0.0103 -0.0573
  730loPI    C211666   4.484  15.917   5.227 -0.0054 -0.1059  0.2415
  730loPI    C311667   4.171  16.085   5.044  0.1083 -0.1075  0.0427
  730loPI   PO411668   4.455  16.296   5.592  0.0981 -0.1906 -0.0569
  730loPI   GL111669   4.667  16.328   5.970  0.0046  0.0067 -0.1530
  730loPI   GL211670   4.885  16.495   6.186 -0.1609 -0.0276  0.0263
  730loPI   C1A11671   4.543  16.206   6.359  0.2011 -0.2595  0.1164
  730loPI   C2A11672   4.439  16.140   6.830 -0.2325 -0.0345  0.3418
  730loPI   C3A11673   4.492  16.109   7.319 -0.2040 -0.2831 -0.1859
  730loPI   C4A11674   4.621  16.237   7.643 -0.2399  0.0714 -0.0190
  730loPI   C5A11675   4.697  16.250   8.200 -0.3105  0.0800  0.0571
  730loPI   C6A11676   4.377  16.475   8.296 -0.2694 -0.1727  0.0481
  730loPI   C1B11677   4.866  16.519   6.588 -0.1650  0.2698 -0.1651
  730loPI   C2B11678   4.831  16.514   6.984  0.1123 -0.1296 -0.2079
  730loPI   C3B11679   4.998  16.459   7.411  0.1762  0.0587 -0.1532
  730loPI   C4B11680   5.000  16.493   7.842 -0.1288  0.2343  0.2475
  731loPI    C111681   3.545   3.784   5.466 -0.1696 -0.2810  0.0814
  731loPI    C211682   3.639   3.497   5.203  0.0829 -0.0949 -0.0361
  731loPI    C311683   3.660   3.881   5.095  0.4057 -0.0065  0.3192
  731loPI   PO411684   3.631   3.729   5.709  0.1738 -0.2929  0.0385
  731loPI   GL111685   3.578   3.835   6.174 -0.4486  0.3786 -0.0688
  731loPI   GL211686   3.322   3.909   6.327  0.1097 -0.0112 -0.0294
  731loPI   C1A11687   3.733   3.883   6.544  0.0097 -0.2449 -0.1291
  731loPI   C2A11688   3.700   3.911   6.951 -0.0089  0.0991  0.3953
  731loPI   C3A11689   3.691   3.703   7.417  0.0724 -0.0274  0.1623
  731loPI   C4A11690   3.723   3.847   7.872 -0.1824  0.1761  0.1702
  731loPI   C5A11691   3.520   3.862   8.270  0.0112 -0.1390 -0.0892
  731loPI   C6A11692   3.346   3.771   8.671 -0.0638  0.3921  0.0032
  731loPI   C1B11693   3.222   4.014   6.781  0.0952  0.1314 -0.4698
  731loPI   C2B11694   3.281   4.050   7.261  0.1183 -0.1077 -0.1818
  731loPI   C3B11695   3.250   3.999   7.668 -0.1911  0.0500 -0.1768
  731loPI   C4B11696   3.107   4.007   8.021 -0.2116  0.2622 -0.2285
  732loPI    C111697   1.679   2.796   5.412  0.1426  0.3358 -0.2060
  732loPI    C211698   2.000   2.844   5.178  0.1674 -0.0441 -0.2562
  732loPI    C311699   1.633   2.867   5.021  0.1803 -0.1074 -0.2958
  732loPI   PO411700   1.817   2.660   5.593 -0.1606 -0.0088  0.0749
  732loPI   GL111701   1.923   2.725   6.000  0.3213 -0.0858  0.2734
  732loPI   GL211702   2.099   2.779   6.142  0.0374  0.2571 -0.0017
  732loPI   C1A11703   1.643   2.682   6.374  0.1352  0.0079 -0.1234
  732loPI   C2A11704   1.574   2.826   6.816  0.0269  0.1460 -0.2137
  732loPI   C3A11705   1.688   2.763   7.255 -0.4147 -0.0136 -0.2040
  732loPI   C4A11706   1.689   2.730   7.699  0.1002 -0.0854 -0.0237
  732loPI   C5A11707   1.364   2.724   7.937  0.1754  0.1326 -0.1054
  732loPI   C6A11708   1.350   2.538   8.369 -0.2150 -0.2205 -0.0157
  732loPI   C1B11709   2.082   2.598   6.542  0.2982 -0.0612  0.2303
  732loPI   C2B11710   2.088   2.628   7.034 -0.0903  0.1761 -0.0921
  732loPI   C3B11711   2.145   2.514   7.484 -0.3272 -0.0711  0.0389
  732loPI   C4B11712   2.121   2.422   7.893  0.0455 -0.3402 -0.1452
  733loPI    C111713   5.015  11.741   5.906 -0.0938  0.1644 -0.1131
  733loPI    C211714   5.037  11.753   5.506 -0.0713  0.0777 -0.1147
  733loPI    C311715   4.779  11.989   5.700 -0.0263  0.1774 -0.1756
  733loPI   PO411716   5.205  11.799   6.032  0.2206  0.0059  0.2167
  733loPI   GL111717   5.292  11.958   6.423  0.0660 -0.4564  0.1529
  733loPI   GL211718   5.326  12.250   6.373  0.0100 -0.1145 -0.3521
  733loPI   C1A11719   5.515  11.741   6.809 -0.2210 -0.1236 -0.0737
  733loPI   C2A11720   5.519  11.729   7.185 -0.1405 -0.3172  0.1788
  733loPI   C3A11721   5.153  11.730   7.421 -0.1074  0.0163 -0.2918
  733loPI   C4A11722   4.727  11.643   7.570 -0.1711  0.2876  0.0466
  733loPI   C5A11723   4.335  11.546   7.898  0.0482  0.2321 -0.0841
  733loPI   C6A11724   4.006  11.284   8.001  0.1668 -0.1456  0.3219
  733loPI   C1B11725   5.493  12.201   6.800 -0.2007 -0.1574  0.3034
  733loPI   C2B11726   5.424  12.313   7.213  0.0574 -0.1174  0.0561
  733loPI   C3B11727   5.453  12.242   7.584 -0.1036  0.0199 -0.2334
  733loPI   C4B11728   5.434  12.369   7.906 -0.3540 -0.0303 -0.1973
  734loPI    C111729  13.032  16.993   5.144 -0.0322 -0.0402 -0.0213
  734loPI    C211730  12.974  16.610   5.044 -0.1225 -0.0478  0.0593
  734loPI    C311731  12.918  16.898   4.773 -0.1223 -0.0869  0.0179
  734loPI   PO411732  13.243  17.003   5.226 -0.2108  0.0069  0.2157
  734loPI   GL111733  13.387  17.052   5.699 -0.3823 -0.1702 -0.3561
  734loPI   GL211734  13.119  17.079   5.898  0.0705 -0.0111 -0.0411
  734loPI   C1A11735  13.454  16.900   6.145  0.1636  0.2245 -0.0600
  734loPI   C2A11736  13.428  16.853   6.537 -0.2673 -0.1344  0.2499
  734loPI   C3A11737  13.465  16.889   6.973  0.1230  0.0307  0.2629
  734loPI   C4A11738  13.455  16.847   7.403 -0.0788  0.0225  0.0642
  734loPI   C5A11739  13.597  16.950   7.679  0.0518 -0.0400  0.2317
  734loPI   C6A11740  13.384  17.004   8.077  0.1467 -0.0742  0.2420
  734loPI   C1B11741  12.971  17.049   6.337  0.0918 -0.0028  0.1490
  734loPI   C2B11742  12.973  17.039   6.716  0.2289  0.0280  0.1731
  734loPI   C3B11743  12.994  17.036   7.164 -0.2768  0.2508 -0.1615
  734loPI   C4B11744  13.066  17.039   7.615 -0.1836 -0.0707 -0.2757
  735loPI    C111745  11.935  12.783   5.393  0.1180  0.3415  0.0407
  735loPI    C211746  11.753  13.065   5.176 -0.2406  0.0971  0.0161
  735loPI    C311747  11.885  12.731   4.999 -0.2498  0.0372  0.1215
  735loPI   PO411748  12.069  12.912   5.580  0.1053  0.0379 -0.0651
  735loPI   GL111749  12.167  12.801   6.108  0.5404 -0.2467  0.0219
  735loPI   GL211750  12.073  13.161   5.995 -0.0720 -0.0438 -0.1718
  735loPI   C1A11751  12.131  13.033   6.579 -0.2747 -0.1208  0.2640
  735loPI   C2A11752  12.202  13.086   6.994 -0.0360 -0.1857 -0.1064
  735loPI   C3A11753  12.153  13.134   7.456  0.1195  0.3350  0.1189
  735loPI   C4A11754  12.093  13.053   7.860 -0.1880 -0.2239 -0.3474
  735loPI   C5A11755  12.025  12.797   8.149 -0.0612  0.1740 -0.2194
  735loPI   C6A11756  11.737  12.520   8.032 -0.2907  0.3788  0.1125
  735loPI   C1B11757  12.086  13.445   6.288 -0.0262  0.0416  0.3287
  735loPI   C2B11758  12.180  13.580   6.717 -0.1061  0.2087  0.0785
  735loPI   C3B11759  12.068  13.551   7.130 -0.0234  0.1171 -0.0075
  735loPI   C4B11760  12.051  13.617   7.537 -0.2122  0.1580 -0.1538
  736loPI    C111761  12.579   2.529   5.227  0.0219 -0.3490 -0.2123
  736loPI    C211762  12.710   2.906   5.265  0.0264 -0.3615 -0.1014
  736loPI    C311763  12.698   2.734   4.904 -0.2546 -0.1548 -0.1940
  736loPI   PO411764  12.674   2.386   5.428  0.2914  0.0831 -0.0820
  736loPI   GL111765  12.613   2.307   5.817  0.1207 -0.3084  0.3374
  736loPI   GL211766  12.371   2.254   5.962  0.1253 -0.2179 -0.1538
  736loPI   C1A11767  12.925   2.449   6.150 -0.6221  0.0505  0.1520
  736loPI   C2A11768  12.845   2.509   6.573 -0.0062  0.0477 -0.1643
  736loPI   C3A11769  12.963   2.511   7.055  0.1080 -0.0979  0.3025
  736loPI   C4A11770  12.973   2.594   7.531 -0.2820  0.3058  0.2727
  736loPI   C5A11771  12.914   2.608   7.939 -0.1354  0.1814  0.0817
  736loPI   C6A11772  13.198   2.525   8.330  0.2740  0.3387 -0.2003
  736loPI   C1B11773  12.508   2.093   6.320 -0.1001  0.0990 -0.2251
  736loPI   C2B11774  12.485   2.134   6.703  0.1158 -0.0350  0.3082
  736loPI   C3B11775  12.508   2.214   7.136 -0.2528 -0.1622  0.0543
  736loPI   C4B11776  12.555   2.239   7.594 -0.1226 -0.0720  0.5609
  737loPI    C111777  11.007   9.416   5.118  0.1585 -0.1874 -0.0993
  737loPI    C211778  11.163   9.730   4.925  0.0752 -0.1334 -0.0794
  737loPI    C311779  11.396   9.420   5.024  0.1580 -0.0774 -0.0979
  737loPI   PO411780  10.822   9.499   5.237 -0.2038 -0.0228  0.1812
  737loPI   GL111781  10.780   9.515   5.687  0.2240 -0.3666 -0.1740
  737loPI   GL211782  10.532   9.407   5.815 -0.1782  0.3009 -0.1150
  737loPI   C1A11783  10.856   9.725   6.004 -0.2411  0.1144  0.1247
  737loPI   C2A11784  10.953   9.735   6.438 -0.0845  0.2041 -0.0323
  737loPI   C3A11785  10.956   9.775   6.855  0.0428 -0.1032  0.4884
  737loPI   C4A11786  10.909   9.843   7.314 -0.1404  0.0348 -0.0085
  737loPI   C5A11787  10.904   9.693   7.827 -0.1473 -0.0143  0.2786
  737loPI   C6A11788  10.945   9.607   8.284  0.3023 -0.2016 -0.0635
  737loPI   C1B11789  10.576   9.305   6.252  0.1245 -0.0643  0.0488
  737loPI   C2B11790  10.552   9.394   6.659 -0.2543  0.2932 -0.0009
  737loPI   C3B11791  10.599   9.460   7.124 -0.1825 -0.4339  0.4026
  737loPI   C4B11792  10.607   9.425   7.557  0.2776 -0.2988 -0.0078
  738loPI    C111793   0.828   9.158   5.269 -0.1783 -0.0958 -0.0244
  738loPI    C211794   1.143   9.052   5.046 -0.0387  0.1188  0.0667
  738loPI    C311795   0.922   9.368   4.942 -0.2555 -0.0594 -0.0232
  738loPI   PO411796   0.914   9.274   5.574  0.2724  0.2304  0.1733
  738loPI   GL111797   0.852   9.167   6.011 -0.1687  0.0017 -0.1412
  738loPI   GL211798   1.046   8.925   6.124 -0.1510 -0.2439 -0.1098
  738loPI   C1A11799   1.052   9.402   6.353  0.0960  0.1871 -0.0810
  738loPI   C2A11800   1.316   9.470   6.788  0.0836  0.0522 -0.1942
  738loPI   C3A11801   1.222   9.331   7.323  0.2006 -0.0036  0.0608
  738loPI   C4A11802   1.153   9.285   7.864 -0.0867 -0.2233 -0.1634
  738loPI   C5A11803   1.380   9.087   8.228 -0.2126  0.1682  0.2160
  738loPI   C6A11804   1.543   8.974   8.661 -0.1526 -0.2062  0.3671
  738loPI   C1B11805   0.770   9.013   6.475 -0.0824  0.1089 -0.0768
  738loPI   C2B11806   0.852   9.092   6.964 -0.0939 -0.3939 -0.0529
  738loPI   C3B11807   0.798   8.946   7.356  0.0157 -0.2272  0.0585
  738loPI   C4B11808   0.708   8.957   7.788 -0.0429 -0.1313  0.0921
  739loPI    C111809  13.940   3.438   5.212 -0.1185 -0.1369  0.3356
  739loPI    C211810  13.837   3.103   5.019 -0.2112  0.1028 -0.0416
  739loPI    C311811  14.050   3.384   4.831 -0.1280  0.2550  0.2737
  739loPI   PO411812  14.106   3.368   5.449  0.1575 -0.1366 -0.1541
  739loPI   GL111813  14.202   3.346   5.940 -0.0414  0.3763  0.0721
  739loPI   GL211814  14.482   3.135   5.881 -0.3534  0.0687 -0.0477
  739loPI   C1A11815  14.165   3.516   6.331 -0.0998  0.0481 -0.0137
  739loPI   C2A11816  14.133   3.501   6.760 -0.2898 -0.0162 -0.2425
  739loPI   C3A11817  14.141   3.493   7.207 -0.0080  0.2166  0.0247
  739loPI   C4A11818  14.138   3.530   7.678 -0.0448  0.0051 -0.0929
  739loPI   C5A11819  14.080   3.572   8.087 -0.2369 -0.2540  0.2130
  739loPI   C6A11820  14.257   3.486   8.327 -0.1076 -0.4466  0.2729
  739loPI   C1B11821  14.609   3.289   6.380 -0.0806  0.1412  0.0496
  739loPI   C2B11822  14.629   3.369   6.884  0.1030  0.1620 -0.3163
  739loPI   C3B11823  14.676   3.375   7.343  0.0757 -0.1460  0.1847
  739loPI   C4B11824  14.644   3.271   7.754  0.0886  0.1064 -0.0445
  740loPI    C111825  16.987   2.161   5.230  0.0403  0.1212  0.0886
  740loPI    C211826  17.075   1.815   5.048  0.1299  0.2777 -0.1705
  740loPI    C311827  17.071   2.156   4.839  0.1555  0.4511  0.1069
  740loPI   PO411828  16.988   2.076   5.465  0.4637 -0.0014  0.1170
  740loPI   GL111829  16.854   2.028   5.837  0.3032  0.0312 -0.0764
  740loPI   GL211830  17.038   2.167   5.964 -0.3628 -0.0054 -0.3766
  740loPI   C1A11831  16.649   1.992   6.263  0.0617  0.2724  0.1875
  740loPI   C2A11832  16.572   1.947   6.793 -0.0842  0.0443 -0.4633
  740loPI   C3A11833  16.666   2.037   7.286 -0.2496 -0.0889  0.1537
  740loPI   C4A11834  16.641   1.994   7.698 -0.0046 -0.1837  0.1983
  740loPI   C5A11835  16.494   1.821   8.049  0.0600  0.4604 -0.0336
  740loPI   C6A11836  16.445   1.737   8.453  0.0506  0.2226  0.2195
  740loPI   C1B11837  16.966   2.323   6.397 -0.0633 -0.0871  0.0751
  740loPI   C2B11838  16.936   2.329   6.806 -0.0627  0.0504  0.0302
  740loPI   C3B11839  16.992   2.359   7.285  0.1101 -0.0463  0.2626
  740loPI   C4B11840  17.002   2.389   7.726  0.0080 -0.0581 -0.0952
  741loPI    C111841   0.056  16.249   5.293 -0.1397  0.1041 -0.2809
  741loPI    C211842   0.216  16.414   4.965 -0.0478  0.0678 -0.2548
  741loPI    C311843   0.215  16.016   5.009  0.2530  0.0853 -0.0541
  741loPI   PO411844   0.176  16.364   5.480  0.0880 -0.1283  0.0572
  741loPI   GL111845   0.123  16.433   6.019 -0.0206 -0.0155  0.2628
  741loPI   GL211846  -0.201  16.458   6.200  0.1061  0.0732 -0.1150
  741loPI   C1A11847   0.399  16.342   6.392 -0.2610  0.2846  0.0219
  741loPI   C2A11848   0.472  16.295   6.854 -0.0228 -0.0515 -0.1396
  741loPI   C3A11849   0.402  16.378   7.264  0.0631  0.5340 -0.2596
  741loPI   C4A11850   0.472  16.403   7.684  0.1542 -0.3000  0.2352
  741loPI   C5A11851   0.569  16.409   8.030  0.0243  0.0025  0.3606
  741loPI   C6A11852   0.602  16.101   8.357  0.0408  0.0714 -0.0925
  741loPI   C1B11853  -0.043  16.447   6.579 -0.0629 -0.2083 -0.1743
  741loPI   C2B11854   0.071  16.623   6.999 -0.1608 -0.1876 -0.1959
  741loPI   C3B11855  -0.020  16.585   7.419 -0.0897 -0.2918 -0.1761
  741loPI   C4B11856  -0.014  16.639   7.798 -0.2250  0.2803  0.1057
  742loPI    C111857   2.838   8.105   5.819 -0.0500  0.1958  0.2333
  742loPI    C211858   2.529   7.989   5.593  0.0820  0.0715  0.1155
  742loPI    C311859   2.880   8.080   5.422  0.1171  0.1931  0.2504
  742loPI   PO411860   2.784   7.949   6.054  0.0782  0.2001 -0.3102
  742loPI   GL111861   2.827   8.152   6.342  0.0040  0.0700 -0.3450
  742loPI   GL211862   3.069   7.921   6.477 -0.2443  0.0161 -0.1340
  742loPI   C1A11863   2.670   8.107   6.833 -0.1986  0.1769  0.3306
  742loPI   C2A11864   2.673   8.147   7.400 -0.1819  0.2168  0.2948
  742loPI   C3A11865   2.630   8.358   7.823  0.4235 -0.2780 -0.2693
  742loPI   C4A11866   2.635   8.683   8.165 -0.1638  0.1520 -0.0747
  742loPI   C5A11867   2.962   9.056   8.088  0.2181  0.0525 -0.1681
  742loPI   C6A11868   3.114   9.172   7.722  0.1029 -0.0139 -0.2900
  742loPI   C1B11869   3.135   7.903   6.956  0.2767 -0.0378 -0.3137
  742loPI   C2B11870   3.134   7.962   7.342  0.0371  0.1261  0.1237
  742loPI   C3B11871   3.081   8.089   7.747  0.1580  0.1433  0.0459
  742loPI   C4B11872   3.232   8.108   8.180 -0.2178 -0.0969 -0.1696
  743loPI    C111873   4.770   8.225   5.693  0.0555 -0.1857 -0.1306
  743loPI    C211874   4.772   7.980   5.378  0.1573 -0.2417 -0.0867
  743loPI    C311875   4.604   8.341   5.349  0.0459 -0.2991 -0.1646
  743loPI   PO411876   4.983   8.252   5.812 -0.3094 -0.0461 -0.0045
  743loPI   GL111877   5.140   8.380   6.098 -0.2705 -0.1317  0.0891
  743loPI   GL211878   5.214   8.571   6.098  0.0586  0.1388 -0.0173
  743loPI   C1A11879   5.017   8.216   6.581 -0.0571  0.0874 -0.0340
  743loPI   C2A11880   5.088   8.186   7.052 -0.2054 -0.1373 -0.2658
  743loPI   C3A11881   4.900   8.230   7.461  0.1385 -0.1974  0.0657
  743loPI   C4A11882   4.837   8.002   7.904  0.0589  0.1555 -0.0754
  743loPI   C5A11883   4.699   7.778   8.391 -0.2180 -0.1239 -0.0696
  743loPI   C6A11884   4.875   7.769   8.777 -0.0184 -0.0537  0.6444
  743loPI   C1B11885   5.375   8.671   6.521 -0.1454 -0.3310 -0.0737
  743loPI   C2B11886   5.456   8.574   6.871  0.2975  0.0361 -0.1626
  743loPI   C3B11887   5.477   8.484   7.271 -0.1251 -0.0121 -0.3254
  743loPI   C4B11888   5.322   8.409   7.669  0.0645  0.1889  0.0756
  744loPI    C111889  12.260   0.830   5.297 -0.0464 -0.1399 -0.1266
  744loPI    C211890  12.435   1.141   5.118 -0.0386 -0.0546  0.0274
  744loPI    C311891  12.479   0.773   4.967  0.3034 -0.0394  0.0836
  744loPI   PO411892  12.317   0.905   5.508  0.1214 -0.0533  0.0181
  744loPI   GL111893  12.375   0.755   5.902  0.1269  0.2282  0.0252
  744loPI   GL211894  12.628   0.563   5.772 -0.2144 -0.0088 -0.0147
  744loPI   C1A11895  12.287   0.802   6.363  0.0253 -0.0087 -0.0867
  744loPI   C2A11896  12.293   0.890   6.814  0.0877 -0.1397  0.4049
  744loPI   C3A11897  12.269   0.991   7.186 -0.1512  0.3224  0.0261
  744loPI   C4A11898  12.365   0.923   7.633 -0.2324 -0.0355 -0.0176
  744loPI   C5A11899  12.614   0.984   8.035  0.1528 -0.1994 -0.1342
  744loPI   C6A11900  12.685   1.420   8.163  0.2238  0.1963 -0.0878
  744loPI   C1B11901  12.734   0.578   6.156  0.0520  0.0473  0.0182
  744loPI   C2B11902  12.702   0.585   6.575 -0.1910  0.0150 -0.0988
  744loPI   C3B11903  12.753   0.669   6.912 -0.4212 -0.0175 -0.3781
  744loPI   C4B11904  12.761   0.710   7.374  0.1706 -0.1886  0.0015
  745loPI    C111905   4.490  15.319   5.744 -0.2853 -0.1598 -0.2668
  745loPI    C211906   4.629  15.500   5.416  0.1732 -0.0881 -0.0409
  745loPI    C311907   4.341  15.225   5.385 -0.0096  0.1416 -0.4659
  745loPI   PO411908   4.669  15.327   5.889  0.0559  0.2028 -0.2188
  745loPI   GL111909   4.774  15.328   6.286  0.1161 -0.0884 -0.1290
  745loPI   GL211910   4.669  15.095   6.520  0.1140  0.2334 -0.0491
  745loPI   C1A11911   5.076  15.390   6.636 -0.1821 -0.1829  0.3505
  745loPI   C2A11912   5.071  15.482   7.086  0.0874  0.0946 -0.1019
  745loPI   C3A11913   5.044  15.406   7.501  0.0204  0.1275  0.1099
  745loPI   C4A11914   4.926  15.454   7.818  0.0680 -0.1665  0.2204
  745loPI   C5A11915   4.911  15.346   8.326  0.0876  0.0208  0.1439
  745loPI   C6A11916   5.300  15.150   8.508  0.2306 -0.0918  0.0218
  745loPI   C1B11917   4.722  15.173   6.872 -0.2422 -0.1432 -0.1884
  745loPI   C2B11918   4.623  15.093   7.247 -0.0709 -0.3590  0.5447
  745loPI   C3B11919   4.630  15.100   7.638  0.0378  0.4398  0.5000
  745loPI   C4B11920   4.596  15.032   8.046  0.3248  0.0308 -0.1720
  746loPI    C111921  15.535   7.303   5.143 -0.0464 -0.0585  0.0669
  746loPI    C211922  15.850   7.487   4.979  0.0586 -0.0039  0.3247
  746loPI    C311923  15.710   7.148   4.819  0.0644  0.1272  0.0365
  746loPI   PO411924  15.537   7.190   5.329 -0.1098 -0.3639 -0.2880
  746loPI   GL111925  15.488   7.234   5.764  0.3934  0.1518  0.0461
  746loPI   GL211926  15.847   7.296   5.924 -0.1813  0.3251 -0.1817
  746loPI   C1A11927  15.329   7.292   6.225 -0.0426  0.2293  0.0306
  746loPI   C2A11928  15.335   7.412   6.674 -0.0639  0.0902  0.0484
  746loPI   C3A11929  15.379   7.422   7.115 -0.0972  0.0225 -0.3020
  746loPI   C4A11930  15.295   7.443   7.590 -0.0770  0.0374 -0.1360
  746loPI   C5A11931  15.509   7.286   8.026  0.2046 -0.0761 -0.0901
  746loPI   C6A11932  15.586   7.289   8.430 -0.0365 -0.2729  0.0854
  746loPI   C1B11933  15.852   7.171   6.404  0.1067 -0.2697  0.3074
  746loPI   C2B11934  15.858   7.113   6.827  0.1913 -0.0069  0.0010
  746loPI   C3B11935  15.882   7.249   7.212 -0.0359 -0.0510 -0.0441
  746loPI   C4B11936  15.793   7.208   7.650 -0.0162  0.0177 -0.1569
  747loPI    C111937  17.983   0.780   5.250 -0.1348 -0.1896 -0.0037
  747loPI    C211938  17.766   0.667   4.934 -0.0359  0.0139 -0.1467
  747loPI    C311939  18.129   0.826   4.880 -0.0241  0.0626  0.0693
  747loPI   PO411940  17.831   0.801   5.504  0.1575 -0.1929 -0.2068
  747loPI   GL111941  17.768   0.923   5.874  0.0130  0.2807  0.0351
  747loPI   GL211942  18.107   0.855   6.063 -0.0548 -0.2649 -0.1340
  747loPI   C1A11943  17.663   1.073   6.313 -0.1615 -0.0959 -0.1111
  747loPI   C2A11944  17.640   1.119   6.774  0.0013  0.0968  0.1218
  747loPI   C3A11945  17.526   1.125   7.114 -0.0622  0.2805 -0.0836
  747loPI   C4A11946  17.585   1.046   7.546 -0.0202 -0.0326 -0.1866
  747loPI   C5A11947  17.451   0.838   7.973 -0.0658 -0.3806 -0.1384
  747loPI   C6A11948  17.653   0.845   8.375  0.2977 -0.0724 -0.2619
  747loPI   C1B11949  18.094   0.886   6.481  0.1676 -0.1804 -0.2102
  747loPI   C2B11950  18.035   0.899   6.905 -0.4097  0.1274  0.1830
  747loPI   C3B11951  18.131   0.937   7.343  0.0792  0.0707 -0.1866
  747loPI   C4B11952  18.115   0.868   7.694  0.0040 -0.2269 -0.2960
  748loPI    C111953   3.795  12.446   5.576  0.0395 -0.0307  0.2883
  748loPI    C211954   3.474  12.665   5.672 -0.0316  0.0130 -0.0361
  748loPI    C311955   3.621  12.678   5.300  0.3330 -0.0270  0.1022
  748loPI   PO411956   3.985  12.506   5.798  0.0109 -0.2713  0.0562
  748loPI   GL111957   4.203  12.766   6.140  0.4819 -0.2978 -0.1088
  748loPI   GL211958   4.433  12.523   6.393  0.0096 -0.1183 -0.1016
  748loPI   C1A11959   4.197  12.923   6.575 -0.1131 -0.0174  0.0263
  748loPI   C2A11960   3.808  12.810   6.822  0.1735 -0.1224  0.1251
  748loPI   C3A11961   3.463  12.501   6.762  0.4042 -0.2961 -0.0935
  748loPI   C4A11962   2.999  12.430   6.727  0.0730  0.0820  0.1805
  748loPI   C5A11963   2.604  12.277   6.920  0.0909  0.2297 -0.0121
  748loPI   C6A11964   2.217  12.354   6.752 -0.1688  0.0972 -0.0636
  748loPI   C1B11965   3.975  12.381   6.609 -0.3759 -0.0556 -0.1686
  748loPI   C2B11966   3.847  12.245   7.007  0.2396  0.2979 -0.0260
  748loPI   C3B11967   3.974  12.234   7.457 -0.1237  0.4311  0.1237
  748loPI   C4B11968   3.940  12.409   7.861 -0.0942  0.2676  0.0109
  749loPI    C111969  15.746   0.147   5.022 -0.1211  0.0815 -0.0199
  749loPI    C211970  15.405  -0.011   4.885 -0.1477  0.2210 -0.1171
  749loPI    C311971  15.519   0.353   4.766  0.0306  0.1796 -0.0768
  749loPI   PO411972  15.715   0.133   5.271 -0.2563  0.0996  0.1668
  749loPI   GL111973  15.626   0.140   5.710  0.2559 -0.3729 -0.2010
  749loPI   GL211974  15.929   0.359   5.788  0.0006  0.3804  0.1366
  749loPI   C1A11975  15.603  -0.004   6.131 -0.2085 -0.0941 -0.0649
  749loPI   C2A11976  15.613   0.035   6.476  0.0589 -0.1029 -0.0139
  749loPI   C3A11977  15.487   0.122   6.931 -0.0140  0.1786 -0.0024
  749loPI   C4A11978  15.528   0.049   7.323  0.0486 -0.0663 -0.0794
  749loPI   C5A11979  15.472   0.050   7.733 -0.3077  0.0399 -0.0504
  749loPI   C6A11980  15.276  -0.088   8.100 -0.5377  0.0997  0.0807
  749loPI   C1B11981  15.973   0.404   6.192  0.0135 -0.1093  0.1503
  749loPI   C2B11982  15.992   0.338   6.690 -0.1935 -0.2111  0.0163
  749loPI   C3B11983  15.931   0.355   7.098  0.0302 -0.0393 -0.1138
  749loPI   C4B11984  15.875   0.373   7.561 -0.0966 -0.1177 -0.0187
  750loPI    C111985   4.041  15.738   5.431  0.0781 -0.0353 -0.0908
  750loPI    C211986   3.803  15.433   5.329  0.2449 -0.2179  0.0590
  750loPI    C311987   4.075  15.569   5.070  0.0389 -0.0658 -0.0805
  750loPI   PO411988   4.188  15.679   5.629  0.0870  0.2717  0.2219
  750loPI   GL111989   4.244  16.079   5.989  0.2965 -0.1220  0.1437
  750loPI   GL211990   4.274  15.724   6.123 -0.0779 -0.0314  0.0313
  750loPI   C1A11991   4.039  16.126   6.283 -0.0027  0.0280 -0.3531
  750loPI   C2A11992   4.017  16.369   6.654 -0.2357 -0.0968 -0.2125
  750loPI   C3A11993   4.069  16.307   7.146  0.0078 -0.1430 -0.5342
  750loPI   C4A11994   3.932  16.358   7.626  0.1383  0.2078 -0.3502
  750loPI   C5A11995   3.602  16.401   7.966  0.0564  0.0117  0.1095
  750loPI   C6A11996   3.453  16.065   8.158  0.1529 -0.3952  0.2433
  750loPI   C1B11997   4.423  15.636   6.505  0.2460  0.0500  0.3240
  750loPI   C2B11998   4.600  15.659   6.895 -0.0252 -0.4231  0.0848
  750loPI   C3B11999   4.572  15.631   7.353 -0.0392  0.0064 -0.0497
  750loPI   C4B12000   4.509  15.757   7.737  0.0101 -0.0483  0.0202
  751loPI    C112001   0.214  17.428   5.311 -0.1384  0.0849  0.0241
  751loPI    C212002   0.360  17.115   5.108 -0.1053  0.0594  0.0867
  751loPI    C312003   0.192  17.420   4.912 -0.1570 -0.0074  0.0266
  751loPI   PO412004   0.099  17.352   5.540  0.3227  0.1532 -0.0307
  751loPI   GL112005   0.141  17.354   5.971  0.1267 -0.2075 -0.0609
  751loPI   GL212006  -0.160  17.409   5.980  0.1195 -0.0947  0.0849
  751loPI   C1A12007   0.319  17.358   6.402  0.1745  0.2478 -0.0561
  751loPI   C2A12008   0.285  17.406   6.837  0.0727  0.0175 -0.0936
  751loPI   C3A12009   0.299  17.406   7.285 -0.2472  0.1416  0.1858
  751loPI   C4A12010   0.325  17.382   7.689  0.1961  0.1335 -0.2406
  751loPI   C5A12011   0.167  17.477   8.073  0.0285  0.1468 -0.0065
  751loPI   C6A12012   0.128  17.764   8.451  0.2665 -0.1881 -0.1137
  751loPI   C1B12013  -0.148  17.483   6.357 -0.3844  0.2285 -0.1374
  751loPI   C2B12014  -0.139  17.580   6.718  0.2286 -0.1127  0.0811
  751loPI   C3B12015  -0.121  17.560   7.173  0.2835  0.1335  0.1377
  751loPI   C4B12016  -0.110  17.605   7.538 -0.2211  0.3560 -0.1066
  752loPI    C112017  12.749   5.149   5.212  0.2743  0.3197 -0.0288
  752loPI    C212018  12.432   5.226   4.979 -0.0704 -0.1189  0.2780
  752loPI    C312019  12.798   5.205   4.819 -0.1860  0.4034 -0.0804
  752loPI   PO412020  12.670   5.162   5.423 -0.0152  0.1162  0.0992
  752loPI   GL112021  12.609   5.234   5.880  0.0615 -0.1094 -0.2267
  752loPI   GL212022  12.642   5.010   6.134  0.2190 -0.0897 -0.3584
  752loPI   C1A12023  12.906   5.386   6.246 -0.2177 -0.1917 -0.2039
  752loPI   C2A12024  12.978   5.363   6.791  0.0133  0.1728  0.2091
  752loPI   C3A12025  13.022   5.445   7.153 -0.0251  0.0710 -0.1352
  752loPI   C4A12026  12.916   5.601   7.547  0.3642 -0.0766  0.1275
  752loPI   C5A12027  12.977   5.502   7.982  0.1604  0.0341  0.1055
  752loPI   C6A12028  13.142   5.215   8.249  0.0823 -0.0969 -0.0652
  752loPI   C1B12029  12.549   5.122   6.589  0.0378 -0.3314 -0.0355
  752loPI   C2B12030  12.584   5.064   7.068  0.0330  0.1502  0.1095
  752loPI   C3B12031  12.565   5.264   7.376  0.1432  0.1121 -0.1291
  752loPI   C4B12032  12.490   5.384   7.753 -0.0385 -0.0536  0.0905
  753loPI    C112033   7.064   7.634   5.472  0.2081  0.0853  0.0484
  753loPI    C212034   7.242   7.389   5.212 -0.0184  0.0638 -0.0886
  753loPI    C312035   6.877   7.532   5.134 -0.0939  0.0470  0.2240
  753loPI   PO412036   7.108   7.416   5.686  0.0918 -0.1775  0.0604
  753loPI   GL112037   7.305   7.309   6.088 -0.1221  0.2560  0.1110
  753loPI   GL212038   7.528   7.400   6.013  0.0412  0.1649  0.0673
  753loPI   C1A12039   7.262   7.234   6.499  0.1975  0.0736 -0.1367
  753loPI   C2A12040   7.326   7.176   6.807 -0.0932 -0.1019  0.2260
  753loPI   C3A12041   7.367   7.234   7.192  0.2944 -0.0676 -0.1100
  753loPI   C4A12042   7.260   7.286   7.671  0.2193  0.0906 -0.0664
  753loPI   C5A12043   7.353   7.156   8.004  0.0998 -0.4556 -0.1759
  753loPI   C6A12044   7.085   6.914   8.318 -0.0651  0.2874  0.0301
  753loPI   C1B12045   7.647   7.612   6.468 -0.0401 -0.0807 -0.1302
  753loPI   C2B12046   7.689   7.554   6.960  0.2144 -0.1810  0.2852
  753loPI   C3B12047   7.655   7.570   7.459  0.0596  0.2176  0.0323
  753loPI   C4B12048   7.771   7.644   7.875  0.2343  0.1396  0.1611
  754loPI    C112049   2.339   7.205   5.714  0.0723  0.2191  0.0208
  754loPI    C212050   2.605   6.988   5.508 -0.0146 -0.0300  0.1663
  754loPI    C312051   2.562   7.379   5.431  0.1342 -0.0654 -0.1083
  754loPI   PO412052   2.388   7.174   5.974  0.0498  0.0596 -0.1046
  754loPI   GL112053   2.451   6.931   6.423  0.2826 -0.2167 -0.0822
  754loPI   GL212054   2.672   7.157   6.577  0.1721 -0.0936  0.0765
  754loPI   C1A12055   2.433   6.753   6.766 -0.1628 -0.0785  0.3597
  754loPI   C2A12056   2.327   6.848   7.140  0.0788  0.4019  0.4087
  754loPI   C3A12057   2.381   6.868   7.622 -0.2324 -0.2334 -0.4115
  754loPI   C4A12058   2.479   6.792   7.967 -0.1550  0.3695  0.1477
  754loPI   C5A12059   2.414   6.914   8.433 -0.0418  0.3893 -0.1329
  754loPI   C6A12060   2.537   6.924   8.812  0.0401 -0.0788 -0.2531
  754loPI   C1B12061   2.774   7.119   6.911 -0.2937  0.2547 -0.1387
  754loPI   C2B12062   2.770   7.087   7.299  0.1402 -0.2919 -0.0994
  754loPI   C3B12063   2.828   7.254   7.708 -0.2640 -0.3283 -0.2127
  754loPI   C4B12064   2.845   7.101   8.164  0.5120 -0.1702  0.1384
  755loPI    C112065  14.429  10.739   5.317  0.1742 -0.2249 -0.1160
  755loPI    C212066  14.236  10.502   5.059  0.0107 -0.2884  0.0619
  755loPI    C312067  14.585  10.668   4.956 -0.2695  0.0562 -0.3722
  755loPI   PO412068  14.386  10.659   5.518 -0.1076  0.3419  0.0748
  755loPI   GL112069  14.491  10.581   5.853  0.1169 -0.1165  0.2208
  755loPI   GL212070  14.180  10.428   5.918 -0.0050  0.0446 -0.0499
  755loPI   C1A12071  14.355  10.731   6.289 -0.1090  0.1443 -0.0752
  755loPI   C2A12072  14.429  10.728   6.765  0.3584  0.0629  0.0449
  755loPI   C3A12073  14.368  10.752   7.205  0.0099  0.1200 -0.0416
  755loPI   C4A12074  14.360  10.857   7.635  0.2390 -0.0868  0.3143
  755loPI   C5A12075  14.472  10.776   7.992 -0.0177  0.0425 -0.2048
  755loPI   C6A12076  14.926  10.635   8.041 -0.2220 -0.1728  0.0791
  755loPI   C1B12077  13.973  10.343   6.310  0.1399 -0.0177 -0.2927
  755loPI   C2B12078  13.975  10.348   6.828 -0.2516  0.0942 -0.1990
  755loPI   C3B12079  14.012  10.432   7.288  0.1401 -0.2715 -0.1468
  755loPI   C4B12080  13.914  10.563   7.665  0.0451  0.0907  0.0455
  756loPI    C112081   4.332  13.613   5.950  0.1469  0.1848 -0.0305
  756loPI    C212082   4.379  13.362   6.258 -0.1327  0.1525 -0.0117
  756loPI    C312083   4.195  13.238   5.925 -0.0889  0.2726 -0.0813
  756loPI   PO412084   4.440  13.832   6.124  0.0081 -0.0620  0.0606
  756loPI   GL112085   4.558  13.896   6.544  0.0397  0.2494  0.3806
  756loPI   GL212086   4.722  13.598   6.535 -0.1127  0.0076 -0.1866
  756loPI   C1A12087   4.786  14.042   6.862  0.5140 -0.0941 -0.2174
  756loPI   C2A12088   4.877  14.109   7.295  0.0014  0.0719  0.2318
  756loPI   C3A12089   4.842  14.065   7.648 -0.3161  0.1159 -0.2982
  756loPI   C4A12090   4.823  14.093   8.082  0.1133 -0.0903 -0.1164
  756loPI   C5A12091   4.327  14.185   8.404 -0.0590  0.0376  0.0513
  756loPI   C6A12092   3.959  14.259   8.712 -0.0409 -0.3073  0.1578
  756loPI   C1B12093   4.889  13.407   6.926  0.1875  0.2456  0.0360
  756loPI   C2B12094   4.979  13.628   7.242 -0.0448  0.2482 -0.1146
  756loPI   C3B12095   4.885  13.565   7.644 -0.3082  0.2810 -0.2601
  756loPI   C4B12096   4.649  13.600   8.146  0.2097 -0.2604  0.1024
  757loPI    C112097  15.347  16.909   5.203  0.0126 -0.1908 -0.0738
  757loPI    C212098  15.536  16.560   5.146  0.1620 -0.1063 -0.1002
  757loPI    C312099  15.505  16.823   4.845  0.0327 -0.1043 -0.0858
  757loPI   PO412100  15.352  16.963   5.428  0.3601  0.0788  0.1109
  757loPI   GL112101  15.375  16.985   5.790  0.3710  0.1126 -0.1109
  757loPI   GL212102  15.347  16.695   5.862  0.2231 -0.3303  0.0603
  757loPI   C1A12103  15.300  17.170   6.234  0.0880  0.0521  0.0147
  757loPI   C2A12104  15.230  17.191   6.768  0.2224 -0.1535  0.0900
  757loPI   C3A12105  15.130  17.167   7.163 -0.0020 -0.1731  0.2997
  757loPI   C4A12106  15.194  17.218   7.621  0.0604  0.0550 -0.1222
  757loPI   C5A12107  15.194  17.297   8.087  0.0722  0.0293  0.4729
  757loPI   C6A12108  15.274  17.486   8.533 -0.2602  0.1320 -0.1037
  757loPI   C1B12109  15.412  16.710   6.246  0.0310 -0.2077  0.1076
  757loPI   C2B12110  15.374  16.613   6.704 -0.1697 -0.0738  0.0179
  757loPI   C3B12111  15.286  16.680   7.133 -0.0054  0.1124 -0.2188
  757loPI   C4B12112  15.288  16.649   7.652  0.1635 -0.3601  0.1665
  758loPI    C112113   5.363   4.107   5.402  0.1677 -0.2456  0.2630
  758loPI    C212114   5.134   4.015   5.086  0.0391  0.3296  0.1760
  758loPI    C312115   5.525   3.929   5.083 -0.0402 -0.0451  0.0408
  758loPI   PO412116   5.246   4.237   5.549  0.0041  0.1714  0.1803
  758loPI   GL112117   5.137   3.978   5.860  0.0156 -0.0244 -0.1446
  758loPI   GL212118   5.375   3.710   5.954  0.0107  0.0647 -0.4594
  758loPI   C1A12119   5.370   4.097   6.289  0.0957 -0.0050 -0.1422
  758loPI   C2A12120   5.537   4.066   6.676 -0.1197 -0.0389 -0.1949
  758loPI   C3A12121   5.508   4.062   7.117 -0.2188  0.1312  0.3300
  758loPI   C4A12122   5.563   3.972   7.532 -0.0649  0.3656 -0.0678
  758loPI   C5A12123   5.428   4.011   7.922 -0.0496  0.1818 -0.1635
  758loPI   C6A12124   5.564   3.813   8.270 -0.2470  0.3268 -0.2018
  758loPI   C1B12125   5.534   3.633   6.381  0.2953  0.0804  0.0760
  758loPI   C2B12126   5.605   3.582   6.804  0.1162  0.3322 -0.1782
  758loPI   C3B12127   5.568   3.500   7.278 -0.0976  0.1294 -0.2622
  758loPI   C4B12128   5.553   3.505   7.761 -0.2760 -0.1221  0.0429
  759loPI    C112129   1.966   3.813   5.765 -0.0426 -0.2501  0.0923
  759loPI    C212130   2.001   3.939   6.143 -0.1876 -0.1714  0.0801
  759loPI    C312131   2.117   4.175   5.842  0.0504 -0.2860  0.0797
  759loPI   PO412132   2.017   3.522   5.836 -0.1379  0.1981 -0.1317
  759loPI   GL112133   2.199   3.326   6.117  0.0382 -0.2417 -0.0944
  759loPI   GL212134   2.402   3.157   6.087  0.0158  0.0859  0.3993
  759loPI   C1A12135   1.999   3.146   6.484  0.0949  0.1948  0.3845
  759loPI   C2A12136   2.017   3.155   6.995  0.3920  0.3090  0.0112
  759loPI   C3A12137   2.042   3.075   7.441  0.1834  0.0888  0.0184
  759loPI   C4A12138   2.036   3.014   7.872 -0.1472  0.1378  0.1571
  759loPI   C5A12139   1.833   2.731   8.200  0.1914  0.2462 -0.0399
  759loPI   C6A12140   1.834   2.610   8.612  0.3283 -0.1969  0.0178
  759loPI   C1B12141   2.446   2.880   6.500  0.1177 -0.6629 -0.0210
  759loPI   C2B12142   2.531   2.864   7.001  0.0300  0.1498  0.1265
  759loPI   C3B12143   2.502   2.882   7.420 -0.2291 -0.0609 -0.0192
  759loPI   C4B12144   2.497   2.795   7.872  0.0410 -0.3951 -0.1502
  760loPI    C112145   5.433  14.213   5.942 -0.0928 -0.0494 -0.0305
  760loPI    C212146   5.091  14.167   5.740 -0.1257 -0.0383  0.0225
  760loPI    C312147   5.434  14.224   5.542 -0.1725  0.0705 -0.0280
  760loPI   PO412148   5.338  14.406   6.113  0.1396 -0.2748  0.1645
  760loPI   GL112149   5.003  14.579   6.333 -0.2080  0.0938  0.2005
  760loPI   GL212150   5.144  14.892   6.221 -0.0521 -0.0834 -0.1106
  760loPI   C1A12151   5.230  14.438   6.796  0.1909 -0.0030  0.0383
  760loPI   C2A12152   5.220  14.446   7.267 -0.1386  0.3306  0.1714
  760loPI   C3A12153   5.286  14.280   7.731  0.0445  0.0958  0.1028
  760loPI   C4A12154   5.311  13.882   7.934 -0.1568 -0.1080  0.0704
  760loPI   C5A12155   5.117  13.569   8.304 -0.0556  0.1244 -0.2695
  760loPI   C6A12156   4.848  13.409   8.589  0.2021 -0.1065  0.0578
  760loPI   C1B12157   5.103  14.878   6.700 -0.4152 -0.1578  0.3830
  760loPI   C2B12158   5.142  14.931   7.137 -0.0356  0.2819 -0.3097
  760loPI   C3B12159   5.175  14.846   7.590  0.0606 -0.1086  0.4287
  760loPI   C4B12160   5.119  15.026   7.992 -0.0989 -0.4288 -0.4136
  761loPI    C112161  10.640   9.919   5.400 -0.2203  0.1642  0.0718
  761loPI    C212162  10.742  10.017   5.026 -0.1346  0.1513  0.0916
  761loPI    C312163  10.447   9.755   5.091  0.0655 -0.0958  0.0260
  761loPI   PO412164  10.818  10.170   5.527 -0.1422 -0.1279  0.1668
  761loPI   GL112165  10.878  10.260   5.970 -0.1158  0.0201 -0.2312
  761loPI   GL212166  10.816  10.595   5.952 -0.1321  0.0925 -0.2074
  761loPI   C1A12167  10.921  10.232   6.325 -0.1521  0.3451  0.0561
  761loPI   C2A12168  10.834  10.221   6.732 -0.1603 -0.0927 -0.0533
  761loPI   C3A12169  10.809  10.271   7.114  0.4749  0.3139  0.2820
  761loPI   C4A12170  10.763  10.314   7.518 -0.0290  0.0047  0.0837
  761loPI   C5A12171  10.801  10.260   7.962 -0.2608  0.2415 -0.0632
  761loPI   C6A12172  10.842  10.205   8.417  0.0436 -0.0982  0.1019
  761loPI   C1B12173  10.792  10.774   6.340 -0.2032  0.2586  0.1275
  761loPI   C2B12174  10.790  10.755   6.804 -0.1624  0.1745  0.0227
  761loPI   C3B12175  10.790  10.765   7.238 -0.2773 -0.2822 -0.2819
  761loPI   C4B12176  10.742  10.800   7.616  0.0693  0.0437 -0.0543
  762loPI    C112177   4.174   3.026   5.235 -0.1969  0.2415 -0.0291
  762loPI    C212178   4.489   3.246   5.123  0.0184 -0.0088  0.0737
  762loPI    C312179   4.122   3.405   5.116  0.1764  0.3766  0.2171
  762loPI   PO412180   4.214   2.922   5.578 -0.0870  0.1085  0.0227
  762loPI   GL112181   3.991   2.949   5.974  0.1806 -0.4083  0.0485
  762loPI   GL212182   4.402   3.079   6.068 -0.0675 -0.6519  0.2876
  762loPI   C1A12183   3.903   2.819   6.379 -0.0427 -0.1015 -0.1096
  762loPI   C2A12184   3.798   2.785   6.753  0.1363  0.3919  0.2783
  762loPI   C3A12185   3.881   2.780   7.190  0.3405  0.2235 -0.0572
  762loPI   C4A12186   3.895   2.783   7.628 -0.1923 -0.1714 -0.3344
  762loPI   C5A12187   3.860   3.015   8.055  0.1537 -0.0519  0.1397
  762loPI   C6A12188   4.224   3.262   8.282  0.0799  0.2228 -0.3829
  762loPI   C1B12189   4.147   3.200   6.445  0.0336 -0.3567 -0.0099
  762loPI   C2B12190   4.276   3.132   6.893 -0.0151  0.6225  0.0466
  762loPI   C3B12191   4.275   3.092   7.322  0.1880 -0.0403  0.0156
  762loPI   C4B12192   4.256   3.136   7.785 -0.0737  0.0507 -0.1707
  763loPI    C112193  14.575  14.952   5.522 -0.2237  0.0003  0.0288
  763loPI    C212194  14.794  14.631   5.428  0.0854  0.1532  0.2113
  763loPI    C312195  14.582  14.819   5.145 -0.0004 -0.1363  0.0798
  763loPI   PO412196  14.739  15.085   5.691  0.3954  0.1269  0.2065
  763loPI   GL112197  14.709  15.407   6.042  0.0923  0.0570 -0.1077
  763loPI   GL212198  14.642  15.044   6.179 -0.1618  0.2525 -0.4789
  763loPI   C1A12199  14.596  15.528   6.443  0.1093 -0.4266 -0.0620
  763loPI   C2A12200  14.576  15.459   6.883  0.0705 -0.0608  0.0301
  763loPI   C3A12201  14.508  15.411   7.260  0.1278 -0.0875  0.1131
  763loPI   C4A12202  14.515  15.559   7.677  0.1126  0.1007  0.0581
  763loPI   C5A12203  14.580  15.514   8.060  0.2977  0.6124 -0.0461
  763loPI   C6A12204  14.397  15.756   8.385  0.0609  0.1479  0.0075
  763loPI   C1B12205  14.669  15.035   6.622 -0.1305 -0.0491 -0.1256
  763loPI   C2B12206  14.672  14.951   7.054 -0.0627 -0.2729 -0.0088
  763loPI   C3B12207  14.667  14.970   7.498 -0.3394 -0.2950 -0.0933
  763loPI   C4B12208  14.647  15.042   7.912  0.4243  0.2340  0.1983
  764loPI    C112209   1.416   2.339   5.120  0.1196  0.1829 -0.0527
  764loPI    C212210   1.802   2.417   5.047  0.1147  0.0921 -0.1793
  764loPI    C312211   1.528   2.478   4.762  0.0227  0.2410 -0.0607
  764loPI   PO412212   1.426   2.323   5.416 -0.2554  0.1527 -0.0418
  764loPI   GL112213   1.401   2.348   5.820 -0.1851 -0.0545 -0.1401
  764loPI   GL212214   1.379   2.661   5.821 -0.1024  0.0632  0.1335
  764loPI   C1A12215   1.314   2.339   6.204  0.2036  0.0398  0.0203
  764loPI   C2A12216   1.289   2.393   6.645 -0.1257 -0.5035  0.2141
  764loPI   C3A12217   1.266   2.536   7.048 -0.1070 -0.1232 -0.1442
  764loPI   C4A12218   1.238   2.392   7.528 -0.0553 -0.0936  0.0729
  764loPI   C5A12219   1.245   2.283   7.904 -0.0328  0.3590  0.2603
  764loPI   C6A12220   1.215   2.082   8.184  0.0240 -0.1485  0.0743
  764loPI   C1B12221   1.210   2.823   6.119 -0.2955  0.0315 -0.0479
  764loPI   C2B12222   1.119   2.929   6.542 -0.1292 -0.1228 -0.0722
  764loPI   C3B12223   1.065   2.935   6.947 -0.0333  0.0102  0.1647
  764loPI   C4B12224   1.142   2.899   7.373  0.0980  0.0364  0.0567
  765loPI    C112225  15.149   4.205   5.368  0.1168  0.1376 -0.0362
  765loPI    C212226  15.147   4.054   4.997  0.0470 -0.1108  0.0631
  765loPI    C312227  15.199   4.447   5.053  0.1359 -0.0821 -0.2049
  765loPI   PO412228  15.365   4.085   5.568  0.4266  0.1580 -0.1035
  765loPI   GL112229  15.453   4.179   5.986 -0.4067 -0.0501  0.1719
  765loPI   GL212230  15.252   3.893   6.034  0.1217 -0.0579 -0.1028
  765loPI   C1A12231  15.328   4.421   6.326  0.2525  0.1731  0.1165
  765loPI   C2A12232  15.352   4.462   6.844  0.0592  0.1266 -0.0715
  765loPI   C3A12233  15.360   4.529   7.312 -0.2562  0.0322 -0.1854
  765loPI   C4A12234  15.383   4.457   7.739 -0.1624  0.0026 -0.0013
  765loPI   C5A12235  15.122   4.077   8.021  0.0316  0.0886 -0.2063
  765loPI   C6A12236  14.961   3.669   8.303 -0.1299  0.1666  0.1289
  765loPI   C1B12237  15.420   3.903   6.425 -0.1991  0.0125  0.2457
  765loPI   C2B12238  15.353   4.029   6.707 -0.3412  0.4964  0.0082
  765loPI   C3B12239  15.412   4.055   7.154  0.0487 -0.1249 -0.3227
  765loPI   C4B12240  15.532   3.915   7.601  0.3791 -0.2063  0.2152
  766loPI    C112241   3.677   2.866   5.591  0.2507  0.0153  0.0187
  766loPI    C212242   3.832   2.631   5.307 -0.0004 -0.0811 -0.0417
  766loPI    C312243   3.713   3.001   5.216  0.0414 -0.0653 -0.0323
  766loPI   PO412244   3.625   2.603   5.813 -0.1143 -0.0857 -0.2130
  766loPI   GL112245   3.794   2.380   6.155  0.3217 -0.1193 -0.0266
  766loPI   GL212246   3.475   2.532   6.292 -0.3834 -0.2623  0.0588
  766loPI   C1A12247   3.852   2.195   6.472 -0.1677  0.0638  0.3820
  766loPI   C2A12248   3.894   2.269   6.801  0.1956 -0.0698  0.0327
  766loPI   C3A12249   3.863   2.296   7.266  0.0834 -0.0275 -0.1227
  766loPI   C4A12250   3.940   2.299   7.676 -0.0996 -0.0815 -0.1151
  766loPI   C5A12251   4.195   2.340   8.113  0.3144  0.3124 -0.3736
  766loPI   C6A12252   4.423   2.209   8.521  0.2243  0.0455  0.3591
  766loPI   C1B12253   3.435   2.423   6.691  0.2116 -0.0445  0.1938
  766loPI   C2B12254   3.464   2.556   7.122  0.0074 -0.0549  0.1988
  766loPI   C3B12255   3.421   2.555   7.538 -0.1316  0.1273  0.1162
  766loPI   C4B12256   3.583   2.507   7.994 -0.0220  0.2060 -0.2298
  767loPI    C112257   3.561  17.744   5.115  0.0317 -0.1495 -0.0688
  767loPI    C212258   3.868  17.488   5.098 -0.0079 -0.2063  0.0516
  767loPI    C312259   3.843  17.789   4.835  0.2001 -0.1451  0.0996
  767loPI   PO412260   3.478  17.660   5.384 -0.0987 -0.0898 -0.1141
  767loPI   GL112261   3.501  17.939   5.811 -0.0960  0.1094  0.1859
  767loPI   GL212262   3.189  18.078   5.965  0.2724  0.5646  0.2089
  767loPI   C1A12263   3.862  17.907   6.094  0.0752 -0.0440 -0.0275
  767loPI   C2A12264   3.872  17.936   6.516 -0.0838 -0.1607 -0.0103
  767loPI   C3A12265   3.795  17.919   6.991  0.1036 -0.2546 -0.3446
  767loPI   C4A12266   3.847  17.924   7.408 -0.2639 -0.0073  0.1713
  767loPI   C5A12267   3.802  17.950   7.813 -0.1121  0.1710 -0.1626
  767loPI   C6A12268   3.988  17.959   8.259 -0.4046 -0.0206 -0.0293
  767loPI   C1B12269   3.348  18.070   6.440  0.0308 -0.0398 -0.1357
  767loPI   C2B12270   3.256  18.147   6.905 -0.4157  0.0905 -0.0002
  767loPI   C3B12271   3.381  18.079   7.236  0.1782  0.0334 -0.1684
  767loPI   C4B12272   3.267  18.124   7.707 -0.2761 -0.2189 -0.1256
  768loPI    C112273  17.525  16.007   5.458 -0.0278  0.0726  0.0779
  768loPI    C212274  17.504  16.264   5.152  0.0560  0.1090  0.1024
  768loPI    C312275  17.696  15.916   5.108  0.0317  0.0957  0.1009
  768loPI   PO412276  17.806  16.118   5.725 -0.0986 -0.3206 -0.1237
  768loPI   GL112277  17.986  15.910   6.155 -0.3410 -0.1785 -0.3091
  768loPI   GL212278  17.547  15.861   6.180  0.3247  0.1371  0.1054
  768loPI   C1A12279  18.104  15.954   6.621  0.0271 -0.0585 -0.0348
  768loPI   C2A12280  18.024  16.042   7.131 -0.2430  0.1336  0.2472
  768loPI   C3A12281  18.017  16.150   7.648  0.0663 -0.0377 -0.0735
  768loPI   C4A12282  18.084  16.208   8.004  0.2450 -0.1665  0.2162
  768loPI   C5A12283  18.095  16.205   8.496 -0.2228 -0.2077 -0.1380
  768loPI   C6A12284  18.080  16.203   8.951 -0.1800 -0.1990 -0.4961
  768loPI   C1B12285  17.541  16.142   6.517  0.0158  0.1945  0.3056
  768loPI   C2B12286  17.648  16.250   6.932 -0.2222 -0.2093  0.0914
  768loPI   C3B12287  17.598  16.287   7.390  0.0059  0.0490 -0.0488
  768loPI   C4B12288  17.541  16.331   7.871 -0.0510 -0.0029 -0.1040
  769loPI    C112289   0.023   8.907   5.506  0.0691 -0.0328  0.1017
  769loPI    C212290   0.342   9.121   5.393 -0.0785  0.1206 -0.0316
  769loPI    C312291   0.260   8.774   5.212 -0.0524  0.1378 -0.0766
  769loPI   PO412292   0.043   9.068   5.808  0.0669 -0.0984  0.0666
  769loPI   GL112293  -0.250   8.964   6.134  0.1407  0.0207  0.0607
  769loPI   GL212294  -0.109   8.759   6.377 -0.1315  0.0943  0.0409
  769loPI   C1A12295  -0.250   9.242   6.544 -0.0392 -0.1428  0.0431
  769loPI   C2A12296  -0.202   9.350   6.970  0.0127  0.1568  0.1187
  769loPI   C3A12297  -0.211   9.259   7.408 -0.4143 -0.4517  0.1087
  769loPI   C4A12298  -0.295   9.399   7.734  0.1102  0.0723  0.0498
  769loPI   C5A12299  -0.280   9.455   8.143  0.0208  0.1367 -0.1997
  769loPI   C6A12300  -0.412   9.210   8.581  0.0918  0.0426 -0.0143
  769loPI   C1B12301  -0.107   8.818   6.838 -0.2197  0.3996 -0.0939
  769loPI   C2B12302  -0.227   8.742   7.215  0.1681  0.1083 -0.2916
  769loPI   C3B12303  -0.096   8.782   7.665  0.0480 -0.4098  0.1490
  769loPI   C4B12304  -0.172   8.980   8.058  0.2154 -0.1558  0.0480
  770loPI    C112305   7.193  15.196   5.105  0.0050 -0.1803  0.0138
  770loPI    C212306   7.234  14.969   4.778  0.3150  0.1389 -0.1755
  770loPI    C312307   7.144  15.357   4.743  0.1792  0.1378  0.1278
  770loPI   PO412308   7.342  15.204   5.365 -0.2478  0.1635  0.2636
  770loPI   GL112309   7.381  15.162   5.859  0.3231  0.1265 -0.1484
  770loPI   GL212310   7.252  15.397   6.048 -0.0787  0.2060  0.2315
  770loPI   C1A12311   7.722  15.138   6.143 -0.1423  0.1252  0.1147
  770loPI   C2A12312   7.750  15.161   6.586 -0.0314  0.0168  0.0330
  770loPI   C3A12313   7.814  15.264   7.048  0.2144  0.0913 -0.1410
  770loPI   C4A12314   7.719  15.317   7.401  0.2102 -0.1654  0.0878
  770loPI   C5A12315   7.807  15.288   7.867 -0.1062  0.0522  0.0384
  770loPI   C6A12316   8.241  15.178   8.078 -0.2081  0.2203 -0.1701
  770loPI   C1B12317   7.309  15.509   6.492 -0.0290  0.1502  0.1237
  770loPI   C2B12318   7.315  15.517   6.900 -0.0664  0.1181 -0.2264
  770loPI   C3B12319   7.268  15.548   7.335 -0.2931 -0.3293  0.0559
  770loPI   C4B12320   7.373  15.514   7.773 -0.0641  0.1998  0.3127
  771loPI    C112321  11.865   4.290   5.235 -0.2591 -0.1796  0.1815
  771loPI    C212322  12.142   4.002   5.237  0.0280  0.0905  0.0373
  771loPI    C312323  12.180   4.315   4.991 -0.4961  0.0477 -0.1096
  771loPI   PO412324  11.784   4.408   5.513  0.1986  0.3372  0.2985
  771loPI   GL112325  11.720   4.320   5.864  0.0468  0.4921 -0.1321
  771loPI   GL212326  11.819   4.632   5.992 -0.0632  0.1681  0.1893
  771loPI   C1A12327  11.664   4.433   6.383  0.0145  0.2879  0.0399
  771loPI   C2A12328  11.710   4.545   6.822 -0.2021  0.1350 -0.1547
  771loPI   C3A12329  11.811   4.519   7.298  0.0666 -0.3373 -0.0690
  771loPI   C4A12330  11.760   4.611   7.652 -0.2542 -0.2053  0.1273
  771loPI   C5A12331  11.664   4.639   8.086  0.1194 -0.2557  0.0688
  771loPI   C6A12332  11.838   4.443   8.475  0.0209 -0.2656  0.2675
  771loPI   C1B12333  11.747   4.939   6.352 -0.0257 -0.1788  0.1978
  771loPI   C2B12334  11.631   5.003   6.856  0.0529 -0.1688 -0.0249
  771loPI   C3B12335  11.742   5.036   7.253 -0.1544  0.0327  0.0931
  771loPI   C4B12336  11.657   5.144   7.575 -0.1499 -0.2171  0.0170
  772loPI    C112337  16.811   4.163   5.346 -0.0091 -0.1522 -0.0656
  772loPI    C212338  16.993   4.428   5.108 -0.4287  0.0261 -0.1989
  772loPI    C312339  16.763   4.142   4.949 -0.4168 -0.0823 -0.0246
  772loPI   PO412340  16.896   4.171   5.534  0.1456  0.3516  0.0521
  772loPI   GL112341  16.878   3.919   5.918  0.1333 -0.0946 -0.2572
  772loPI   GL212342  17.044   4.136   6.103  0.0527 -0.1435 -0.3110
  772loPI   C1A12343  16.746   3.827   6.412  0.0030  0.1697  0.1945
  772loPI   C2A12344  16.717   3.928   6.822 -0.0192 -0.2662 -0.1818
  772loPI   C3A12345  16.769   3.996   7.271  0.2803  0.0579 -0.1951
  772loPI   C4A12346  16.812   3.919   7.732  0.0698 -0.3328  0.1386
  772loPI   C5A12347  16.742   4.073   8.120 -0.3837 -0.3082  0.0558
  772loPI   C6A12348  16.520   3.916   8.418  0.0527  0.0323 -0.1995
  772loPI   C1B12349  17.097   4.205   6.559  0.2552 -0.0843  0.1792
  772loPI   C2B12350  17.139   4.209   6.960 -0.2061 -0.1832  0.1993
  772loPI   C3B12351  17.170   4.333   7.279  0.0155  0.0612  0.0586
  772loPI   C4B12352  17.262   4.190   7.729  0.0957 -0.2769  0.1256
  773loPI    C112353   8.081   6.479   5.012 -0.2093  0.0659  0.0113
  773loPI    C212354   8.083   6.830   4.821 -0.0633 -0.0625 -0.2276
  773loPI    C312355   8.282   6.518   4.668 -0.1514 -0.2366  0.0079
  773loPI   PO412356   8.193   6.482   5.215  0.0470  0.0388 -0.1318
  773loPI   GL112357   8.155   6.558   5.778 -0.3725 -0.3133 -0.1995
  773loPI   GL212358   8.301   6.366   5.933 -0.0155  0.1154  0.0959
  773loPI   C1A12359   8.204   6.797   6.135 -0.0108 -0.0504  0.3533
  773loPI   C2A12360   8.217   6.743   6.585  0.1909  0.2424 -0.0856
  773loPI   C3A12361   8.290   6.829   6.972 -0.3590 -0.0399  0.0216
  773loPI   C4A12362   8.289   6.880   7.440 -0.2537 -0.4268  0.3100
  773loPI   C5A12363   8.308   6.988   7.875  0.1473  0.1738 -0.1023
  773loPI   C6A12364   8.223   7.412   7.847  0.4474 -0.1470  0.1375
  773loPI   C1B12365   8.282   6.320   6.303  0.3678  0.1207  0.1614
  773loPI   C2B12366   8.330   6.265   6.725 -0.3228  0.3097 -0.1785
  773loPI   C3B12367   8.443   6.288   7.194 -0.0090  0.0291 -0.0910
  773loPI   C4B12368   8.351   6.477   7.634  0.0747 -0.4272 -0.3384
  774loPI    C112369   3.493   7.415   5.685  0.0496  0.0579  0.0323
  774loPI    C212370   3.656   7.092   5.513  0.0344  0.1898 -0.2353
  774loPI    C312371   3.367   7.294   5.325 -0.1116  0.2320  0.0291
  774loPI   PO412372   3.434   7.322   5.953  0.2226  0.1091  0.4525
  774loPI   GL112373   3.401   7.160   6.353 -0.3863  0.0556 -0.2427
  774loPI   GL212374   3.339   7.489   6.388  0.1414  0.0717 -0.0459
  774loPI   C1A12375   3.355   6.922   6.694 -0.0093  0.2856 -0.1273
  774loPI   C2A12376   3.314   6.895   7.014  0.0692 -0.0139  0.1573
  774loPI   C3A12377   3.273   6.905   7.436  0.1348 -0.1111  0.1977
  774loPI   C4A12378   3.278   6.877   7.864 -0.1788  0.1187 -0.3792
  774loPI   C5A12379   3.454   6.701   8.274 -0.0918  0.1301  0.3677
  774loPI   C6A12380   3.514   6.725   8.660 -0.0326  0.2378 -0.1371
  774loPI   C1B12381   3.155   7.465   6.783 -0.1176  0.1329  0.0217
  774loPI   C2B12382   3.181   7.351   7.164  0.0597 -0.0960 -0.1042
  774loPI   C3B12383   3.308   7.541   7.586  0.1105  0.1155 -0.0452
  774loPI   C4B12384   3.264   7.644   7.968 -0.3512 -0.1294  0.2020
  775loPI    C112385   2.178  14.398   5.296 -0.0472 -0.0038 -0.0834
  775loPI    C212386   2.136  14.621   4.967 -0.0102 -0.1426 -0.1831
  775loPI    C312387   2.427  14.348   4.988  0.1777  0.0721  0.0833
  775loPI   PO412388   1.931  14.551   5.497  0.0750  0.1689 -0.5396
  775loPI   GL112389   1.913  14.618   5.850 -0.1039  0.1832  0.1314
  775loPI   GL212390   1.726  14.463   6.014  0.0296 -0.1766 -0.0835
  775loPI   C1A12391   2.061  14.742   6.342 -0.3595 -0.2399 -0.1261
  775loPI   C2A12392   2.097  14.748   6.797 -0.0284 -0.1345 -0.0905
  775loPI   C3A12393   2.053  14.738   7.269  0.1996 -0.2106 -0.1854
  775loPI   C4A12394   2.296  14.615   7.702  0.2291  0.0305  0.2296
  775loPI   C5A12395   2.505  14.295   7.713 -0.2519  0.4219  0.1431
  775loPI   C6A12396   2.862  14.083   7.675  0.3296  0.1760  0.0166
  775loPI   C1B12397   1.665  14.336   6.362 -0.1484  0.2205 -0.1708
  775loPI   C2B12398   1.712  14.342   6.772  0.0179  0.0251  0.3747
  775loPI   C3B12399   1.654  14.401   7.198 -0.0187 -0.1422  0.4279
  775loPI   C4B12400   1.556  14.526   7.615  0.0120  0.0763 -0.1910
  776loPI    C112401   8.298   7.534   5.433 -0.1113  0.3173  0.0904
  776loPI    C212402   8.275   7.657   5.053  0.0382 -0.0133 -0.0292
  776loPI    C312403   7.961   7.477   5.224 -0.0235  0.1209 -0.0002
  776loPI   PO412404   8.543   7.460   5.482 -0.0400  0.0395  0.0311
  776loPI   GL112405   8.588   7.269   5.893  0.2629 -0.1051 -0.1427
  776loPI   GL212406   8.447   7.531   5.971  0.1090  0.0960  0.0891
  776loPI   C1A12407   8.606   7.141   6.296  0.0893 -0.0390  0.0360
  776loPI   C2A12408   8.631   7.081   6.654 -0.2743  0.1390 -0.2381
  776loPI   C3A12409   8.683   7.198   7.126  0.3862 -0.0356  0.0559
  776loPI   C4A12410   8.629   7.273   7.542 -0.0556  0.1912  0.3055
  776loPI   C5A12411   8.702   7.370   8.064 -0.2013  0.0108  0.0189
  776loPI   C6A12412   9.004   7.619   8.349 -0.1709 -0.0252 -0.0532
  776loPI   C1B12413   8.582   7.625   6.369 -0.0826  0.0623  0.1409
  776loPI   C2B12414   8.549   7.697   6.811  0.2404  0.3506  0.1103
  776loPI   C3B12415   8.524   7.751   7.296 -0.1708 -0.0156 -0.1112
  776loPI   C4B12416   8.575   7.833   7.693 -0.0746 -0.0399  0.1408
  777loPI    C112417   5.151  16.839   5.338 -0.0332 -0.1079  0.2421
  777loPI    C212418   5.282  17.077   5.044 -0.1679 -0.0259  0.2475
  777loPI    C312419   5.191  16.696   4.967 -0.0124 -0.0593  0.2254
  777loPI   PO412420   4.989  17.028   5.525 -0.0505  0.0060  0.0321
  777loPI   GL112421   5.113  17.351   5.788  0.0570  0.1150 -0.4103
  777loPI   GL212422   4.931  17.546   5.882  0.1668  0.1182 -0.3666
  777loPI   C1A12423   5.278  17.293   6.168  0.0887  0.0891 -0.0670
  777loPI   C2A12424   5.305  17.331   6.659  0.1845  0.4413 -0.0852
  777loPI   C3A12425   5.283  17.239   7.116 -0.2247  0.0002  0.1162
  777loPI   C4A12426   5.307  17.326   7.557  0.0876  0.0013 -0.0814
  777loPI   C5A12427   5.316  17.321   8.007  0.1414 -0.3132 -0.0382
  777loPI   C6A12428   5.519  17.219   8.251 -0.0739  0.4593  0.1249
  777loPI   C1B12429   4.749  17.481   6.277 -0.1138  0.0850  0.0968
  777loPI   C2B12430   4.770  17.507   6.644 -0.0815 -0.0210  0.0168
  777loPI   C3B12431   4.780  17.497   7.058 -0.0329 -0.0734 -0.1058
  777loPI   C4B12432   4.820  17.422   7.398 -0.1542 -0.1093  0.1907
  778loPI    C112433  11.329   2.341   5.484 -0.0597  0.1033 -0.1936
  778loPI    C212434  11.017   2.265   5.246 -0.2022  0.1642 -0.0282
  778loPI    C312435  11.193   2.624   5.236 -0.0749  0.0986 -0.1906
  778loPI   PO412436  11.239   2.265   5.739 -0.0629 -0.1366 -0.1816
  778loPI   GL112437  11.087   2.328   6.256 -0.0847  0.1164  0.0600
  778loPI   GL212438  11.017   2.654   6.190  0.0971 -0.1898 -0.2441
  778loPI   C1A12439  11.205   2.365   6.691 -0.3043  0.0452 -0.3258
  778loPI   C2A12440  11.251   2.484   7.060  0.3161 -0.0221  0.1086
  778loPI   C3A12441  11.250   2.344   7.487  0.0339 -0.2482  0.3515
  778loPI   C4A12442  11.263   2.346   7.896  0.3208  0.2026 -0.0575
  778loPI   C5A12443  11.143   2.250   8.274 -0.2019  0.0003  0.0066
  778loPI   C6A12444  11.125   2.027   8.685 -0.3834 -0.3476 -0.2271
  778loPI   C1B12445  11.119   2.833   6.547  0.0313 -0.4080  0.4273
  778loPI   C2B12446  11.147   2.924   6.898 -0.0777 -0.0557  0.4706
  778loPI   C3B12447  11.080   2.876   7.378  0.0128  0.0417  0.0978
  778loPI   C4B12448  11.216   2.904   7.726 -0.2040 -0.2101  0.0406
  779loPI    C112449  11.411   7.887   5.263 -0.0160 -0.2122 -0.1381
  779loPI    C212450  11.040   7.969   5.138  0.0048  0.1211  0.0069
  779loPI    C312451  11.306   7.810   4.885 -0.1571  0.1336 -0.1731
  779loPI   PO412452  11.446   7.791   5.534 -0.4219 -0.3546 -0.1724
  779loPI   GL112453  11.406   7.746   5.913  0.0095 -0.0279  0.0450
  779loPI   GL212454  11.142   7.500   5.840  0.1840  0.1347  0.0595
  779loPI   C1A12455  11.579   7.844   6.329  0.1297  0.2268  0.0813
  779loPI   C2A12456  11.599   8.019   6.701 -0.3146  0.0092  0.0932
  779loPI   C3A12457  11.645   8.074   7.135 -0.0499  0.0917  0.1066
  779loPI   C4A12458  11.684   7.998   7.568 -0.0166  0.0873 -0.0199
  779loPI   C5A12459  11.730   8.053   7.924 -0.2339  0.2071  0.0334
  779loPI   C6A12460  11.880   7.924   8.354 -0.2767 -0.2714 -0.0925
  779loPI   C1B12461  11.198   7.480   6.317  0.2032 -0.2011  0.0165
  779loPI   C2B12462  11.230   7.677   6.706  0.1973 -0.1443 -0.0827
  779loPI   C3B12463  11.305   7.666   7.125  0.1758 -0.1960  0.2026
  779loPI   C4B12464  11.217   7.687   7.541 -0.1900 -0.1357  0.2228
  780loPI    C112465  17.935   8.323   5.272 -0.2525 -0.0648  0.0408
  780loPI    C212466  17.634   8.230   5.026 -0.2002 -0.0547 -0.0271
  780loPI    C312467  17.963   8.408   4.882 -0.1118 -0.1736  0.0262
  780loPI   PO412468  17.811   8.337   5.506 -0.0969 -0.3907 -0.1332
  780loPI   GL112469  17.693   8.234   5.948  0.0440 -0.2371 -0.2363
  780loPI   GL212470  17.482   8.500   6.140 -0.1323 -0.0161 -0.1153
  780loPI   C1A12471  17.626   8.035   6.405  0.1191  0.1761 -0.1753
  780loPI   C2A12472  17.641   8.054   6.860  0.3266 -0.1275 -0.1098
  780loPI   C3A12473  17.507   8.059   7.312 -0.0032 -0.1428  0.0426
  780loPI   C4A12474  17.435   7.942   7.726  0.0932  0.0138 -0.3200
  780loPI   C5A12475  17.462   7.947   8.113 -0.0566  0.0234 -0.2876
  780loPI   C6A12476  17.366   7.984   8.463  0.3446 -0.1220 -0.0763
  780loPI   C1B12477  17.461   8.562   6.660 -0.0549 -0.1567  0.0902
  780loPI   C2B12478  17.404   8.491   7.041  0.2491 -0.0306  0.1851
  780loPI   C3B12479  17.372   8.541   7.551  0.0819 -0.2362  0.4049
  780loPI   C4B12480  17.286   8.492   7.948 -0.1058  0.1104  0.0787
  781loPI    C112481  17.727   9.294   5.440 -0.2344  0.0632  0.0826
  781loPI    C212482  17.574   9.647   5.330  0.0946  0.1434 -0.1343
  781loPI    C312483  17.555   9.335   5.081  0.2382  0.1413 -0.1434
  781loPI   PO412484  17.542   9.283   5.701 -0.3313  0.0112  0.0820
  781loPI   GL112485  17.518   9.456   6.160 -0.3628  0.0398  0.3555
  781loPI   GL212486  17.201   9.792   6.192  0.1154 -0.1753  0.2612
  781loPI   C1A12487  17.239   9.458   6.540 -0.2314  0.0842 -0.1368
  781loPI   C2A12488  17.286   9.537   6.989  0.1162  0.2424  0.2789
  781loPI   C3A12489  17.286   9.561   7.465 -0.0136  0.1796  0.3008
  781loPI   C4A12490  17.165   9.623   7.777 -0.2952  0.0351  0.0093
  781loPI   C5A12491  17.203   9.671   8.192  0.0502 -0.0455  0.0270
  781loPI   C6A12492  17.433   9.701   8.551  0.1543 -0.0757 -0.1724
  781loPI   C1B12493  17.545   9.891   6.426 -0.0774  0.0695 -0.0367
  781loPI   C2B12494  17.605   9.897   6.905 -0.0122  0.2000  0.2021
  781loPI   C3B12495  17.687   9.875   7.331  0.0016  0.0317 -0.0268
  781loPI   C4B12496  17.560   9.908   7.763 -0.0742 -0.0740 -0.0645
  782loPI    C112497   3.566   8.718   6.156 -0.1214 -0.1579  0.0757
  782loPI    C212498   3.622   9.112   6.193  0.1313 -0.1764 -0.0858
  782loPI    C312499   3.302   8.973   5.998  0.0012 -0.0536  0.0377
  782loPI   PO412500   3.516   8.650   6.411 -0.0571  0.0967 -0.0164
  782loPI   GL112501   3.646   8.396   6.751  0.0192  0.2685 -0.1227
  782loPI   GL212502   3.250   8.316   6.671  0.1094  0.4561 -0.2174
  782loPI   C1A12503   3.481   8.281   7.249 -0.0978 -0.0589  0.3044
  782loPI   C2A12504   3.480   8.305   7.629  0.1545  0.1358 -0.0751
  782loPI   C3A12505   3.657   8.534   8.018 -0.0034 -0.0124 -0.0850
  782loPI   C4A12506   3.866   8.939   8.168 -0.1170 -0.3429  0.0077
  782loPI   C5A12507   4.276   9.249   8.200  0.0423  0.0641 -0.0668
  782loPI   C6A12508   4.641   9.172   8.315 -0.1993 -0.2799  0.1925
  782loPI   C1B12509   3.161   8.567   7.001 -0.2372 -0.0747 -0.0035
  782loPI   C2B12510   3.058   8.513   7.452 -0.1774 -0.0448  0.3178
  782loPI   C3B12511   3.084   8.551   7.924 -0.0505  0.0014  0.0175
  782loPI   C4B12512   3.216   8.691   8.348  0.0514 -0.2868  0.0355
  783loPI    C112513  13.640   4.944   5.431 -0.0157  0.0372 -0.0718
  783loPI    C212514  13.930   4.770   5.217 -0.0060  0.1577 -0.1575
  783loPI    C312515  13.547   4.717   5.116 -0.0185 -0.0553 -0.0047
  783loPI   PO412516  13.684   4.908   5.635  0.3464  0.0865  0.1221
  783loPI   GL112517  14.051   4.953   5.800 -0.3345 -0.0567  0.0552
  783loPI   GL212518  14.289   4.752   6.005 -0.1331 -0.1120 -0.0313
  783loPI   C1A12519  13.870   5.006   6.271  0.0964 -0.1328 -0.1961
  783loPI   C2A12520  13.898   5.035   6.640 -0.1018 -0.2365  0.0440
  783loPI   C3A12521  13.904   5.077   7.042 -0.0137  0.0971  0.2884
  783loPI   C4A12522  13.875   5.092   7.497 -0.1596 -0.0671  0.0707
  783loPI   C5A12523  13.949   5.110   7.890  0.2750  0.0689 -0.3855
  783loPI   C6A12524  13.984   4.582   7.903 -0.2518  0.0272  0.0428
  783loPI   C1B12525  14.325   4.856   6.477 -0.0877 -0.0521  0.1276
  783loPI   C2B12526  14.461   4.854   6.834  0.1342  0.1152  0.1200
  783loPI   C3B12527  14.421   4.949   7.196 -0.1644 -0.3629 -0.1255
  783loPI   C4B12528  14.375   4.812   7.689 -0.1269  0.1372 -0.1013
  784loPI    C112529   8.591   5.198   5.430  0.2123  0.1817  0.1207
  784loPI    C212530   8.300   5.399   5.618 -0.0301  0.1599 -0.2224
  784loPI    C312531   8.309   5.386   5.218  0.2043 -0.1909 -0.2104
  784loPI   PO412532   8.881   5.232   5.491  0.3178  0.3327  0.0067
  784loPI   GL112533   9.085   5.173   5.929 -0.3029  0.2113 -0.1888
  784loPI   GL212534   9.318   5.383   6.131  0.0118 -0.0363 -0.1458
  784loPI   C1A12535   8.918   5.042   6.373 -0.2474 -0.0529 -0.0743
  784loPI   C2A12536   8.903   5.059   6.785  0.2338 -0.2878 -0.0514
  784loPI   C3A12537   8.987   5.139   7.163 -0.0838 -0.0065  0.1542
  784loPI   C4A12538   9.003   5.099   7.574  0.3228 -0.0272 -0.4155
  784loPI   C5A12539   9.058   5.017   8.051  0.1211 -0.0300 -0.0397
  784loPI   C6A12540   9.020   5.125   8.481 -0.0073 -0.0672  0.1783
  784loPI   C1B12541   9.338   5.376   6.550  0.1466  0.2913 -0.1625
  784loPI   C2B12542   9.366   5.438   6.967 -0.0391  0.0132  0.0306
  784loPI   C3B12543   9.375   5.418   7.356 -0.1247 -0.0194 -0.1915
  784loPI   C4B12544   9.495   5.334   7.831  0.0591  0.0041  0.2932
  785loPI    C112545  16.308   7.705   5.179 -0.0426  0.1124  0.1597
  785loPI    C212546  16.608   7.615   4.931 -0.2128 -0.1226  0.0350
  785loPI    C312547  16.413   7.962   4.891 -0.0967 -0.0629 -0.0182
  785loPI   PO412548  16.448   7.675   5.436  0.0263 -0.1403  0.1359
  785loPI   GL112549  16.369   7.803   5.907  0.0517  0.3187 -0.1764
  785loPI   GL212550  16.156   8.028   6.070 -0.1994 -0.0641 -0.0612
  785loPI   C1A12551  16.362   7.550   6.256  0.0015  0.1068  0.0136
  785loPI   C2A12552  16.231   7.487   6.618  0.0071 -0.0062  0.2289
  785loPI   C3A12553  16.298   7.471   6.980  0.2274  0.0716  0.0261
  785loPI   C4A12554  16.236   7.556   7.421  0.1890  0.5451  0.0001
  785loPI   C5A12555  16.185   7.478   7.837  0.3085  0.1430 -0.0848
  785loPI   C6A12556  15.918   7.604   8.140 -0.0224  0.2405 -0.0068
  785loPI   C1B12557  16.114   8.079   6.515 -0.0329 -0.2050  0.1710
  785loPI   C2B12558  16.151   7.981   6.927  0.0354  0.0545  0.3014
  785loPI   C3B12559  16.240   8.083   7.334 -0.1363  0.0854  0.2721
  785loPI   C4B12560  16.118   8.052   7.779 -0.0864  0.1763 -0.0996
  786loPI    C112561   8.962  14.524   5.353 -0.0558  0.0645  0.0688
  786loPI    C212562   9.300  14.572   5.144 -0.0764  0.0448  0.0309
  786loPI    C312563   9.014  14.326   5.010 -0.0147 -0.1053  0.1720
  786loPI   PO412564   9.105  14.464   5.626  0.0495  0.0350 -0.2679
  786loPI   GL112565   9.080  14.396   6.030 -0.1667  0.0941 -0.2060
  786loPI   GL212566   8.857  14.664   6.093  0.2398  0.0014  0.1634
  786loPI   C1A12567   9.167  14.636   6.543  0.0467 -0.1448  0.5291
  786loPI   C2A12568   9.237  14.617   7.054  0.1051 -0.0469  0.0406
  786loPI   C3A12569   9.227  14.687   7.498 -0.0508 -0.0237 -0.3220
  786loPI   C4A12570   9.289  14.715   7.880 -0.2502  0.0884  0.0551
  786loPI   C5A12571   9.581  14.898   8.123  0.0182 -0.0136 -0.0741
  786loPI   C6A12572   9.654  15.283   8.050  0.1283  0.1710  0.2722
  786loPI   C1B12573   8.710  14.828   6.549  0.0677 -0.0227  0.5695
  786loPI   C2B12574   8.748  14.884   6.975 -0.2752  0.1086  0.2185
  786loPI   C3B12575   8.692  15.040   7.434  0.0932  0.0155  0.1681
  786loPI   C4B12576   8.727  14.992   7.896 -0.0784  0.0563 -0.0016
  787loPI    C112577  16.303   6.000   5.439 -0.0436  0.1684  0.0647
  787loPI    C212578  16.563   6.304   5.446  0.1256  0.0306 -0.1174
  787loPI    C312579  16.438   6.156   5.096  0.0167 -0.0873 -0.0297
  787loPI   PO412580  16.358   5.756   5.565 -0.1834 -0.1858 -0.1341
  787loPI   GL112581  16.294   5.748   6.013 -0.3370  0.4381  0.0925
  787loPI   GL212582  16.123   5.562   6.086 -0.3753 -0.0211  0.0233
  787loPI   C1A12583  16.420   5.935   6.414 -0.2014  0.1100  0.0380
  787loPI   C2A12584  16.534   5.960   6.819  0.1509 -0.2800 -0.0874
  787loPI   C3A12585  16.530   5.998   7.306 -0.0411  0.2398  0.2255
  787loPI   C4A12586  16.459   5.955   7.729  0.2130  0.0545  0.1328
  787loPI   C5A12587  16.129   6.123   8.101 -0.1107  0.2016 -0.1834
  787loPI   C6A12588  15.738   6.064   8.210  0.1695  0.2292 -0.0958
  787loPI   C1B12589  16.080   5.554   6.534  0.0957  0.3543  0.1549
  787loPI   C2B12590  16.112   5.669   6.959  0.2900  0.1324  0.2753
  787loPI   C3B12591  16.044   5.643   7.462 -0.0129 -0.4154  0.2994
  787loPI   C4B12592  16.078   5.656   7.929  0.0232  0.1665 -0.1312
  788loPI    C112593  14.221  14.574   5.392 -0.0832 -0.0156 -0.0723
  788loPI    C212594  14.047  14.931   5.439 -0.0417 -0.0178  0.1085
  788loPI    C312595  13.971  14.713   5.112  0.2950  0.3601 -0.2335
  788loPI   PO412596  14.337  14.507   5.745  0.1057  0.0010  0.3703
  788loPI   GL112597  14.209  14.347   6.262 -0.1030  0.2441 -0.0854
  788loPI   GL212598  14.418  14.610   6.357  0.1158 -0.4915  0.2704
  788loPI   C1A12599  14.263  14.091   6.603  0.1984  0.1585 -0.0777
  788loPI   C2A12600  14.353  14.119   6.920 -0.1371  0.1210 -0.4117
  788loPI   C3A12601  14.217  14.163   7.346  0.1171  0.1342  0.1113
  788loPI   C4A12602  14.274  14.232   7.841  0.4385  0.0155 -0.0247
  788loPI   C5A12603  14.290  14.231   8.257 -0.2508  0.1744  0.3661
  788loPI   C6A12604  14.035  14.159   8.558 -0.2763 -0.0007  0.2258
  788loPI   C1B12605  14.246  14.591   6.807  0.0484  0.1844 -0.2154
  788loPI   C2B12606  14.235  14.650   7.268  0.0874 -0.1998 -0.0413
  788loPI   C3B12607  14.287  14.750   7.723  0.0455  0.0204  0.0262
  788loPI   C4B12608  14.293  14.789   8.176  0.0046 -0.0753  0.2695
  789loPI    C112609   7.396   8.603   5.177  0.1038  0.1174 -0.0457
  789loPI    C212610   7.768   8.507   5.289  0.0907  0.0600 -0.0512
  789loPI    C312611   7.682   8.556   4.901  0.0561 -0.0820 -0.0620
  789loPI   PO412612   7.287   8.548   5.411 -0.0474 -0.1008  0.1465
  789loPI   GL112613   7.290   8.528   5.915  0.0086  0.0807 -0.3957
  789loPI   GL212614   7.094   8.345   6.119 -0.0278 -0.3448 -0.3118
  789loPI   C1A12615   7.410   8.651   6.391  0.0367  0.3208 -0.0944
  789loPI   C2A12616   7.586   8.604   6.737 -0.0645 -0.0566 -0.2099
  789loPI   C3A12617   7.573   8.585   7.252 -0.0270  0.1072 -0.0232
  789loPI   C4A12618   7.558   8.550   7.651 -0.0565  0.0800  0.0382
  789loPI   C5A12619   7.619   8.625   8.116  0.2175  0.0521 -0.0273
  789loPI   C6A12620   7.572   8.792   8.642  0.0462 -0.0302 -0.2775
  789loPI   C1B12621   7.183   8.269   6.576 -0.0915  0.0737 -0.1524
  789loPI   C2B12622   7.200   8.270   7.045  0.0641 -0.3012 -0.1759
  789loPI   C3B12623   7.175   8.276   7.493 -0.0052 -0.3253 -0.1387
  789loPI   C4B12624   7.048   8.293   7.839 -0.0355 -0.1868 -0.0724
  790loPI    C112625   7.727   6.735   5.246 -0.1011 -0.0434 -0.1175
  790loPI    C212626   7.702   7.067   5.023 -0.1344 -0.1478 -0.2711
  790loPI    C312627   7.370   6.866   5.120 -0.1442  0.0305  0.0789
  790loPI   PO412628   7.792   6.764   5.498  0.0090  0.4545  0.0066
  790loPI   GL112629   7.715   6.886   5.882  0.2494  0.0349 -0.0858
  790loPI   GL212630   7.386   6.776   6.066 -0.1852  0.1106 -0.3390
  790loPI   C1A12631   7.730   7.094   6.335  0.0479 -0.0306 -0.3894
  790loPI   C2A12632   7.761   7.027   6.709  0.2820 -0.2255  0.2988
  790loPI   C3A12633   7.806   7.018   7.191  0.0793 -0.2012  0.0886
  790loPI   C4A12634   7.730   7.080   7.630 -0.2326  0.0436 -0.3801
  790loPI   C5A12635   7.814   7.124   8.078 -0.1450  0.1923 -0.1838
  790loPI   C6A12636   8.056   7.279   8.449  0.0025  0.0662  0.2259
  790loPI   C1B12637   7.364   6.742   6.551 -0.2595 -0.2781  0.0216
  790loPI   C2B12638   7.352   6.676   6.918 -0.2318  0.0647 -0.2839
  790loPI   C3B12639   7.400   6.765   7.373  0.0917 -0.0050  0.4593
  790loPI   C4B12640   7.430   6.708   7.816 -0.2886  0.0314  0.1376
  791loPI    C112641   4.118   0.482   5.240  0.0330  0.3228 -0.4067
  791loPI    C212642   4.203   0.443   4.851 -0.2118 -0.3671 -0.4044
  791loPI    C312643   3.841   0.341   4.988 -0.0647 -0.3186  0.0363
  791loPI   PO412644   4.317   0.738   5.420  0.1512  0.2155 -0.0021
  791loPI   GL112645   4.306   0.915   5.803  0.2021 -0.1059  0.0622
  791loPI   GL212646   4.142   0.733   6.009 -0.3727  0.0753 -0.1218
  791loPI   C1A12647   4.493   1.070   6.218 -0.0636  0.2587 -0.0047
  791loPI   C2A12648   4.491   1.109   6.672  0.2666 -0.0822 -0.1395
  791loPI   C3A12649   4.494   1.042   7.089  0.2698 -0.0866 -0.2472
  791loPI   C4A12650   4.513   1.036   7.504 -0.0768  0.1469  0.0742
  791loPI   C5A12651   4.608   1.031   7.884 -0.0788 -0.0388 -0.1099
  791loPI   C6A12652   4.677   1.143   8.379 -0.2793 -0.1107 -0.1292
  791loPI   C1B12653   4.096   0.795   6.450  0.0060  0.3380 -0.0222
  791loPI   C2B12654   4.115   0.804   6.839 -0.0710 -0.1157 -0.1714
  791loPI   C3B12655   4.112   0.815   7.322 -0.1741  0.1815 -0.3252
  791loPI   C4B12656   4.165   0.751   7.753 -0.1219 -0.3857  0.2473
  792loPI    C112657  16.144  10.034   5.365 -0.0533  0.1002 -0.2879
  792loPI    C212658  16.113   9.670   5.201 -0.2083 -0.0147 -0.0127
  792loPI    C312659  15.854   9.958   5.100 -0.0194  0.0548 -0.3120
  792loPI   PO412660  16.208  10.013   5.654  0.0888 -0.0011  0.0374
  792loPI   GL112661  16.014   9.890   5.972 -0.1715 -0.0694  0.1550
  792loPI   GL212662  15.675   9.953   6.069 -0.3224  0.1771 -0.1093
  792loPI   C1A12663  16.253   9.828   6.424  0.2930 -0.1217  0.0275
  792loPI   C2A12664  16.322   9.935   6.847  0.2676 -0.0745 -0.1074
  792loPI   C3A12665  16.301   9.978   7.317 -0.1080  0.2607 -0.0465
  792loPI   C4A12666  16.254  10.017   7.714 -0.1315  0.0032 -0.2693
  792loPI   C5A12667  16.220   9.971   8.141 -0.0248 -0.1065 -0.1009
  792loPI   C6A12668  16.165  10.193   8.534  0.1347 -0.3230 -0.1997
  792loPI   C1B12669  15.784  10.018   6.462  0.0096  0.0246 -0.2083
  792loPI   C2B12670  15.841  10.093   6.892  0.0376 -0.1087 -0.1371
  792loPI   C3B12671  15.820  10.203   7.346 -0.0636  0.0595 -0.2488
  792loPI   C4B12672  15.829  10.207   7.830  0.1774 -0.1925 -0.2887
  793loPI    C112673   4.317   5.302   5.524  0.1528  0.1046 -0.1692
  793loPI    C212674   4.344   5.525   5.193  0.1398  0.0591 -0.2011
  793loPI    C312675   3.996   5.355   5.292  0.1557  0.0328 -0.1900
  793loPI   PO412676   4.450   5.431   5.679 -0.2559 -0.2459  0.1376
  793loPI   GL112677   4.874   5.659   5.957  0.1042 -0.2163 -0.1198
  793loPI   GL212678   5.224   5.692   6.119 -0.0045  0.1540 -0.2369
  793loPI   C1A12679   4.758   5.846   6.287  0.1941  0.0324 -0.2801
  793loPI   C2A12680   4.795   5.960   6.708 -0.1991 -0.1627  0.0005
  793loPI   C3A12681   4.779   5.824   7.270  0.1101 -0.2635  0.0607
  793loPI   C4A12682   4.882   5.756   7.748 -0.1086  0.0888  0.0672
  793loPI   C5A12683   5.033   5.698   8.146 -0.4361 -0.0890 -0.3012
  793loPI   C6A12684   5.151   5.548   8.566  0.3180  0.2757  0.1707
  793loPI   C1B12685   5.240   5.681   6.549  0.1107 -0.1811  0.0366
  793loPI   C2B12686   5.252   5.598   7.022  0.0119  0.1448  0.2372
  793loPI   C3B12687   5.304   5.593   7.476  0.1267 -0.1072 -0.2867
  793loPI   C4B12688   5.436   5.564   7.878  0.0211  0.1696  0.0142
  794loPI    C112689  16.953   6.725   5.269  0.0891  0.0083  0.1252
  794loPI    C212690  17.027   6.379   5.084 -0.0323  0.1342 -0.1651
  794loPI    C312691  16.704   6.593   4.986 -0.0452  0.2525  0.1264
  794loPI   PO412692  16.954   6.585   5.518  0.0791 -0.2013  0.0278
  794loPI   GL112693  16.748   6.641   5.855 -0.1016  0.0089  0.2688
  794loPI   GL212694  16.507   6.745   6.026 -0.0603  0.1827  0.1014
  794loPI   C1A12695  16.861   6.301   6.226  0.2557 -0.4849 -0.0353
  794loPI   C2A12696  16.912   6.273   6.622 -0.1011 -0.1387 -0.1185
  794loPI   C3A12697  16.894   6.382   7.131 -0.0677  0.0685 -0.1285
  794loPI   C4A12698  16.853   6.312   7.567 -0.1264  0.4005  0.0357
  794loPI   C5A12699  16.916   6.313   7.955 -0.0170 -0.1026  0.0171
  794loPI   C6A12700  16.639   6.014   8.196  0.2182  0.0200  0.1253
  794loPI   C1B12701  16.294   6.959   6.349  0.1985  0.1217 -0.0544
  794loPI   C2B12702  16.335   7.006   6.726  0.0058 -0.3078 -0.0087
  794loPI   C3B12703  16.306   6.906   7.140 -0.4403 -0.1559 -0.0785
  794loPI   C4B12704  16.248   7.077   7.575 -0.3317 -0.1676 -0.0029
  795loPI    C112705  16.197  16.835   5.444  0.0627  0.1305  0.0180
  795loPI    C212706  16.336  16.903   5.075 -0.0114 -0.0899 -0.0516
  795loPI    C312707  15.941  16.893   5.142  0.0021  0.1189  0.0668
  795loPI   PO412708  16.227  17.076   5.546  0.0239  0.1072  0.2636
  795loPI   GL112709  16.170  17.169   5.955 -0.0643  0.0565  0.0040
  795loPI   GL212710  16.417  17.342   5.989  0.0152 -0.1741  0.1414
  795loPI   C1A12711  15.786  17.040   6.132 -0.1124  0.0803 -0.0005
  795loPI   C2A12712  15.638  16.980   6.578 -0.4944  0.0608 -0.0808
  795loPI   C3A12713  15.663  16.965   7.054  0.1383 -0.0880 -0.0398
  795loPI   C4A12714  15.631  17.049   7.473 -0.0005 -0.1168  0.1781
  795loPI   C5A12715  15.596  17.020   7.907 -0.1338  0.3092 -0.0190
  795loPI   C6A12716  15.878  16.836   8.207 -0.3375  0.3824 -0.0033
  795loPI   C1B12717  16.238  17.320   6.436  0.0989  0.1071  0.1559
  795loPI   C2B12718  16.011  17.254   6.840  0.1639 -0.0388 -0.0075
  795loPI   C3B12719  15.982  17.339   7.239  0.0964  0.0071  0.1625
  795loPI   C4B12720  15.966  17.377   7.694 -0.0836  0.2244 -0.3176
  796loPI    C112721  16.185   8.501   5.339 -0.0242  0.0614  0.0934
  796loPI    C212722  16.506   8.728   5.265  0.1058 -0.0619  0.2688
  796loPI    C312723  16.380   8.463   4.992  0.0060  0.1562  0.0997
  796loPI   PO412724  16.199   8.532   5.617  0.0198  0.1430 -0.1201
  796loPI   GL112725  15.968   8.537   5.890 -0.0776  0.1177  0.0901
  796loPI   GL212726  15.707   8.322   5.808  0.0305 -0.0822 -0.0706
  796loPI   C1A12727  15.999   8.552   6.328  0.1124  0.2885  0.2467
  796loPI   C2A12728  16.131   8.521   6.735 -0.0288 -0.4887 -0.0266
  796loPI   C3A12729  16.129   8.579   7.227  0.0855 -0.1357 -0.1520
  796loPI   C4A12730  16.140   8.559   7.649  0.0597  0.0104 -0.2565
  796loPI   C5A12731  16.140   8.577   8.053 -0.0394  0.1279  0.2254
  796loPI   C6A12732  15.843   8.666   8.386  0.0314  0.1969 -0.2565
  796loPI   C1B12733  15.654   8.213   6.236  0.0270  0.0069 -0.0513
  796loPI   C2B12734  15.672   8.207   6.687 -0.2621  0.0800  0.1706
  796loPI   C3B12735  15.754   8.340   7.027 -0.0988 -0.1944  0.0557
  796loPI   C4B12736  15.749   8.216   7.410  0.2160 -0.2635  0.0539
  797loPI    C112737   4.008   7.476   5.645 -0.0180 -0.0608  0.1212
  797loPI    C212738   4.077   7.253   5.321  0.0704 -0.1511  0.2015
  797loPI    C312739   3.804   7.544   5.308  0.1212 -0.1096  0.0259
  797loPI   PO412740   3.947   7.330   5.868  0.2394 -0.2924 -0.1382
  797loPI   GL112741   3.891   7.028   6.180  0.0564  0.1733  0.3547
  797loPI   GL212742   4.250   6.935   6.294  0.0592  0.2114  0.0740
  797loPI   C1A12743   3.753   6.718   6.436  0.0102  0.0095  0.1848
  797loPI   C2A12744   3.789   6.747   6.960  0.2696 -0.0062  0.1483
  797loPI   C3A12745   3.851   6.712   7.340  0.1911  0.0001 -0.3908
  797loPI   C4A12746   3.766   6.685   7.859 -0.1207 -0.1817  0.1794
  797loPI   C5A12747   3.922   6.523   8.251 -0.0275  0.0019  0.0789
  797loPI   C6A12748   4.294   6.711   8.441  0.4224  0.0109  0.1519
  797loPI   C1B12749   4.116   7.060   6.609  0.0662  0.1109  0.0036
  797loPI   C2B12750   4.176   7.050   7.022  0.0880 -0.1854  0.1249
  797loPI   C3B12751   4.226   6.981   7.503 -0.0318  0.1136  0.1542
  797loPI   C4B12752   4.225   6.950   7.941 -0.0247  0.1240  0.1704
  798loPI    C112753   6.621   2.145   5.205  0.1721  0.0199 -0.0187
  798loPI    C212754   6.873   2.238   4.909  0.1872 -0.0345 -0.0231
  798loPI    C312755   6.635   1.918   4.876  0.2351 -0.0781  0.0509
  798loPI   PO412756   6.567   2.411   5.334 -0.2763  0.1082  0.0294
  798loPI   GL112757   6.648   2.537   5.682 -0.1867  0.1196 -0.2480
  798loPI   GL212758   6.721   2.206   5.768  0.3987 -0.1009 -0.3842
  798loPI   C1A12759   6.543   2.615   6.102 -0.0296 -0.0034  0.1644
  798loPI   C2A12760   6.638   2.695   6.479 -0.0149 -0.0985 -0.0271
  798loPI   C3A12761   6.541   2.643   6.941 -0.5007  0.4346 -0.0275
  798loPI   C4A12762   6.644   2.579   7.342 -0.0714  0.1069 -0.1408
  798loPI   C5A12763   6.709   2.630   7.705 -0.2879 -0.1677 -0.3635
  798loPI   C6A12764   7.017   2.900   8.032  0.0112  0.1091  0.1562
  798loPI   C1B12765   6.588   2.075   6.238  0.0340 -0.1429  0.1237
  798loPI   C2B12766   6.610   2.179   6.716  0.0828  0.0194  0.1143
  798loPI   C3B12767   6.694   2.137   7.110 -0.1130  0.0214  0.0028
  798loPI   C4B12768   6.767   2.148   7.597  0.2776 -0.2278 -0.3738
  799loPI    C112769  14.273   0.318   5.336  0.0417  0.0981  0.0246
  799loPI    C212770  13.890   0.322   5.451 -0.0410 -0.2548 -0.2215
  799loPI    C312771  13.985   0.400   5.071  0.1699  0.2092 -0.0811
  799loPI   PO412772  14.352   0.441   5.579 -0.2130 -0.1582 -0.2788
  799loPI   GL112773  14.462   0.286   5.968  0.2108 -0.0393  0.0832
  799loPI   GL212774  14.293   0.038   5.876 -0.1499 -0.0955  0.4122
  799loPI   C1A12775  14.649   0.382   6.378 -0.2415 -0.2045 -0.0313
  799loPI   C2A12776  14.541   0.414   6.775 -0.1753 -0.1700  0.1648
  799loPI   C3A12777  14.566   0.439   7.173  0.0254  0.0966  0.0459
  799loPI   C4A12778  14.570   0.496   7.581 -0.3533 -0.2223  0.2481
  799loPI   C5A12779  14.401   0.643   8.027  0.0719  0.1614  0.0516
  799loPI   C6A12780  14.126   0.878   8.273 -0.0419 -0.2220 -0.2025
  799loPI   C1B12781  14.261  -0.013   6.284 -0.1586  0.2375  0.0010
  799loPI   C2B12782  14.131   0.119   6.674 -0.0765  0.1800 -0.1292
  799loPI   C3B12783  14.137   0.127   7.138 -0.0335  0.1196 -0.0774
  799loPI   C4B12784  14.185   0.126   7.522 -0.0119 -0.2886  0.0663
  800loPI    C112785  15.909  12.345   5.135 -0.2236  0.1564  0.2922
  800loPI    C212786  16.189  12.618   5.053 -0.0518 -0.0550  0.1649
  800loPI    C312787  16.291  12.233   5.097 -0.3185 -0.1296  0.1452
  800loPI   PO412788  15.814  12.360   5.280  0.1857  0.0127  0.1393
  800loPI   GL112789  15.745  12.184   5.798  0.0959  0.0718 -0.1309
  800loPI   GL212790  15.985  12.245   6.007  0.2489  0.1361 -0.0056
  800loPI   C1A12791  15.539  12.079   6.224 -0.1483  0.0375  0.1805
  800loPI   C2A12792  15.508  12.159   6.607  0.2959  0.1662  0.1394
  800loPI   C3A12793  15.512  12.204   7.037 -0.0157  0.0902  0.1240
  800loPI   C4A12794  15.402  12.325   7.383 -0.0395 -0.4022 -0.5024
  800loPI   C5A12795  15.415  12.279   7.839  0.0229 -0.2436 -0.1493
  800loPI   C6A12796  15.783  12.227   8.149  0.3101  0.2604 -0.0158
  800loPI   C1B12797  15.969  12.437   6.374 -0.0781  0.2707  0.2482
  800loPI   C2B12798  15.934  12.510   6.733  0.2097  0.1589 -0.1119
  800loPI   C3B12799  15.932  12.542   7.187  0.2105  0.0595  0.2146
  800loPI   C4B12800  15.830  12.572   7.718  0.0055  0.1898 -0.2416
  801loPI    C112801  15.536   2.253   5.078  0.1894  0.3045 -0.1742
  801loPI    C212802  15.364   1.958   4.870  0.2801 -0.0482  0.2381
  801loPI    C312803  15.756   2.025   4.834  0.2091  0.2203 -0.0784
  801loPI   PO412804  15.468   2.302   5.309 -0.2440  0.1316  0.2959
  801loPI   GL112805  15.525   2.195   5.810  0.2285  0.2871 -0.0558
  801loPI   GL212806  15.496   1.875   5.739  0.1419 -0.1147  0.0963
  801loPI   C1A12807  15.687   2.464   6.090 -0.1424 -0.1256  0.3624
  801loPI   C2A12808  15.672   2.407   6.544 -0.2306 -0.0360  0.1630
  801loPI   C3A12809  15.656   2.371   6.918  0.0486 -0.0820 -0.1273
  801loPI   C4A12810  15.714   2.346   7.364  0.1434 -0.1474 -0.1473
  801loPI   C5A12811  15.707   2.367   7.771  0.0149  0.0575  0.1257
  801loPI   C6A12812  15.892   2.522   8.207 -0.0989  0.1364  0.0627
  801loPI   C1B12813  15.662   1.974   6.188  0.2225  0.1279 -0.1616
  801loPI   C2B12814  15.719   1.852   6.548 -0.0038 -0.1128 -0.2035
  801loPI   C3B12815  15.694   1.904   6.973 -0.2776 -0.1660 -0.2246
  801loPI   C4B12816  15.675   1.810   7.385 -0.1363 -0.3923  0.0378
  802loPI    C112817  11.028  13.687   5.537  0.0001  0.2858 -0.0350
  802loPI    C212818  10.947  13.472   5.209  0.3324  0.2246 -0.0810
  802loPI    C312819  10.944  13.871   5.192  0.1815  0.2229 -0.1138
  802loPI   PO412820  10.873  13.558   5.705  0.0603 -0.2109  0.0797
  802loPI   GL112821  11.016  13.368   6.108 -0.3822 -0.1207  0.2850
  802loPI   GL212822  10.724  13.537   6.154  0.0738  0.0269  0.0415
  802loPI   C1A12823  11.179  13.413   6.457 -0.0467 -0.0924  0.1793
  802loPI   C2A12824  11.204  13.521   6.789 -0.1516  0.2079 -0.0279
  802loPI   C3A12825  11.212  13.405   7.187  0.0425 -0.2877  0.2026
  802loPI   C4A12826  11.232  13.501   7.648  0.2439  0.1689  0.2435
  802loPI   C5A12827  11.357  13.458   8.164  0.0097  0.1555  0.0229
  802loPI   C6A12828  11.158  13.315   8.479  0.1513 -0.4193 -0.0825
  802loPI   C1B12829  10.728  13.599   6.647  0.0178 -0.2535 -0.5415
  802loPI   C2B12830  10.697  13.544   7.060  0.1433  0.1313  0.0184
  802loPI   C3B12831  10.753  13.591   7.474 -0.2178 -0.0147  0.1305
  802loPI   C4B12832  10.729  13.555   7.846 -0.2447 -0.4307  0.0699
  803loPI    C112833  14.506  10.076   5.105  0.3202  0.2137  0.0819
  803loPI    C212834  14.819  10.244   4.922  0.0549  0.1588 -0.4422
  803loPI    C312835  14.554  10.032   4.710 -0.0654 -0.2278  0.0754
  803loPI   PO412836  14.529  10.146   5.418  0.0144 -0.2682 -0.2917
  803loPI   GL112837  14.566  10.093   5.873  0.0508 -0.0081 -0.0920
  803loPI   GL212838  14.893  10.195   5.823  0.1553 -0.1983 -0.0524
  803loPI   C1A12839  14.419  10.110   6.252 -0.0674 -0.0148 -0.2244
  803loPI   C2A12840  14.441  10.257   6.651 -0.0362 -0.0826  0.1917
  803loPI   C3A12841  14.496  10.161   7.079 -0.0575  0.1308 -0.0649
  803loPI   C4A12842  14.474  10.320   7.438 -0.2388  0.0205 -0.1274
  803loPI   C5A12843  14.307  10.302   7.812 -0.2371 -0.0377 -0.0863
  803loPI   C6A12844  14.551  10.320   8.144  0.2950 -0.1401 -0.1238
  803loPI   C1B12845  14.906  10.410   6.278  0.2091 -0.1637 -0.1280
  803loPI   C2B12846  14.956  10.471   6.682  0.1007  0.1687  0.3639
  803loPI   C3B12847  14.847  10.496   7.070 -0.2490  0.2431  0.0566
  803loPI   C4B12848  14.899  10.518   7.506 -0.2090  0.0008 -0.2815
  804loPI    C112849   8.739   1.411   5.305  0.0211 -0.1582  0.1145
  804loPI    C212850   8.973   1.117   5.170  0.0377 -0.0769 -0.0361
  804loPI    C312851   8.781   1.354   4.911 -0.0981 -0.0527  0.0856
  804loPI   PO412852   8.873   1.490   5.528  0.0070  0.1116  0.1391
  804loPI   GL112853   8.907   1.281   5.965  0.2443  0.1427 -0.1326
  804loPI   GL212854   9.101   1.582   5.983 -0.0448 -0.0506 -0.3580
  804loPI   C1A12855   9.015   1.167   6.259 -0.0520  0.1302 -0.2453
  804loPI   C2A12856   9.073   1.126   6.761  0.2980  0.3317 -0.1460
  804loPI   C3A12857   9.094   1.331   7.227  0.1770  0.0186 -0.3159
  804loPI   C4A12858   9.201   1.419   7.641  0.1294  0.3725  0.1775
  804loPI   C5A12859   9.265   1.241   8.004  0.2124 -0.3362 -0.0377
  804loPI   C6A12860   9.446   1.061   8.325 -0.4104  0.0048  0.0854
  804loPI   C1B12861   8.887   1.701   6.306  0.0350  0.0255 -0.0899
  804loPI   C2B12862   9.017   1.627   6.727 -0.1437 -0.0465  0.3120
  804loPI   C3B12863   9.089   1.814   7.120 -0.1363  0.1772 -0.3390
  804loPI   C4B12864   9.128   1.892   7.519 -0.1980  0.1214  0.1063
  805loPI    C112865  17.252  15.188   5.583  0.2404 -0.0638 -0.1565
  805loPI    C212866  16.858  15.214   5.647  0.2772  0.1123  0.0086
  805loPI    C312867  17.009  14.900   5.449  0.0436  0.0970 -0.1493
  805loPI   PO412868  17.410  15.202   5.806  0.1635 -0.2461  0.0738
  805loPI   GL112869  17.457  15.126   6.184 -0.0244 -0.2157 -0.3186
  805loPI   GL212870  17.736  14.981   6.308  0.0556  0.1390 -0.0101
  805loPI   C1A12871  17.298  15.314   6.497  0.0476  0.1970 -0.1416
  805loPI   C2A12872  17.245  15.405   6.854  0.3289  0.1597  0.0002
  805loPI   C3A12873  17.196  15.451   7.292  0.0789 -0.1521 -0.1005
  805loPI   C4A12874  17.141  15.429   7.718 -0.2204  0.0422 -0.2362
  805loPI   C5A12875  17.257  15.572   8.145 -0.0657 -0.0043 -0.1029
  805loPI   C6A12876  17.275  15.866   8.580  0.3216 -0.2142 -0.0333
  805loPI   C1B12877  17.778  15.134   6.678 -0.3500  0.1467  0.1492
  805loPI   C2B12878  17.645  15.218   7.112 -0.0351  0.0274  0.1326
  805loPI   C3B12879  17.692  15.303   7.489 -0.0644 -0.0717  0.0480
  805loPI   C4B12880  17.694  15.345   7.956 -0.1814  0.1351 -0.0273
  806loPI    C112881  16.338   4.407   5.394 -0.0780 -0.1477 -0.0272
  806loPI    C212882  16.647   4.631   5.512 -0.1626 -0.1159  0.1371
  806loPI    C312883  16.536   4.630   5.128  0.1652 -0.2804  0.0394
  806loPI   PO412884  16.268   4.274   5.624 -0.3040 -0.1005 -0.2879
  806loPI   GL112885  16.523   4.296   5.939 -0.0706  0.2105  0.1927
  806loPI   GL212886  16.382   4.105   6.084  0.0333 -0.0173 -0.0902
  806loPI   C1A12887  16.625   4.395   6.359 -0.0817  0.1634 -0.0076
  806loPI   C2A12888  16.670   4.451   6.730  0.4039 -0.0184  0.3388
  806loPI   C3A12889  16.732   4.501   7.135 -0.2563 -0.3618 -0.1568
  806loPI   C4A12890  16.722   4.433   7.527  0.1571  0.0450  0.0872
  806loPI   C5A12891  16.405   4.398   7.878 -0.1719 -0.2390 -0.1136
  806loPI   C6A12892  16.230   4.281   8.268  0.1941 -0.1917 -0.0480
  806loPI   C1B12893  16.242   4.062   6.424  0.0612  0.0238  0.1052
  806loPI   C2B12894  16.275   4.123   6.951 -0.3185  0.1044  0.1487
  806loPI   C3B12895  16.332   4.098   7.475 -0.2077  0.3969 -0.2422
  806loPI   C4B12896  16.364   3.889   7.928 -0.1696  0.1855 -0.1143
  807loPI    C112897   1.476  14.269   5.515  0.0915  0.0131  0.1450
  807loPI    C212898   1.192  14.098   5.292  0.1221  0.0281  0.0942
  807loPI    C312899   1.190  14.494   5.349  0.1984  0.0429 -0.0017
  807loPI   PO412900   1.458  14.171   5.716 -0.0048  0.3472  0.1015
  807loPI   GL112901   1.253  14.259   6.103  0.0233  0.0779  0.0488
  807loPI   GL212902   1.270  14.596   6.211  0.2174 -0.0752 -0.3031
  807loPI   C1A12903   1.242  14.034   6.469 -0.3284  0.1050 -0.1134
  807loPI   C2A12904   1.288  14.093   6.935  0.4059 -0.1255 -0.0899
  807loPI   C3A12905   1.239  14.175   7.367  0.0540  0.1594 -0.4221
  807loPI   C4A12906   1.181  14.059   7.776  0.0582  0.1080 -0.2047
  807loPI   C5A12907   1.249  13.955   8.158  0.2076 -0.0321  0.3169
  807loPI   C6A12908   1.515  14.124   8.419  0.1527 -0.4609  0.0442
  807loPI   C1B12909   1.189  14.629   6.658  0.3120  0.1560  0.0765
  807loPI   C2B12910   1.224  14.593   7.063  0.0091 -0.1222 -0.0706
  807loPI   C3B12911   1.117  14.698   7.484 -0.0630 -0.2627 -0.2882
  807loPI   C4B12912   1.176  14.538   7.990  0.0270 -0.1363  0.1239
  808loPI    C112913   0.608  15.787   5.433  0.0154 -0.0508 -0.0128
  808loPI    C212914   0.525  15.409   5.331  0.2965 -0.1278  0.0366
  808loPI    C312915   0.614  15.678   5.048  0.0772 -0.0921 -0.0002
  808loPI   PO412916   0.725  15.795   5.632  0.3842  0.0830  0.1892
  808loPI   GL112917   0.806  15.901   5.997  0.1724  0.0384  0.0946
  808loPI   GL212918   0.601  15.750   6.190  0.2002 -0.2746  0.0071
  808loPI   C1A12919   0.874  16.133   6.401 -0.0438 -0.0332  0.2004
  808loPI   C2A12920   0.935  16.189   6.841 -0.0940  0.1618 -0.0873
  808loPI   C3A12921   0.925  16.271   7.236  0.1332 -0.2454 -0.0273
  808loPI   C4A12922   0.897  16.192   7.601 -0.0326  0.1779  0.0070
  808loPI   C5A12923   0.969  16.157   7.985 -0.0303 -0.0471 -0.2527
  808loPI   C6A12924   1.305  16.467   8.191 -0.0557 -0.0654  0.1142
  808loPI   C1B12925   0.540  15.842   6.595 -0.0918  0.1696 -0.1570
  808loPI   C2B12926   0.494  15.835   7.021  0.0779 -0.1135  0.3476
  808loPI   C3B12927   0.430  15.912   7.471  0.4782  0.0942  0.0903
  808loPI   C4B12928   0.533  15.905   7.824  0.0036  0.1401 -0.1629
  809loPI    C112929   7.428  11.383   5.333 -0.1528  0.0741  0.0875
  809loPI    C212930   7.173  11.077   5.368 -0.0114 -0.0793 -0.1891
  809loPI    C312931   7.035  11.444   5.288 -0.1820 -0.0667  0.1472
  809loPI   PO412932   7.563  11.265   5.623  0.1760  0.2535 -0.0355
  809loPI   GL112933   7.795  11.153   6.053  0.1673  0.0693  0.2744
  809loPI   GL212934   8.081  11.280   6.092 -0.1684 -0.2100 -0.0611
  809loPI   C1A12935   7.589  11.092   6.350  0.2171 -0.1505 -0.0801
  809loPI   C2A12936   7.520  10.952   6.780  0.1349  0.1697 -0.1222
  809loPI   C3A12937   7.564  10.938   7.194  0.0189 -0.1153  0.0182
  809loPI   C4A12938   7.633  10.985   7.590 -0.1143 -0.0277 -0.0359
  809loPI   C5A12939   7.644  10.702   7.920  0.1020 -0.0635  0.2177
  809loPI   C6A12940   7.322  10.508   8.072  0.1913  0.0713 -0.2839
  809loPI   C1B12941   7.990  11.228   6.534 -0.3766 -0.2197  0.2131
  809loPI   C2B12942   7.914  11.257   6.885  0.1847 -0.2173 -0.2640
  809loPI   C3B12943   7.928  11.301   7.246 -0.1829  0.0498 -0.0905
  809loPI   C4B12944   7.969  11.430   7.662 -0.0422  0.2393 -0.0935
  810loPI    C112945  12.511   3.637   5.196  0.2071 -0.0810  0.0609
  810loPI    C212946  12.881   3.780   5.150  0.1737  0.0177  0.0966
  810loPI    C312947  12.822   3.386   5.182  0.2831  0.0063  0.1641
  810loPI   PO412948  12.486   3.773   5.482 -0.0040 -0.0458 -0.5929
  810loPI   GL112949  12.515   3.709   5.908  0.1958 -0.1351  0.2651
  810loPI   GL212950  12.733   3.959   5.894  0.2517  0.1546  0.0429
  810loPI   C1A12951  12.311   3.704   6.325 -0.2783 -0.2178  0.2106
  810loPI   C2A12952  12.287   3.791   6.755 -0.0775  0.1563 -0.0660
  810loPI   C3A12953  12.352   3.816   7.194  0.1192  0.2825 -0.0677
  810loPI   C4A12954  12.289   3.855   7.571 -0.0046 -0.1025 -0.0950
  810loPI   C5A12955  12.494   4.075   7.973  0.0995 -0.0373 -0.4371
  810loPI   C6A12956  12.802   4.412   7.908 -0.2872  0.4090  0.0097
  810loPI   C1B12957  12.713   4.036   6.322 -0.0842  0.1702 -0.0402
  810loPI   C2B12958  12.782   4.036   6.699 -0.1479 -0.1731  0.0272
  810loPI   C3B12959  12.817   4.124   7.127  0.2479  0.0549  0.2596
  810loPI   C4B12960  12.775   4.068   7.508  0.0138 -0.2539 -0.0857
  811loPI    C112961  12.309   7.603   5.441 -0.2411  0.0330  0.0701
  811loPI    C212962  12.082   7.367   5.212 -0.0368 -0.1339  0.0363
  811loPI    C312963  11.946   7.725   5.327 -0.3239 -0.2401  0.0346
  811loPI   PO412964  12.350   7.494   5.650  0.0436  0.2110 -0.1580
  811loPI   GL112965  12.396   7.659   5.967 -0.2359 -0.3152 -0.1010
  811loPI   GL212966  12.701   7.598   6.097 -0.0081  0.2961  0.1706
  811loPI   C1A12967  12.186   7.646   6.390 -0.0088 -0.0721  0.0821
  811loPI   C2A12968  12.074   7.874   6.858  0.2466  0.0909  0.1154
  811loPI   C3A12969  12.098   7.823   7.298  0.1628  0.1037 -0.0037
  811loPI   C4A12970  12.183   7.905   7.603 -0.0424  0.1485 -0.0415
  811loPI   C5A12971  12.151   7.708   7.967 -0.0310 -0.2181 -0.1518
  811loPI   C6A12972  12.092   7.352   8.227 -0.1678 -0.2880 -0.0084
  811loPI   C1B12973  12.645   7.415   6.496 -0.3397 -0.0917 -0.0288
  811loPI   C2B12974  12.568   7.596   6.842  0.2649  0.0802  0.2168
  811loPI   C3B12975  12.569   7.636   7.328 -0.1113 -0.2149 -0.2603
  811loPI   C4B12976  12.649   7.648   7.750 -0.0729  0.0437  0.1203
  812loPI    C112977   8.195  15.047   5.448  0.1564 -0.1111 -0.0164
  812loPI    C212978   7.880  15.116   5.684  0.0849 -0.1095 -0.1115
  812loPI    C312979   7.824  14.994   5.307  0.1898  0.1726 -0.2207
  812loPI   PO412980   8.295  15.274   5.466  0.2646 -0.1961  0.3874
  812loPI   GL112981   8.566  15.379   5.767 -0.3627  0.0435  0.1559
  812loPI   GL212982   8.980  15.372   5.889 -0.0860 -0.0205  0.4266
  812loPI   C1A12983   8.649  15.323   6.215 -0.3039  0.2961 -0.1649
  812loPI   C2A12984   8.573  15.278   6.678 -0.0804  0.1648 -0.4421
  812loPI   C3A12985   8.642  15.426   7.071  0.0210  0.0108  0.1625
  812loPI   C4A12986   8.741  15.521   7.471 -0.1736  0.1993  0.0651
  812loPI   C5A12987   8.649  15.510   7.892  0.1322  0.0887 -0.1087
  812loPI   C6A12988   8.574  15.901   8.072  0.0095 -0.3861  0.1903
  812loPI   C1B12989   9.032  15.614   6.283 -0.1014  0.0627  0.0070
  812loPI   C2B12990   9.043  15.597   6.744 -0.2304  0.0443  0.0825
  812loPI   C3B12991   9.060  15.714   7.125  0.0042 -0.1493 -0.0520
  812loPI   C4B12992   9.083  15.916   7.515 -0.0732  0.0812 -0.2261
  813loPI    C112993  15.050  16.544   5.299  0.1678 -0.1817  0.0662
  813loPI    C212994  14.737  16.379   5.112  0.1456 -0.0216 -0.0393
  813loPI    C312995  15.044  16.523   4.900  0.2055 -0.0076  0.0558
  813loPI   PO412996  14.983  16.537   5.550 -0.1492  0.3274  0.3400
  813loPI   GL112997  14.713  16.383   5.839 -0.1390 -0.2397 -0.1360
  813loPI   GL212998  15.041  16.296   6.027  0.0863 -0.1900 -0.0003
  813loPI   C1A12999  14.550  16.454   6.197 -0.0934  0.0084 -0.4400
  813loPI   C2A13000  14.478  16.597   6.593  0.1976  0.1634 -0.0903
  813loPI   C3A13001  14.397  16.499   6.992 -0.3027  0.1742 -0.1510
  813loPI   C4A13002  14.419  16.569   7.420 -0.2642 -0.0865 -0.0559
  813loPI   C5A13003  14.404  16.504   7.868 -0.1620  0.6825 -0.1823
  813loPI   C6A13004  14.308  16.655   8.350  0.1486  0.0111  0.2621
  813loPI   C1B13005  14.931  16.299   6.488 -0.0964  0.1550  0.0028
  813loPI   C2B13006  14.818  16.285   6.831  0.2350 -0.3638 -0.0121
  813loPI   C3B13007  14.899  16.384   7.208  0.1909 -0.0897 -0.1110
  813loPI   C4B13008  14.800  16.241   7.560 -0.2759  0.6260  0.2378
  814loPI    C113009   3.358   9.539   5.796 -0.1321 -0.0959 -0.1791
  814loPI    C213010   3.506   9.214   5.615  0.1613 -0.0090 -0.1001
  814loPI    C313011   3.549   9.574   5.446  0.0518  0.0190 -0.0689
  814loPI   PO413012   3.257   9.462   6.101 -0.2881  0.2350 -0.0373
  814loPI   GL113013   3.332   9.662   6.476 -0.2062  0.1475  0.2957
  814loPI   GL213014   3.188   9.984   6.566  0.0998  0.1570 -0.0753
  814loPI   C1A13015   3.202   9.566   6.812 -0.0564 -0.0164  0.0339
  814loPI   C2A13016   3.002   9.726   7.192 -0.2018  0.2028  0.2825
  814loPI   C3A13017   3.021   9.745   7.566 -0.0728  0.0531 -0.1984
  814loPI   C4A13018   3.099   9.672   7.957  0.0142 -0.0809  0.0834
  814loPI   C5A13019   2.814   9.505   8.316  0.0469 -0.1332  0.2141
  814loPI   C6A13020   2.734   9.703   8.626 -0.0591 -0.2581 -0.2878
  814loPI   C1B13021   3.282  10.144   6.919  0.0803  0.0720  0.0225
  814loPI   C2B13022   3.709  10.210   7.002 -0.2918 -0.1891 -0.0350
  814loPI   C3B13023   4.160  10.297   6.959 -0.0508  0.0902 -0.3467
  814loPI   C4B13024   4.420  10.126   7.288 -0.1351  0.1991  0.2427
  815loPI    C113025  13.839  10.792   5.306  0.0144  0.0888 -0.0052
  815loPI    C213026  13.716  11.164   5.224  0.0994  0.0415 -0.3634
  815loPI    C313027  14.083  11.046   5.116  0.1411 -0.0911 -0.0860
  815loPI   PO413028  13.905  10.750   5.628  0.1501 -0.0192 -0.0020
  815loPI   GL113029  13.797  10.890   6.029 -0.0424 -0.1183 -0.0693
  815loPI   GL213030  13.573  10.649   6.038 -0.0869  0.5455 -0.2801
  815loPI   C1A13031  13.849  10.870   6.479  0.1587 -0.1853  0.2370
  815loPI   C2A13032  13.928  10.883   6.890  0.1043  0.0284 -0.1223
  815loPI   C3A13033  13.931  10.944   7.314  0.0134  0.0271 -0.0682
  815loPI   C4A13034  13.832  11.045   7.642 -0.2282  0.2144 -0.4753
  815loPI   C5A13035  13.978  10.911   8.002 -0.0944  0.0754  0.3255
  815loPI   C6A13036  14.016  10.548   8.244  0.0063 -0.1141 -0.1548
  815loPI   C1B13037  13.512  10.473   6.542  0.0021  0.0693  0.0038
  815loPI   C2B13038  13.538  10.547   6.971  0.0742  0.0816 -0.2651
  815loPI   C3B13039  13.502  10.618   7.445  0.1333 -0.1245  0.0467
  815loPI   C4B13040  13.496  10.757   7.839  0.0163  0.1590 -0.1231
  816loPI    C113041   1.129   0.423   5.148 -0.4267 -0.2226 -0.2408
  816loPI    C213042   0.969   0.625   4.842 -0.0997  0.3211 -0.0679
  816loPI    C313043   1.355   0.675   4.935 -0.1255 -0.0463  0.2679
  816loPI   PO413044   0.949   0.416   5.384 -0.0392 -0.1976 -0.1433
  816loPI   GL113045   0.849   0.373   5.748 -0.1394  0.0698 -0.0281
  816loPI   GL213046   0.953   0.675   5.830 -0.1866 -0.2712  0.0419
  816loPI   C1A13047   0.645   0.196   6.108  0.3132 -0.0643 -0.2122
  816loPI   C2A13048   0.606   0.200   6.497  0.0660  0.4308 -0.1113
  816loPI   C3A13049   0.611   0.263   6.948  0.1054  0.2837  0.1256
  816loPI   C4A13050   0.706   0.252   7.300 -0.0392  0.0032  0.1327
  816loPI   C5A13051   0.695   0.186   7.796 -0.0055  0.1446 -0.0522
  816loPI   C6A13052   0.543   0.136   8.200  0.2166  0.0847 -0.0820
  816loPI   C1B13053   0.997   0.614   6.216 -0.3039  0.0525 -0.2517
  816loPI   C2B13054   0.958   0.550   6.676  0.1720  0.4548  0.1015
  816loPI   C3B13055   1.061   0.558   7.130 -0.0281 -0.0836 -0.0385
  816loPI   C4B13056   1.042   0.556   7.603 -0.1187 -0.1347 -0.2286
  817loPI    C113057  14.898   3.106   5.112 -0.0535 -0.0602  0.0788
  817loPI    C213058  14.996   2.745   4.970 -0.0910 -0.0958  0.1428
  817loPI    C313059  14.715   2.963   4.787  0.0755 -0.0116 -0.0160
  817loPI   PO413060  14.853   2.956   5.457 -0.0718  0.2847 -0.0688
  817loPI   GL113061  14.937   3.140   5.831  0.0420  0.0042 -0.2047
  817loPI   GL213062  14.877   3.527   5.996  0.0967 -0.0770  0.1001
  817loPI   C1A13063  15.063   3.102   6.272 -0.1223  0.1325 -0.2733
  817loPI   C2A13064  15.123   3.174   6.741  0.1984 -0.1170 -0.4645
  817loPI   C3A13065  15.173   3.188   7.165 -0.1158  0.0896 -0.2736
  817loPI   C4A13066  15.155   3.117   7.622 -0.0241 -0.1220  0.0220
  817loPI   C5A13067  14.950   2.922   7.938  0.0661  0.1044 -0.2323
  817loPI   C6A13068  14.589   2.758   8.118  0.0967  0.2105  0.0264
  817loPI   C1B13069  14.992   3.629   6.365 -0.1496 -0.0748 -0.0689
  817loPI   C2B13070  14.973   3.728   6.870  0.0936  0.1045 -0.0012
  817loPI   C3B13071  15.071   3.673   7.276  0.0815 -0.1052 -0.1598
  817loPI   C4B13072  15.195   3.590   7.710 -0.0645  0.1517  0.0853
  818loPI    C113073  15.717   8.759   5.428  0.0703  0.0005 -0.0398
  818loPI    C213074  15.935   8.981   5.177  0.1903 -0.0721 -0.0006
  818loPI    C313075  15.782   8.632   5.055  0.0944 -0.0207 -0.0284
  818loPI   PO413076  15.678   8.838   5.589  0.0482 -0.1606 -0.1560
  818loPI   GL113077  15.499   8.867   5.900 -0.0028  0.0379  0.3077
  818loPI   GL213078  15.552   8.709   6.081 -0.0652 -0.5301 -0.1449
  818loPI   C1A13079  15.459   9.176   6.180  0.1353  0.0772 -0.0642
  818loPI   C2A13080  15.445   9.286   6.607 -0.4378  0.1354 -0.0801
  818loPI   C3A13081  15.560   9.297   7.079  0.2195 -0.0957  0.1019
  818loPI   C4A13082  15.531   9.316   7.573  0.0228 -0.1653 -0.1763
  818loPI   C5A13083  15.395   9.127   7.963  0.2359 -0.0662  0.0806
  818loPI   C6A13084  15.018   8.926   8.066  0.0215  0.0321  0.0910
  818loPI   C1B13085  15.508   8.646   6.412  0.0644 -0.1174 -0.1541
  818loPI   C2B13086  15.577   8.735   6.714  0.0028  0.2730 -0.2119
  818loPI   C3B13087  15.699   8.792   7.107 -0.0366  0.1417  0.2789
  818loPI   C4B13088  15.591   8.703   7.524  0.2138 -0.0594 -0.2212
  819loPI    C113089   2.114   1.675   5.357 -0.3611 -0.1915 -0.0937
  819loPI    C213090   2.059   2.021   5.165 -0.3453 -0.1790 -0.0757
  819loPI    C313091   2.351   1.773   5.051 -0.1392 -0.0324  0.1255
  819loPI   PO413092   2.139   1.699   5.604  0.2141  0.1291 -0.1124
  819loPI   GL113093   2.106   1.750   6.023  0.1530 -0.0559  0.3140
  819loPI   GL213094   2.271   1.527   6.125 -0.0898 -0.0324  0.1436
  819loPI   C1A13095   1.767   1.692   6.374 -0.3494 -0.1573 -0.1320
  819loPI   C2A13096   1.720   1.783   6.721  0.1414  0.4270 -0.2231
  819loPI   C3A13097   1.755   1.747   7.026  0.0374 -0.0337 -0.0659
  819loPI   C4A13098   1.755   1.692   7.387 -0.0995 -0.0330  0.3680
  819loPI   C5A13099   1.892   1.560   7.783 -0.2914 -0.1359 -0.3256
  819loPI   C6A13100   2.105   1.372   8.127  0.1439 -0.1977 -0.0007
  819loPI   C1B13101   2.238   1.635   6.551 -0.1231  0.0083 -0.0055
  819loPI   C2B13102   2.201   1.512   7.049  0.1338 -0.1294 -0.2141
  819loPI   C3B13103   2.303   1.530   7.466  0.0090 -0.3060 -0.1087
  819loPI   C4B13104   2.416   1.514   7.820  0.0175  0.0151  0.2820
  820loPI    C113105   8.213   8.106   5.298  0.1904 -0.1278  0.1376
  820loPI    C213106   8.125   8.359   5.000 -0.1480 -0.0689  0.2832
  820loPI    C313107   8.438   8.112   4.967 -0.0988  0.0347 -0.0607
  820loPI   PO413108   7.994   7.973   5.394 -0.3457  0.0401  0.1814
  820loPI   GL113109   7.972   7.932   5.840 -0.0506 -0.2124  0.2633
  820loPI   GL213110   7.968   7.588   5.762 -0.0642  0.0188  0.2650
  820loPI   C1A13111   8.002   7.807   6.208  0.2402  0.2806 -0.0674
  820loPI   C2A13112   8.068   7.810   6.653  0.0701  0.0294  0.1118
  820loPI   C3A13113   8.074   7.856   7.070  0.2963 -0.1082  0.0651
  820loPI   C4A13114   8.092   7.879   7.555  0.0720  0.1533  0.2109
  820loPI   C5A13115   8.179   7.975   7.994  0.1859  0.0277 -0.0510
  820loPI   C6A13116   8.477   7.860   8.206 -0.0970  0.0318 -0.0985
  820loPI   C1B13117   8.011   7.300   6.032  0.1394  0.0192 -0.1133
  820loPI   C2B13118   8.178   7.323   6.427  0.0276 -0.0072  0.0840
  820loPI   C3B13119   8.166   7.299   6.883  0.0049 -0.1676 -0.0118
  820loPI   C4B13120   8.119   7.405   7.316  0.2547 -0.1821 -0.2243
  821loPI    C113121   8.480   6.966   5.515 -0.1863 -0.3550 -0.0651
  821loPI    C213122   8.119   7.073   5.648 -0.0871 -0.2851  0.1520
  821loPI    C313123   8.184   7.036   5.255 -0.2683 -0.0735  0.0998
  821loPI   PO413124   8.576   6.818   5.581 -0.3185  0.2981 -0.1096
  821loPI   GL113125   8.690   6.627   5.984 -0.2712 -0.0225 -0.4218
  821loPI   GL213126   8.944   6.830   6.036 -0.0118 -0.0225  0.0091
  821loPI   C1A13127   8.618   6.611   6.373  0.0719  0.2788  0.1911
  821loPI   C2A13128   8.719   6.592   6.777 -0.4024 -0.1072  0.0416
  821loPI   C3A13129   8.792   6.647   7.176 -0.2911  0.3380 -0.0636
  821loPI   C4A13130   8.757   6.798   7.612 -0.5187 -0.2639 -0.0119
  821loPI   C5A13131   8.724   6.602   7.997 -0.1759  0.1653 -0.0639
  821loPI   C6A13132   8.437   6.272   8.161 -0.1054 -0.5598 -0.1085
  821loPI   C1B13133   9.082   6.816   6.480  0.0696  0.1669  0.4462
  821loPI   C2B13134   9.092   6.945   6.899 -0.1619  0.0967  0.1308
  821loPI   C3B13135   9.110   7.124   7.340  0.0142  0.3691 -0.1113
  821loPI   C4B13136   9.201   7.249   7.796  0.0011  0.2345  0.0499
  822loPI    C113137   5.600  14.665   5.631 -0.1181 -0.0153 -0.0349
  822loPI    C213138   5.206  14.717   5.586 -0.1564 -0.2277  0.0422
  822loPI    C313139   5.439  14.665   5.265 -0.1695  0.0388 -0.0124
  822loPI   PO413140   5.622  14.911   5.839 -0.2611 -0.3747 -0.1678
  822loPI   GL113141   5.759  15.075   6.166  0.0861  0.0028 -0.0833
  822loPI   GL213142   5.584  15.184   6.383  0.2503  0.1256  0.2240
  822loPI   C1A13143   6.005  15.037   6.557 -0.1536 -0.2864  0.0964
  822loPI   C2A13144   6.081  15.055   7.042 -0.3385  0.2265  0.1185
  822loPI   C3A13145   5.994  15.025   7.465 -0.2375  0.1399 -0.0900
  822loPI   C4A13146   5.916  15.017   7.874 -0.0315  0.0912 -0.2834
  822loPI   C5A13147   5.707  15.147   8.238 -0.3158 -0.1969 -0.2496
  822loPI   C6A13148   5.755  15.477   8.543  0.0606 -0.0880  0.0964
  822loPI   C1B13149   5.501  15.152   6.837 -0.2420  0.1163 -0.0299
  822loPI   C2B13150   5.515  15.215   7.290 -0.2140 -0.0624 -0.1304
  822loPI   C3B13151   5.453  15.308   7.743  0.1969  0.2104 -0.0777
  822loPI   C4B13152   5.359  15.502   8.118  0.3361 -0.0718 -0.0874
  823loPI    C113153  13.458  15.784   5.156 -0.1945  0.2568 -0.1402
  823loPI    C213154  13.311  15.692   4.795 -0.1075 -0.0237 -0.1071
  823loPI    C313155  13.707  15.706   4.853 -0.1196 -0.1981  0.0288
  823loPI   PO413156  13.248  15.766   5.309  0.0901 -0.1961 -0.0526
  823loPI   GL113157  13.165  15.791   5.701  0.1777 -0.0428  0.0118
  823loPI   GL213158  13.260  16.015   5.961 -0.3927 -0.5512 -0.0981
  823loPI   C1A13159  12.863  15.625   6.047  0.2532 -0.0727 -0.1434
  823loPI   C2A13160  12.657  15.795   6.464  0.1384  0.3550  0.0611
  823loPI   C3A13161  12.654  15.759   6.918  0.2057 -0.0908 -0.1307
  823loPI   C4A13162  12.621  15.720   7.359 -0.0610 -0.0138  0.0447
  823loPI   C5A13163  12.730  15.796   7.781 -0.1386  0.0870 -0.1463
  823loPI   C6A13164  13.004  15.666   8.133  0.0164 -0.0181  0.1485
  823loPI   C1B13165  13.117  15.981   6.381 -0.2019 -0.1154  0.2229
  823loPI   C2B13166  13.100  16.086   6.821 -0.1072  0.2897 -0.1702
  823loPI   C3B13167  13.096  16.110   7.205 -0.0726 -0.0527 -0.2225
  823loPI   C4B13168  13.100  16.078   7.542 -0.2530 -0.2066  0.2906
  824loPI    C113169   6.636  13.542   5.473 -0.1002 -0.1190  0.1016
  824loPI    C213170   6.550  13.173   5.343 -0.0032 -0.0841 -0.0646
  824loPI    C313171   6.614  13.468   5.080 -0.3769  0.1222  0.0690
  824loPI   PO413172   6.753  13.461   5.701 -0.1971 -0.1303  0.1648
  824loPI   GL113173   6.832  13.370   6.092  0.2387  0.1064  0.0252
  824loPI   GL213174   7.002  13.036   6.031  0.1275  0.1647 -0.1236
  824loPI   C1A13175   7.047  13.445   6.479  0.0317  0.1220  0.0215
  824loPI   C2A13176   7.177  13.529   6.958  0.0913 -0.0917 -0.0344
  824loPI   C3A13177   7.113  13.572   7.412 -0.1326 -0.0518  0.3354
  824loPI   C4A13178   7.210  13.702   7.744  0.0186  0.2028  0.4506
  824loPI   C5A13179   7.175  13.723   8.169  0.2101  0.1022  0.0651
  824loPI   C6A13180   7.430  13.884   8.476  0.2111  0.0613 -0.0909
  824loPI   C1B13181   7.165  12.973   6.485  0.0711  0.3338  0.2516
  824loPI   C2B13182   7.230  13.006   6.853 -0.1695 -0.0713 -0.3637
  824loPI   C3B13183   7.204  13.007   7.283 -0.0362 -0.3156 -0.1159
  824loPI   C4B13184   7.250  13.121   7.669  0.1044 -0.3210  0.1490
  825loPI    C113185   8.655   1.858   5.135  0.0556 -0.1367 -0.0727
  825loPI    C213186   8.380   1.985   4.874 -0.0741 -0.1834  0.0398
  825loPI    C313187   8.766   2.072   4.816 -0.1145 -0.0982 -0.1073
  825loPI   PO413188   8.555   1.939   5.391  0.1551 -0.0231 -0.0288
  825loPI   GL113189   8.540   1.944   5.799  0.1964 -0.1138 -0.1589
  825loPI   GL213190   8.588   1.670   5.916 -0.0378 -0.0744  0.1984
  825loPI   C1A13191   8.406   1.991   6.232  0.2864  0.3057  0.2868
  825loPI   C2A13192   8.478   1.862   6.602 -0.1351  0.0865  0.0054
  825loPI   C3A13193   8.616   1.950   7.009 -0.4108 -0.2057  0.0017
  825loPI   C4A13194   8.539   1.915   7.420  0.0352 -0.0607  0.1713
  825loPI   C5A13195   8.757   1.741   7.797  0.0790 -0.0051 -0.0186
  825loPI   C6A13196   9.180   1.771   8.042  0.1949 -0.3508  0.0202
  825loPI   C1B13197   8.505   1.364   6.228 -0.1351 -0.0347 -0.1052
  825loPI   C2B13198   8.572   1.378   6.570  0.0896  0.1836  0.2398
  825loPI   C3B13199   8.636   1.477   7.062 -0.2598 -0.0154 -0.1303
  825loPI   C4B13200   8.657   1.387   7.448  0.0686 -0.1759  0.3955
  826loPI    C113201   6.727   7.004   5.171 -0.0056 -0.0789  0.0228
  826loPI    C213202   6.949   7.086   4.849 -0.0441  0.0456  0.0276
  826loPI    C313203   6.564   7.193   4.859 -0.0364  0.0659  0.1253
  826loPI   PO413204   6.902   6.991   5.371 -0.3467  0.1472 -0.0038
  826loPI   GL113205   6.889   6.966   5.861  0.2691  0.2433 -0.2708
  826loPI   GL213206   6.643   7.124   5.961  0.0869  0.2721  0.3136
  826loPI   C1A13207   6.954   6.928   6.263  0.0914 -0.1275  0.1240
  826loPI   C2A13208   6.914   6.897   6.646 -0.1834 -0.2196 -0.3666
  826loPI   C3A13209   6.913   6.871   7.036 -0.1338 -0.1031  0.3020
  826loPI   C4A13210   6.921   6.839   7.446  0.2779 -0.1370 -0.1040
  826loPI   C5A13211   6.916   6.919   7.872  0.3139  0.3222  0.1090
  826loPI   C6A13212   6.646   6.699   8.159  0.1058  0.0709  0.1032
  826loPI   C1B13213   6.508   7.140   6.390  0.0767 -0.0581 -0.0587
  826loPI   C2B13214   6.461   7.131   6.908 -0.0808  0.1294  0.1348
  826loPI   C3B13215   6.471   6.993   7.314  0.1530 -0.2109  0.0639
  826loPI   C4B13216   6.346   7.063   7.851  0.0177 -0.1217  0.0414
  827loPI    C113217   0.258  15.534   5.743 -0.0499  0.3893  0.1186
  827loPI    C213218   0.020  15.376   5.463  0.0165  0.2789  0.1240
  827loPI    C313219   0.083  15.771   5.472  0.2790  0.2490 -0.2246
  827loPI   PO413220   0.192  15.477   5.971  0.4076  0.1966  0.0730
  827loPI   GL113221  -0.156  15.470   6.302  0.1639  0.0646  0.1809
  827loPI   GL213222   0.213  15.400   6.448  0.2159 -0.2821  0.1752
  827loPI   C1A13223  -0.397  15.678   6.653 -0.0396 -0.1265 -0.2679
  827loPI   C2A13224  -0.397  15.762   6.962  0.2629  0.2099 -0.2009
  827loPI   C3A13225  -0.421  15.789   7.429 -0.1006 -0.0288 -0.4297
  827loPI   C4A13226  -0.298  15.851   7.878 -0.0300  0.0038 -0.3191
  827loPI   C5A13227  -0.345  16.101   8.299 -0.0274  0.0954  0.0309
  827loPI   C6A13228  -0.399  16.280   8.720  0.3992 -0.1262 -0.0986
  827loPI   C1B13229   0.117  15.503   6.810  0.0163 -0.2192  0.2328
  827loPI   C2B13230   0.065  15.605   7.215  0.4095  0.1247  0.3496
  827loPI   C3B13231   0.104  15.568   7.624  0.0098 -0.2261 -0.0028
  827loPI   C4B13232   0.161  15.641   8.113  0.4429  0.1704  0.0421
  828loPI    C113233  12.220  17.532   5.317  0.0563 -0.1547  0.0242
  828loPI    C213234  12.180  17.909   5.446 -0.0006 -0.1754  0.0669
  828loPI    C313235  12.134  17.824   5.057  0.0927 -0.1256  0.0449
  828loPI   PO413236  12.142  17.431   5.470  0.2115  0.1585 -0.1515
  828loPI   GL113237  12.123  17.652   5.862 -0.0316  0.0975  0.2054
  828loPI   GL213238  11.890  17.391   5.912  0.2177  0.0657  0.2935
  828loPI   C1A13239  12.398  17.696   6.217 -0.2078 -0.1274  0.0463
  828loPI   C2A13240  12.405  17.758   6.677  0.1611 -0.0800 -0.0812
  828loPI   C3A13241  12.488  17.863   7.057  0.6268 -0.0237  0.2600
  828loPI   C4A13242  12.420  17.942   7.542 -0.0569  0.2240 -0.2069
  828loPI   C5A13243  12.472  17.909   7.926  0.1189 -0.1760 -0.2316
  828loPI   C6A13244  12.697  18.152   8.315 -0.4064 -0.3176 -0.0752
  828loPI   C1B13245  11.952  17.483   6.410  0.2857  0.0072  0.4547
  828loPI   C2B13246  12.033  17.435   6.791 -0.0424 -0.2710  0.4615
  828loPI   C3B13247  12.023  17.529   7.248 -0.2463 -0.2324 -0.0162
  828loPI   C4B13248  12.040  17.696   7.683  0.2158  0.0112 -0.1185
  829loPI    C113249  10.563   1.050   5.252  0.0757 -0.1723  0.2227
  829loPI    C213250  10.255   0.964   5.012  0.0127 -0.1682  0.3015
  829loPI    C313251  10.607   0.781   4.960  0.0921  0.0598  0.0071
  829loPI   PO413252  10.487   1.032   5.519 -0.0101 -0.3483 -0.0827
  829loPI   GL113253  10.269   1.227   5.848  0.0929 -0.0667 -0.2714
  829loPI   GL213254  10.260   1.494   5.984  0.0319  0.3084  0.0563
  829loPI   C1A13255  10.340   1.044   6.231  0.0720 -0.1576  0.2276
  829loPI   C2A13256  10.466   1.157   6.581  0.3741  0.2064 -0.0836
  829loPI   C3A13257  10.549   1.189   7.030 -0.1038  0.2870  0.0327
  829loPI   C4A13258  10.570   1.190   7.411 -0.0164  0.1855  0.2549
  829loPI   C5A13259  10.559   1.100   7.819  0.1699  0.1614  0.1645
  829loPI   C6A13260  10.656   1.189   8.290 -0.0036 -0.0773  0.1148
  829loPI   C1B13261  10.335   1.582   6.368  0.0282 -0.2902 -0.3188
  829loPI   C2B13262  10.411   1.632   6.774 -0.3032 -0.0714 -0.1944
  829loPI   C3B13263  10.456   1.715   7.196 -0.0368 -0.2384  0.1461
  829loPI   C4B13264  10.423   1.713   7.633  0.0656  0.1078 -0.2159
  830loPI    C113265  11.601  10.937   5.156 -0.0549 -0.2254 -0.2482
  830loPI    C213266  11.995  10.955   5.222 -0.1078  0.1222  0.0048
  830loPI    C313267  11.849  11.038   4.859  0.0343  0.2354 -0.0277
  830loPI   PO413268  11.560  10.675   5.368  0.0109 -0.1099  0.1880
  830loPI   GL113269  11.556  10.800   5.769 -0.0397 -0.0828  0.2741
  830loPI   GL213270  11.678  10.899   6.042 -0.1941  0.3989 -0.1002
  830loPI   C1A13271  11.309  10.582   6.144 -0.3579  0.1168  0.2651
  830loPI   C2A13272  11.305  10.579   6.614 -0.2365  0.5016  0.1095
  830loPI   C3A13273  11.258  10.593   7.053 -0.3341  0.0500  0.0062
  830loPI   C4A13274  11.211  10.659   7.549 -0.1525 -0.2376  0.3093
  830loPI   C5A13275  11.146  10.611   7.917 -0.1446  0.1375 -0.1828
  830loPI   C6A13276  11.397  10.805   8.265 -0.0311  0.1708 -0.0395
  830loPI   C1B13277  11.690  10.890   6.503 -0.3261  0.2768  0.0379
  830loPI   C2B13278  11.682  10.899   6.917 -0.1960  0.0429  0.0488
  830loPI   C3B13279  11.644  10.891   7.389 -0.0435  0.2175  0.0043
  830loPI   C4B13280  11.614  10.896   7.809  0.1817 -0.0371 -0.0469
  831loPI    C113281   0.673  14.724   5.615  0.0264 -0.0921 -0.2244
  831loPI    C213282   0.382  14.989   5.547  0.0298 -0.0831 -0.2041
  831loPI    C313283   0.664  14.927   5.271  0.1257  0.0589 -0.1390
  831loPI   PO413284   0.792  14.769   5.828  0.0287  0.2504 -0.0442
  831loPI   GL113285   0.870  14.982   6.174  0.2794 -0.3134  0.1356
  831loPI   GL213286   1.159  15.082   6.227 -0.0271 -0.0732 -0.0574
  831loPI   C1A13287   0.688  15.272   6.466  0.0123 -0.1230 -0.1117
  831loPI   C2A13288   0.583  15.295   6.881 -0.1379  0.3643  0.4141
  831loPI   C3A13289   0.608  15.383   7.348 -0.1176 -0.0451 -0.0118
  831loPI   C4A13290   0.590  15.379   7.760  0.0155  0.0287 -0.1425
  831loPI   C5A13291   0.500  15.214   8.182  0.0301  0.3076 -0.2384
  831loPI   C6A13292   0.488  14.799   8.492 -0.1064  0.0253 -0.0352
  831loPI   C1B13293   1.121  15.119   6.629  0.1745  0.1631 -0.1918
  831loPI   C2B13294   1.077  15.220   7.119 -0.0529 -0.1042  0.2301
  831loPI   C3B13295   1.010  15.217   7.522  0.0261 -0.3695  0.1832
  831loPI   C4B13296   0.989  15.192   7.928 -0.0388  0.3119 -0.4142
  832loPI    C113297   4.208  14.905   5.812 -0.1363  0.0978 -0.0783
  832loPI    C213298   4.182  14.649   5.505 -0.0162  0.0034 -0.0104
  832loPI    C313299   4.535  14.812   5.601 -0.0866  0.1717 -0.0343
  832loPI   PO413300   4.115  14.745   6.062  0.1900 -0.0615 -0.0975
  832loPI   GL113301   4.211  14.794   6.478 -0.2369  0.0380  0.1210
  832loPI   GL213302   3.867  15.015   6.386  0.0180 -0.1303  0.0540
  832loPI   C1A13303   4.282  14.824   6.939 -0.1967 -0.0622 -0.2245
  832loPI   C2A13304   4.209  14.670   7.166  0.1710 -0.1220 -0.3262
  832loPI   C3A13305   4.222  14.778   7.567  0.2264 -0.0913  0.1668
  832loPI   C4A13306   4.105  14.879   8.005  0.0753  0.0575 -0.0232
  832loPI   C5A13307   3.892  14.585   8.227 -0.0269 -0.1127 -0.0590
  832loPI   C6A13308   3.520  14.602   8.495 -0.2728 -0.1552  0.1828
  832loPI   C1B13309   4.089  15.268   6.706  0.0331  0.0138 -0.2848
  832loPI   C2B13310   4.237  15.327   7.136 -0.1775  0.0203  0.1546
  832loPI   C3B13311   4.217  15.400   7.581 -0.1199  0.0747  0.2833
  832loPI   C4B13312   4.250  15.418   7.941 -0.0204  0.0785  0.0456
  833loPI    C113313  16.971  16.087   5.877  0.0056  0.1517 -0.1721
  833loPI    C213314  17.137  16.297   5.580  0.3176  0.0361 -0.0834
  833loPI    C313315  17.343  16.229   5.916 -0.0464  0.2004  0.1798
  833loPI   PO413316  16.646  16.191   5.869  0.3929 -0.0583 -0.0257
  833loPI   GL113317  16.624  16.387   6.217 -0.3252 -0.0960  0.1737
  833loPI   GL213318  16.645  15.984   6.311  0.0596  0.0966  0.1778
  833loPI   C1A13319  16.653  16.573   6.644 -0.0879 -0.1911 -0.0265
  833loPI   C2A13320  16.578  16.616   7.061 -0.1021 -0.0768  0.1901
  833loPI   C3A13321  16.611  16.651   7.535  0.1821 -0.1775 -0.2570
  833loPI   C4A13322  16.580  16.716   7.925 -0.2119  0.3714 -0.0371
  833loPI   C5A13323  16.390  16.906   8.280 -0.3565 -0.0168 -0.2313
  833loPI   C6A13324  16.455  17.216   8.569 -0.0051  0.3650 -0.1542
  833loPI   C1B13325  16.651  16.106   6.701  0.0814 -0.0094  0.1116
  833loPI   C2B13326  16.646  16.121   7.140 -0.0272  0.1435  0.4579
  833loPI   C3B13327  16.674  16.185   7.650  0.0631  0.1568 -0.3566
  833loPI   C4B13328  16.649  16.256   8.044 -0.2419 -0.2113 -0.2644
  834loPI    C113329   7.110  13.809   5.451  0.2565  0.0344 -0.0938
  834loPI    C213330   7.364  13.697   5.163 -0.0692 -0.1967 -0.2980
  834loPI    C313331   7.070  13.451   5.277 -0.1710  0.0451 -0.0267
  834loPI   PO413332   7.276  13.918   5.634  0.3375  0.0697 -0.0046
  834loPI   GL113333   7.289  13.804   6.015 -0.2014  0.0702  0.0819
  834loPI   GL213334   7.000  13.876   6.099  0.0192 -0.0677  0.0490
  834loPI   C1A13335   7.389  13.790   6.446  0.1499  0.0623 -0.4423
  834loPI   C2A13336   7.543  13.822   6.820  0.0118  0.3683 -0.3095
  834loPI   C3A13337   7.484  13.814   7.194  0.0199  0.3249  0.0725
  834loPI   C4A13338   7.591  13.971   7.603 -0.1187  0.1789  0.4129
  834loPI   C5A13339   7.567  14.043   8.015  0.0090 -0.3901 -0.0727
  834loPI   C6A13340   7.777  14.210   8.438 -0.3055 -0.2200  0.2709
  834loPI   C1B13341   6.990  14.079   6.451 -0.0714  0.0984 -0.1752
  834loPI   C2B13342   7.098  14.165   6.910 -0.2099  0.0370  0.1446
  834loPI   C3B13343   7.093  14.179   7.370  0.1327 -0.1014  0.0565
  834loPI   C4B13344   7.117  14.216   7.846  0.1260  0.0947  0.0400
  835loPI    C113345   8.506  13.213   5.470  0.0087 -0.0333 -0.0021
  835loPI    C213346   8.237  12.960   5.624 -0.0678  0.1623  0.1914
  835loPI    C313347   8.307  12.962   5.230 -0.2665  0.0312  0.1538
  835loPI   PO413348   8.656  13.180   5.786 -0.0272  0.0218 -0.0183
  835loPI   GL113349   8.749  13.363   6.183  0.2822  0.0650  0.0366
  835loPI   GL213350   9.012  13.153   6.290 -0.1773  0.0688 -0.0993
  835loPI   C1A13351   8.551  13.456   6.511  0.1868 -0.1717  0.1428
  835loPI   C2A13352   8.535  13.503   6.990  0.0793  0.0228  0.1058
  835loPI   C3A13353   8.478  13.504   7.479  0.1667  0.1437 -0.0016
  835loPI   C4A13354   8.567  13.636   7.930 -0.0976 -0.1959 -0.1003
  835loPI   C5A13355   8.419  13.589   8.413  0.0073  0.1810 -0.0766
  835loPI   C6A13356   8.244  13.624   8.803 -0.0079  0.2505 -0.3407
  835loPI   C1B13357   8.942  13.271   6.748  0.2593 -0.0247  0.1033
  835loPI   C2B13358   8.925  13.228   7.197  0.2911  0.3664 -0.0047
  835loPI   C3B13359   8.956  13.472   7.623  0.1193 -0.0684 -0.0434
  835loPI   C4B13360   8.995  13.394   8.039  0.1354 -0.0042 -0.0315
  836loPI    C113361  13.790  17.265   5.363  0.2928  0.1673  0.0110
  836loPI    C213362  13.554  17.491   5.132  0.2259  0.0738 -0.0130
  836loPI    C313363  13.690  17.140   4.996  0.4394  0.1602 -0.0275
  836loPI   PO413364  13.904  17.370   5.500  0.2634  0.0570  0.0636
  836loPI   GL113365  13.888  17.305   5.941 -0.2461 -0.0240 -0.1021
  836loPI   GL213366  13.897  17.686   5.889  0.1036 -0.0045 -0.1271
  836loPI   C1A13367  13.855  17.119   6.428 -0.0276  0.0582  0.0237
  836loPI   C2A13368  13.905  17.212   6.914  0.1738 -0.0645  0.0802
  836loPI   C3A13369  13.876  17.256   7.377  0.2011  0.0839  0.0743
  836loPI   C4A13370  13.970  17.236   7.826  0.1549  0.3043 -0.3345
  836loPI   C5A13371  13.850  17.153   8.174 -0.1351 -0.1400 -0.1077
  836loPI   C6A13372  13.941  16.908   8.558 -0.1573  0.2479 -0.3490
  836loPI   C1B13373  13.778  17.637   6.259  0.0505 -0.1580  0.0873
  836loPI   C2B13374  13.762  17.676   6.700 -0.0641 -0.0909 -0.1946
  836loPI   C3B13375  13.766  17.691   7.131 -0.2248 -0.1607  0.3977
  836loPI   C4B13376  13.754  17.740   7.568 -0.2017 -0.1683 -0.0333
  837loPI    C113377   0.278   1.169   5.304  0.0737 -0.0034 -0.0975
  837loPI    C213378  -0.058   1.243   5.099 -0.0513 -0.1306  0.0586
  837loPI    C313379   0.299   1.293   4.924 -0.1543 -0.1525 -0.1605
  837loPI   PO413380   0.209   1.155   5.571  0.0025 -0.1443 -0.1724
  837loPI   GL113381   0.196   1.375   5.917 -0.1498  0.3178 -0.1577
  837loPI   GL213382   0.032   1.445   6.091 -0.2915  0.3185 -0.1084
  837loPI   C1A13383   0.441   1.275   6.331 -0.0641  0.0403 -0.3737
  837loPI   C2A13384   0.414   1.219   6.782  0.3424 -0.1214 -0.1961
  837loPI   C3A13385   0.477   1.252   7.241 -0.1087  0.2466 -0.1028
  837loPI   C4A13386   0.562   1.282   7.563 -0.1671  0.0655 -0.0845
  837loPI   C5A13387   0.658   1.238   8.030  0.1149 -0.2035 -0.1479
  837loPI   C6A13388   0.729   1.278   8.472 -0.2299  0.0145  0.1866
  837loPI   C1B13389  -0.017   1.382   6.555  0.2080  0.2056  0.0661
  837loPI   C2B13390  -0.000   1.431   7.003 -0.0516  0.0012  0.0096
  837loPI   C3B13391   0.039   1.395   7.446  0.1878  0.1107 -0.1481
  837loPI   C4B13392   0.196   1.335   7.929 -0.0680 -0.1343  0.0642
  838loPI    C113393  13.210   2.967   5.447 -0.1687 -0.0924 -0.0481
  838loPI    C213394  13.136   3.010   5.056 -0.0784  0.0184 -0.0533
  838loPI    C313395  13.475   2.835   5.178 -0.0887  0.0187 -0.0243
  838loPI   PO413396  13.029   3.093   5.582 -0.5234 -0.1396 -0.1379
  838loPI   GL113397  12.908   3.225   5.969  0.2368 -0.0517 -0.1674
  838loPI   GL213398  12.883   2.961   6.082  0.0343  0.1290 -0.3421
  838loPI   C1A13399  12.808   3.524   6.255 -0.3215  0.2604  0.0377
  838loPI   C2A13400  12.830   3.553   6.627  0.0259 -0.0468 -0.4131
  838loPI   C3A13401  12.752   3.592   7.091 -0.2010  0.1857  0.0831
  838loPI   C4A13402  12.796   3.571   7.529 -0.0803 -0.1681  0.2904
  838loPI   C5A13403  12.772   3.692   7.882  0.0021 -0.0044 -0.0741
  838loPI   C6A13404  12.864   3.925   8.242  0.1369  0.1455  0.0609
  838loPI   C1B13405  12.779   3.070   6.528 -0.0137 -0.0208 -0.0595
  838loPI   C2B13406  12.817   3.017   7.048 -0.0340  0.5084  0.0354
  838loPI   C3B13407  12.885   3.081   7.512  0.1673  0.2174 -0.0965
  838loPI   C4B13408  12.827   3.183   7.894 -0.1896 -0.0001  0.0078
  839loPI    C113409   1.333  15.188   5.716  0.0510 -0.0652  0.1280
  839loPI    C213410   1.108  14.989   5.452 -0.0297  0.1106  0.0633
  839loPI    C313411   1.441  15.174   5.331  0.0983 -0.0659  0.1412
  839loPI   PO413412   1.143  15.417   5.810 -0.1273  0.0851  0.0114
  839loPI   GL113413   1.221  15.574   6.115  0.4492 -0.1941 -0.0831
  839loPI   GL213414   1.369  15.901   6.187  0.0564 -0.0957 -0.0489
  839loPI   C1A13415   0.995  15.625   6.497 -0.0059  0.2080  0.2224
  839loPI   C2A13416   0.987  15.629   6.916  0.1274  0.0472  0.0384
  839loPI   C3A13417   1.022  15.696   7.314 -0.0093  0.1072 -0.3157
  839loPI   C4A13418   0.990  15.695   7.703 -0.1257  0.2975 -0.1012
  839loPI   C5A13419   0.904  15.677   8.160  0.1146  0.1037  0.0736
  839loPI   C6A13420   0.527  15.629   8.506  0.3019  0.1016 -0.0299
  839loPI   C1B13421   1.325  15.922   6.675 -0.1041  0.2799  0.0475
  839loPI   C2B13422   1.382  16.053   7.038  0.0394 -0.0417 -0.0181
  839loPI   C3B13423   1.412  16.005   7.410 -0.0684 -0.1169  0.1775
  839loPI   C4B13424   1.452  16.081   7.818 -0.4113 -0.2672 -0.1048
  840loPI    C113425  13.569  12.798   5.390  0.3036  0.1773 -0.1532
  840loPI    C213426  13.448  13.165   5.289 -0.0039  0.1195 -0.0082
  840loPI    C313427  13.362  12.854   5.053  0.1624  0.1236 -0.0761
  840loPI   PO413428  13.494  12.817   5.710  0.1247 -0.1473  0.4764
  840loPI   GL113429  13.421  13.011   6.112 -0.3152 -0.0560 -0.1240
  840loPI   GL213430  13.176  13.061   6.294 -0.3453  0.0626  0.2542
  840loPI   C1A13431  13.585  12.887   6.543 -0.1573  0.0585  0.2620
  840loPI   C2A13432  13.582  12.922   6.959 -0.2615 -0.0319  0.0390
  840loPI   C3A13433  13.518  13.056   7.350  0.0585  0.1810 -0.0410
  840loPI   C4A13434  13.474  13.048   7.817  0.0565 -0.0712 -0.4991
  840loPI   C5A13435  13.400  13.289   8.195  0.0638  0.1498  0.1310
  840loPI   C6A13436  13.272  13.209   8.690 -0.0366  0.2021 -0.2244
  840loPI   C1B13437  13.098  13.136   6.659  0.4859  0.0750 -0.2493
  840loPI   C2B13438  13.072  13.192   6.974 -0.3283 -0.2373 -0.2451
  840loPI   C3B13439  13.029  13.180   7.440 -0.0192 -0.1221  0.2738
  840loPI   C4B13440  12.971  13.341   7.893  0.0548  0.0851  0.1990
  841loPI    C113441  16.491   2.560   4.990 -0.1091  0.1684  0.0916
  841loPI    C213442  16.451   2.298   4.690  0.1457 -0.0076  0.2084
  841loPI    C313443  16.530   2.682   4.611 -0.0199 -0.0067  0.0433
  841loPI   PO413444  16.496   2.418   5.237 -0.1371 -0.1767  0.1775
  841loPI   GL113445  16.269   2.398   5.626 -0.4039 -0.1823  0.1463
  841loPI   GL213446  16.492   2.340   5.757  0.1277 -0.1801  0.0976
  841loPI   C1A13447  16.095   2.721   5.958  0.1468 -0.2083 -0.0933
  841loPI   C2A13448  16.058   2.710   6.370  0.0462  0.0361 -0.0115
  841loPI   C3A13449  16.081   2.750   6.811  0.3049  0.1459 -0.0204
  841loPI   C4A13450  16.097   2.708   7.229 -0.0145 -0.0759 -0.0841
  841loPI   C5A13451  16.137   2.596   7.692  0.1910  0.3452 -0.0705
  841loPI   C6A13452  16.391   2.611   8.096 -0.1655 -0.0863  0.4892
  841loPI   C1B13453  16.555   2.449   6.185 -0.0185  0.0558 -0.0137
  841loPI   C2B13454  16.464   2.536   6.574  0.1341  0.1250 -0.0987
  841loPI   C3B13455  16.487   2.564   6.972  0.1656 -0.0995 -0.1221
  841loPI   C4B13456  16.561   2.490   7.437  0.1596  0.0616 -0.2127
  842loPI    C113457   4.905   1.842   5.416  0.0176  0.1035 -0.0676
  842loPI    C213458   4.827   2.219   5.306  0.1280  0.1119 -0.1178
  842loPI    C313459   4.937   1.948   5.032  0.2612  0.0969 -0.0506
  842loPI   PO413460   5.117   1.863   5.562 -0.0312 -0.0561 -0.2200
  842loPI   GL113461   5.431   1.924   5.848 -0.2302 -0.1699  0.0728
  842loPI   GL213462   5.501   1.550   5.922 -0.0662 -0.1118  0.1190
  842loPI   C1A13463   5.368   2.078   6.231 -0.0181 -0.0745  0.2450
  842loPI   C2A13464   5.305   2.158   6.599 -0.2690 -0.1975 -0.1915
  842loPI   C3A13465   5.286   2.197   7.082 -0.1874 -0.3043 -0.0269
  842loPI   C4A13466   5.261   2.139   7.446 -0.0819  0.1660 -0.0951
  842loPI   C5A13467   5.230   2.277   7.945 -0.0801 -0.2623 -0.2375
  842loPI   C6A13468   5.276   2.694   8.136  0.4699  0.0976  0.3200
  842loPI   C1B13469   5.352   1.628   6.375 -0.1191  0.0961  0.2318
  842loPI   C2B13470   5.284   1.660   6.781 -0.0666 -0.2387  0.0595
  842loPI   C3B13471   5.315   1.717   7.179  0.2787  0.0381 -0.1087
  842loPI   C4B13472   5.394   1.705   7.624  0.1963  0.2394  0.2948
  843loPI    C113473  10.090  13.186   5.530  0.1564  0.2567 -0.0285
  843loPI    C213474   9.928  12.866   5.355  0.1672  0.2500 -0.0261
  843loPI    C313475   9.869  13.230   5.200  0.2239  0.2378 -0.0764
  843loPI   PO413476  10.065  13.152   5.824 -0.0054 -0.3082  0.1194
  843loPI   GL113477  10.044  13.178   6.267  0.0549 -0.1904 -0.3774
  843loPI   GL213478  10.327  13.230   6.255 -0.0952  0.0859  0.1338
  843loPI   C1A13479   9.844  13.475   6.606 -0.1779 -0.0443  0.2022
  843loPI   C2A13480   9.788  13.521   7.083 -0.0158 -0.0303 -0.4207
  843loPI   C3A13481   9.801  13.501   7.566  0.0191 -0.0479  0.3458
  843loPI   C4A13482   9.746  13.578   7.947  0.0341 -0.2896 -0.0994
  843loPI   C5A13483   9.800  13.633   8.390  0.2078 -0.1784 -0.0865
  843loPI   C6A13484   9.830  13.649   8.821  0.3099 -0.0616 -0.0306
  843loPI   C1B13485  10.319  13.251   6.713  0.3317  0.0640  0.1323
  843loPI   C2B13486  10.206  13.332   7.121 -0.1253  0.2150 -0.1216
  843loPI   C3B13487  10.342  13.305   7.583  0.0008 -0.1343  0.0105
  843loPI   C4B13488  10.278  13.383   8.073  0.0201 -0.1737 -0.0195
  844loPI    C113489   9.227   4.284   5.506 -0.4833 -0.3871 -0.0771
  844loPI    C213490   9.031   4.492   5.227 -0.1217  0.1607  0.0624
  844loPI    C313491   9.431   4.485   5.227 -0.1237 -0.1692  0.3300
  844loPI   PO413492   9.072   4.227   5.685  0.0931 -0.0835 -0.0516
  844loPI   GL113493   9.213   4.032   6.029 -0.1197  0.2534  0.0352
  844loPI   GL213494   8.840   3.746   5.926  0.1571  0.0094  0.0612
  844loPI   C1A13495   9.205   3.964   6.335  0.2482  0.3774 -0.1720
  844loPI   C2A13496   9.009   4.053   6.772  0.0701  0.1438  0.0292
  844loPI   C3A13497   9.143   4.086   7.256  0.1124 -0.0834 -0.0485
  844loPI   C4A13498   9.230   4.117   7.707 -0.0682  0.1702 -0.0751
  844loPI   C5A13499   9.061   4.089   8.061 -0.0725 -0.1468 -0.0366
  844loPI   C6A13500   9.103   4.094   8.562 -0.1245  0.3643  0.0444
  844loPI   C1B13501   8.612   3.768   6.277  0.1449  0.0478  0.3188
  844loPI   C2B13502   8.618   3.718   6.741  0.2771  0.2486  0.0815
  844loPI   C3B13503   8.719   3.777   7.230 -0.3364 -0.1833 -0.1031
  844loPI   C4B13504   8.803   3.818   7.625  0.2199  0.0227  0.1673
  845loPI    C113505   7.710  13.888   5.424 -0.1548  0.0302  0.0310
  845loPI    C213506   7.969  13.646   5.238 -0.1166  0.1075 -0.0168
  845loPI    C313507   7.763  13.918   5.029 -0.0903  0.1794  0.0504
  845loPI   PO413508   7.758  13.774   5.715  0.1562  0.3663 -0.1812
  845loPI   GL113509   7.780  13.574   6.109 -0.2396  0.0824  0.1017
  845loPI   GL213510   7.486  13.396   6.154 -0.0042 -0.0829 -0.0382
  845loPI   C1A13511   7.895  13.665   6.512  0.0576 -0.0722  0.1444
  845loPI   C2A13512   8.062  13.621   6.895 -0.3132 -0.0428 -0.0460
  845loPI   C3A13513   8.164  13.726   7.214  0.0027 -0.2949 -0.1162
  845loPI   C4A13514   8.088  13.805   7.638 -0.3288  0.2709 -0.0891
  845loPI   C5A13515   8.021  13.725   8.121 -0.0253 -0.2787 -0.0009
  845loPI   C6A13516   7.934  13.408   8.328 -0.1474  0.2313  0.1078
  845loPI   C1B13517   7.507  13.319   6.560 -0.0971 -0.1959  0.0752
  845loPI   C2B13518   7.596  13.293   7.011  0.0335 -0.1762  0.1272
  845loPI   C3B13519   7.609  13.413   7.451 -0.0615  0.1055  0.0278
  845loPI   C4B13520   7.652  13.442   7.915  0.1113 -0.3839  0.1411
  846loPI    C113521  13.523   2.333   5.423  0.0640 -0.1694  0.0792
  846loPI    C213522  13.762   2.088   5.215  0.2122  0.0227  0.0204
  846loPI    C313523  13.480   2.300   5.026  0.2367  0.0711  0.0379
  846loPI   PO413524  13.651   2.570   5.641 -0.0123  0.0998  0.0840
  846loPI   GL113525  13.492   2.641   5.990  0.4280  0.0982 -0.0068
  846loPI   GL213526  13.370   3.001   5.934  0.0962 -0.0754 -0.3044
  846loPI   C1A13527  13.273   2.734   6.413 -0.3401 -0.5053 -0.1508
  846loPI   C2A13528  13.244   2.895   6.753  0.0675 -0.0987 -0.1716
  846loPI   C3A13529  13.289   2.907   7.219  0.2024 -0.1642 -0.3847
  846loPI   C4A13530  13.388   2.950   7.709 -0.0147 -0.1261  0.5432
  846loPI   C5A13531  13.427   2.867   8.056  0.1160 -0.1024  0.1926
  846loPI   C6A13532  13.641   2.713   8.516  0.1266 -0.2091 -0.1252
  846loPI   C1B13533  13.713   3.061   6.258  0.1092  0.1164  0.1846
  846loPI   C2B13534  13.702   3.218   6.595 -0.2319 -0.2675 -0.3632
  846loPI   C3B13535  13.684   3.198   7.017  0.2298  0.2742 -0.1024
  846loPI   C4B13536  13.730   3.233   7.436  0.0075  0.0773  0.3072
  847loPI    C113537   0.816   4.851   5.279 -0.1594 -0.0293  0.0885
  847loPI    C213538   1.093   5.051   5.487  0.0538 -0.3096  0.0798
  847loPI    C313539   1.076   5.090   5.090 -0.0181 -0.1761  0.0953
  847loPI   PO413540   0.668   4.797   5.544 -0.0759  0.3050  0.0318
  847loPI   GL113541   0.653   4.886   5.983 -0.2969 -0.1190  0.0334
  847loPI   GL213542   0.868   4.949   6.380 -0.1389  0.0275  0.0499
  847loPI   C1A13543   0.342   4.733   6.222 -0.1223  0.0804  0.3581
  847loPI   C2A13544   0.365   4.730   6.690  0.0930  0.3324 -0.1974
  847loPI   C3A13545   0.458   4.753   7.113 -0.0560 -0.2062 -0.0286
  847loPI   C4A13546   0.465   4.708   7.561  0.1587 -0.0385 -0.0982
  847loPI   C5A13547   0.364   4.676   8.018  0.3476 -0.0006 -0.1074
  847loPI   C6A13548  -0.082   4.647   8.320  0.2401  0.1913 -0.3467
  847loPI   C1B13549   0.816   5.057   6.777 -0.1071 -0.0425  0.3641
  847loPI   C2B13550   0.879   5.087   7.157 -0.0541  0.1533 -0.1881
  847loPI   C3B13551   0.864   5.031   7.595  0.2962  0.2121  0.1056
  847loPI   C4B13552   0.750   4.965   7.985 -0.1051 -0.2896 -0.1162
  848loPI    C113553   2.460  12.051   6.084 -0.1756 -0.2207  0.2974
  848loPI    C213554   2.650  12.289   6.343 -0.0589  0.0064  0.0089
  848loPI    C313555   2.268  12.361   6.249 -0.1168 -0.1064  0.1535
  848loPI   PO413556   2.506  11.779   6.073  0.0516 -0.2402  0.0786
  848loPI   GL113557   2.446  11.575   6.445 -0.4056 -0.2263 -0.0317
  848loPI   GL213558   2.386  11.931   6.576 -0.1595  0.0056  0.2710
  848loPI   C1A13559   2.765  11.373   6.708 -0.1441  0.0752 -0.0083
  848loPI   C2A13560   2.829  11.328   7.097 -0.2519 -0.0780  0.0469
  848loPI   C3A13561   2.979  10.888   7.176 -0.4150  0.1901  0.3817
  848loPI   C4A13562   2.870  10.747   7.613 -0.0036 -0.2007  0.3680
  848loPI   C5A13563   2.850  10.887   7.969 -0.1539  0.3910 -0.1477
  848loPI   C6A13564   2.925  11.308   7.874  0.2246 -0.0613 -0.2855
  848loPI   C1B13565   2.114  11.911   7.011 -0.1676  0.1135 -0.1502
  848loPI   C2B13566   1.989  11.820   7.375  0.1210 -0.1354  0.3680
  848loPI   C3B13567   2.113  12.003   7.841  0.1279 -0.2924 -0.2284
  848loPI   C4B13568   2.425  12.433   7.962 -0.0349  0.1196  0.1763
  849loPI    C113569   1.819  16.071   5.533  0.1813  0.0433  0.0099
  849loPI    C213570   2.092  15.984   5.812  0.1878 -0.0620 -0.0285
  849loPI    C313571   2.203  16.165   5.472  0.1706  0.1212  0.0619
  849loPI   PO413572   1.658  16.245   5.747  0.3244 -0.2225  0.3662
  849loPI   GL113573   1.778  16.308   6.085  0.1382 -0.1004 -0.4941
  849loPI   GL213574   1.836  16.491   6.245  0.1539 -0.0276 -0.0589
  849loPI   C1A13575   2.206  16.227   6.443 -0.0109  0.1741 -0.1246
  849loPI   C2A13576   2.242  16.115   6.902 -0.3626  0.2151  0.0689
  849loPI   C3A13577   2.246  16.174   7.319 -0.3174  0.4971 -0.0220
  849loPI   C4A13578   2.246  16.093   7.697 -0.1514 -0.0072  0.6324
  849loPI   C5A13579   2.382  15.671   7.985  0.0429 -0.3824 -0.0015
  849loPI   C6A13580   2.069  15.358   8.005  0.0974  0.1969 -0.0449
  849loPI   C1B13581   1.788  16.287   6.681 -0.0018 -0.1368 -0.0171
  849loPI   C2B13582   1.802  16.300   7.147 -0.1750  0.0072  0.1979
  849loPI   C3B13583   1.874  16.339   7.573  0.0320 -0.0904 -0.0180
  849loPI   C4B13584   1.798  16.388   8.057  0.0563  0.2560  0.0741
  850loPI    C113585   4.734  12.841   5.944 -0.1162 -0.0383 -0.2299
  850loPI    C213586   4.677  13.201   5.779  0.0122  0.0164 -0.1566
  850loPI    C313587   4.891  12.924   5.585  0.2573  0.1185 -0.0358
  850loPI   PO413588   4.824  12.872   6.104  0.3864 -0.0975  0.1579
  850loPI   GL113589   4.996  13.095   6.450  0.0672 -0.1821  0.2351
  850loPI   GL213590   4.694  13.092   6.529  0.0194  0.0104  0.0947
  850loPI   C1A13591   5.339  13.174   6.855  0.0009  0.1186  0.1350
  850loPI   C2A13592   5.395  12.861   7.129  0.1007 -0.1504 -0.0651
  850loPI   C3A13593   5.412  12.774   7.571 -0.0937  0.0051  0.1607
  850loPI   C4A13594   5.354  12.868   8.007 -0.0744 -0.0905  0.0829
  850loPI   C5A13595   5.305  13.109   8.267  0.0933 -0.0910 -0.1239
  850loPI   C6A13596   5.379  13.217   8.576 -0.0799 -0.1529  0.0563
  850loPI   C1B13597   4.822  12.921   6.893  0.0917  0.2554 -0.2427
  850loPI   C2B13598   4.937  12.672   7.306 -0.2232 -0.2414 -0.2368
  850loPI   C3B13599   4.980  12.594   7.767  0.2422  0.2817 -0.1294
  850loPI   C4B13600   4.627  12.533   8.152 -0.1227  0.2786  0.2582
  851loPI    C113601  15.100   1.957   5.296  0.1059 -0.1795 -0.0969
  851loPI    C213602  15.037   2.279   5.068  0.3049 -0.0085  0.0843
  851loPI    C313603  14.764   1.986   5.081  0.0331  0.2393  0.0648
  851loPI   PO413604  15.071   2.030   5.508  0.1699  0.4334 -0.3133
  851loPI   GL113605  15.041   2.071   5.833 -0.4963 -0.2515 -0.0988
  851loPI   GL213606  14.917   1.788   5.945  0.1438 -0.4113  0.0226
  851loPI   C1A13607  15.148   2.088   6.268  0.1534  0.1260 -0.1007
  851loPI   C2A13608  15.268   2.066   6.763 -0.0363  0.0899  0.4169
  851loPI   C3A13609  15.218   2.077   7.165  0.0427  0.1429  0.0476
  851loPI   C4A13610  15.307   2.122   7.618 -0.2616  0.0582 -0.3040
  851loPI   C5A13611  15.143   1.989   8.068  0.1259  0.0315  0.3770
  851loPI   C6A13612  15.258   1.713   8.414  0.0026  0.1935  0.1507
  851loPI   C1B13613  14.735   1.747   6.268 -0.3375 -0.2503 -0.1833
  851loPI   C2B13614  14.813   1.783   6.676  0.0370  0.0270  0.0950
  851loPI   C3B13615  14.819   1.755   7.119  0.0838  0.0186  0.1300
  851loPI   C4B13616  14.818   1.790   7.550 -0.1179 -0.0886  0.0933
  852loPI    C113617   3.882   9.913   5.763 -0.0843 -0.0539 -0.1138
  852loPI    C213618   4.230   9.903   5.566 -0.0395 -0.1369 -0.0315
  852loPI    C313619   3.895  10.010   5.375  0.0564  0.0971 -0.0727
  852loPI   PO413620   4.015   9.976   6.039  0.1317  0.0744 -0.0743
  852loPI   GL113621   4.083   9.843   6.509  0.3187 -0.0145  0.2899
  852loPI   GL213622   3.718   9.926   6.558  0.1215 -0.0091 -0.1357
  852loPI   C1A13623   4.104   9.831   6.931 -0.1703  0.2506  0.0958
  852loPI   C2A13624   4.140   9.674   7.297  0.1755  0.0311 -0.2494
  852loPI   C3A13625   3.926   9.817   7.744  0.0800 -0.1798 -0.2105
  852loPI   C4A13626   4.050   9.787   8.137 -0.1439 -0.0339 -0.4810
  852loPI   C5A13627   4.307   9.629   8.504 -0.1422  0.1489 -0.0504
  852loPI   C6A13628   4.475   9.409   8.877 -0.1284  0.0816  0.0998
  852loPI   C1B13629   3.602   9.732   6.957 -0.2764 -0.2479 -0.1841
  852loPI   C2B13630   3.431   9.914   7.311 -0.1337 -0.2949 -0.0146
  852loPI   C3B13631   3.524  10.103   7.703 -0.2563 -0.0827 -0.2082
  852loPI   C4B13632   3.794  10.273   8.088  0.1958  0.1367 -0.0496
  853loPI    C113633  10.236   6.639   5.321  0.0034 -0.0535 -0.0727
  853loPI    C213634  10.379   6.313   5.502 -0.3811 -0.1892 -0.0028
  853loPI    C313635  10.342   6.321   5.104  0.0192 -0.0687 -0.0427
  853loPI   PO413636  10.462   6.823   5.458 -0.1352 -0.1649  0.0409
  853loPI   GL113637  10.730   6.747   5.887 -0.1951  0.0931 -0.0916
  853loPI   GL213638  10.512   6.533   5.910  0.1793 -0.1396  0.0690
  853loPI   C1A13639  10.930   6.684   6.300 -0.1010  0.1293 -0.1736
  853loPI   C2A13640  11.037   6.750   6.742 -0.1234  0.3910  0.2910
  853loPI   C3A13641  10.982   6.864   7.189  0.2100  0.2598  0.0599
  853loPI   C4A13642  10.943   6.941   7.634 -0.0716  0.2347 -0.2873
  853loPI   C5A13643  10.759   6.938   7.931  0.1577 -0.5581 -0.5396
  853loPI   C6A13644  10.738   6.638   8.244 -0.0730 -0.3101  0.1252
  853loPI   C1B13645  10.515   6.380   6.386 -0.3452  0.0879 -0.1437
  853loPI   C2B13646  10.536   6.409   6.827  0.0875 -0.0418  0.0056
  853loPI   C3B13647  10.523   6.477   7.282 -0.0154 -0.3074  0.3191
  853loPI   C4B13648  10.605   6.430   7.697  0.0511 -0.0793  0.3099
  854loPI    C113649  14.751  11.073   5.551  0.1304  0.0899  0.1582
  854loPI    C213650  14.962  11.332   5.331  0.3326 -0.1031  0.1215
  854loPI    C313651  14.874  10.971   5.184  0.0969 -0.0763  0.1926
  854loPI   PO413652  14.685  11.267   5.765  0.1773  0.0157 -0.0237
  854loPI   GL113653  14.806  11.180   6.149  0.1371 -0.1374  0.2463
  854loPI   GL213654  14.374  11.181   6.116 -0.1413 -0.1589  0.0357
  854loPI   C1A13655  14.762  10.937   6.446 -0.0636 -0.0877 -0.2230
  854loPI   C2A13656  14.848  11.098   6.795  0.3884  0.1553  0.2909
  854loPI   C3A13657  14.871  11.085   7.368 -0.1636  0.0963 -0.0105
  854loPI   C4A13658  14.796  11.168   7.788  0.0833  0.2651  0.1184
  854loPI   C5A13659  14.696  11.222   8.166  0.3317 -0.0833 -0.1168
  854loPI   C6A13660  14.789  11.405   8.626  0.3095  0.0479 -0.1039
  854loPI   C1B13661  14.211  11.176   6.556  0.1043  0.0117  0.0453
  854loPI   C2B13662  14.319  11.243   6.982 -0.1213 -0.1856  0.2022
  854loPI   C3B13663  14.224  11.340   7.444  0.2180 -0.1884  0.3133
  854loPI   C4B13664  14.241  11.288   7.894  0.0399 -0.4288  0.3908
  855loPI    C113665  17.339   8.112   5.629 -0.0631 -0.1278  0.1059
  855loPI    C213666  17.161   8.461   5.707 -0.1769 -0.0949 -0.2795
  855loPI    C313667  17.366   8.413   5.367  0.0816 -0.3134 -0.0964
  855loPI   PO413668  17.242   7.991   5.852  0.2046  0.2303  0.3387
  855loPI   GL113669  17.047   7.968   6.142 -0.1473 -0.0594 -0.0730
  855loPI   GL213670  16.812   7.828   6.281  0.0864 -0.0502 -0.0998
  855loPI   C1A13671  17.175   8.222   6.463  0.1573  0.2882  0.1529
  855loPI   C2A13672  17.046   8.236   6.820  0.2151 -0.1122 -0.0147
  855loPI   C3A13673  17.006   8.169   7.273  0.1674 -0.0387 -0.1537
  855loPI   C4A13674  17.009   8.148   7.730  0.2527 -0.2307 -0.0252
  855loPI   C5A13675  17.004   7.773   8.043 -0.2016 -0.1322 -0.1216
  855loPI   C6A13676  17.003   7.665   8.477 -0.1998  0.0787 -0.1361
  855loPI   C1B13677  16.712   7.853   6.782 -0.0823 -0.1346 -0.2179
  855loPI   C2B13678  16.614   7.782   7.250  0.1516 -0.0388 -0.1181
  855loPI   C3B13679  16.582   7.861   7.610 -0.3888 -0.1364 -0.4838
  855loPI   C4B13680  16.484   7.808   8.052 -0.2266 -0.0118 -0.1992
  856loPI    C113681   8.839  16.933   4.907 -0.0729  0.1057 -0.0423
  856loPI    C213682   9.088  16.754   4.649  0.1198  0.1082  0.1393
  856loPI    C313683   8.982  17.135   4.593 -0.1477 -0.0048 -0.1482
  856loPI   PO413684   8.960  16.870   5.239 -0.2042 -0.0273 -0.3029
  856loPI   GL113685   9.010  16.756   5.756  0.1150  0.3301 -0.0920
  856loPI   GL213686   9.276  16.779   5.968  0.1377  0.1233  0.0945
  856loPI   C1A13687   8.789  16.739   6.231  0.2167 -0.0569 -0.0647
  856loPI   C2A13688   8.967  16.747   6.624  0.0683  0.2237  0.2138
  856loPI   C3A13689   8.972  16.710   7.004  0.0911 -0.0228  0.0285
  856loPI   C4A13690   9.050  16.868   7.445  0.2955  0.3279 -0.1637
  856loPI   C5A13691   9.085  16.774   7.787 -0.2176  0.1776  0.0055
  856loPI   C6A13692   9.223  16.826   8.217  0.4477  0.0559  0.2107
  856loPI   C1B13693   9.257  17.101   6.413  0.2484  0.1830  0.0382
  856loPI   C2B13694   9.396  17.021   6.898  0.1523 -0.1625 -0.1638
  856loPI   C3B13695   9.431  17.186   7.392  0.0238 -0.1166  0.0069
  856loPI   C4B13696   9.445  17.093   7.816  0.1987  0.2362  0.3446
  857loPI    C113697   2.375   5.918   5.526  0.3304 -0.0804 -0.0891
  857loPI    C213698   2.374   6.092   5.166  0.2382 -0.0406 -0.0701
  857loPI    C313699   2.609   5.775   5.235  0.2589 -0.0459 -0.1638
  857loPI   PO413700   2.110   6.067   5.619  0.0864  0.1057 -0.3775
  857loPI   GL113701   2.018   6.156   5.972  0.0437 -0.2474  0.2766
  857loPI   GL213702   2.090   6.406   6.108  0.2009 -0.1001 -0.0095
  857loPI   C1A13703   2.178   6.041   6.471 -0.0375 -0.2753 -0.1839
  857loPI   C2A13704   2.052   6.056   6.865 -0.2332  0.1048 -0.1086
  857loPI   C3A13705   2.098   5.966   7.244  0.1791 -0.3061  0.3489
  857loPI   C4A13706   2.061   5.948   7.783  0.0544 -0.2582  0.1435
  857loPI   C5A13707   2.016   6.044   8.151  0.0286 -0.0137 -0.2183
  857loPI   C6A13708   1.987   6.408   8.389 -0.1039 -0.0609 -0.0934
  857loPI   C1B13709   2.000   6.487   6.564  0.0251 -0.2189 -0.1333
  857loPI   C2B13710   1.986   6.541   6.971  0.3738  0.1673 -0.1073
  857loPI   C3B13711   1.997   6.533   7.366  0.2636 -0.1693 -0.3573
  857loPI   C4B13712   2.077   6.501   7.753  0.2178  0.0723 -0.3361
  858loPI    C113713   9.177  16.451   5.418 -0.1462  0.1978  0.1600
  858loPI    C213714   9.115  16.076   5.293 -0.2615  0.1717  0.2933
  858loPI    C313715   9.068  16.382   5.040  0.0348  0.0836  0.1275
  858loPI   PO413716   9.379  16.447   5.533  0.0194 -0.0669 -0.1436
  858loPI   GL113717   9.324  16.287   5.944 -0.0544  0.2020 -0.2877
  858loPI   GL213718   9.411  16.058   6.122 -0.1064 -0.2314  0.0648
  858loPI   C1A13719   9.358  16.494   6.368 -0.3154  0.2119  0.1454
  858loPI   C2A13720   9.442  16.527   6.799 -0.0564  0.1552 -0.3476
  858loPI   C3A13721   9.372  16.582   7.200 -0.1017 -0.2385  0.1161
  858loPI   C4A13722   9.507  16.665   7.527  0.1923 -0.2552 -0.0697
  858loPI   C5A13723   9.620  16.642   8.021 -0.1115  0.0439  0.1055
  858loPI   C6A13724   9.810  16.539   8.424 -0.2434  0.0059 -0.0430
  858loPI   C1B13725   9.466  16.011   6.498  0.1223 -0.0216 -0.3883
  858loPI   C2B13726   9.457  16.025   6.940 -0.0446 -0.3228  0.0678
  858loPI   C3B13727   9.517  16.138   7.403 -0.3119  0.2188 -0.0507
  858loPI   C4B13728   9.434  16.164   7.823  0.1387 -0.3537  0.0114
  859loPI    C113729   0.218  12.482   5.472  0.2263 -0.2231 -0.0642
  859loPI    C213730  -0.153  12.416   5.339  0.1757 -0.0902  0.0081
  859loPI    C313731   0.112  12.605   5.107  0.1565 -0.0616  0.0095
  859loPI   PO413732   0.203  12.261   5.703  0.0871  0.2757 -0.4471
  859loPI   GL113733   0.236  12.232   6.251 -0.1510  0.5043 -0.1242
  859loPI   GL213734   0.205  11.989   6.457 -0.0905  0.1039  0.4779
  859loPI   C1A13735   0.234  12.486   6.488  0.1444 -0.2888 -0.1008
  859loPI   C2A13736   0.128  12.546   6.934 -0.0731 -0.3878  0.0726
  859loPI   C3A13737   0.220  12.651   7.308  0.1403 -0.1996 -0.1452
  859loPI   C4A13738   0.077  12.508   7.790  0.1185  0.0234 -0.2749
  859loPI   C5A13739  -0.083  12.577   8.175  0.2791  0.2400 -0.0550
  859loPI   C6A13740  -0.329  12.510   8.422 -0.1793 -0.0143  0.0820
  859loPI   C1B13741   0.157  12.073   6.850 -0.0548  0.0031 -0.3355
  859loPI   C2B13742   0.220  12.091   7.286 -0.4101  0.1178  0.0187
  859loPI   C3B13743   0.293  12.078   7.744 -0.2212 -0.2970  0.0066
  859loPI   C4B13744   0.281  12.185   8.090  0.0241 -0.0576  0.1092
  860loPI    C113745   9.026   7.700   5.558  0.0466  0.0998  0.0420
  860loPI    C213746   8.787   7.891   5.300 -0.0920  0.0747  0.1502
  860loPI    C313747   8.957   7.543   5.196 -0.1374  0.0707  0.0887
  860loPI   PO413748   8.896   7.631   5.754  0.4393  0.3587 -0.1544
  860loPI   GL113749   9.021   7.374   6.058 -0.4200 -0.0521  0.2143
  860loPI   GL213750   9.320   7.593   6.002  0.0858 -0.0773 -0.0908
  860loPI   C1A13751   9.050   7.413   6.530 -0.1893 -0.0572 -0.0629
  860loPI   C2A13752   9.132   7.467   6.900 -0.2403  0.2697 -0.4338
  860loPI   C3A13753   8.978   7.697   7.234  0.1154 -0.2103 -0.0107
  860loPI   C4A13754   9.060   7.717   7.656  0.1510  0.0956  0.1844
  860loPI   C5A13755   9.415   7.754   7.923 -0.2278  0.2614  0.2536
  860loPI   C6A13756   9.730   8.064   8.012 -0.1798 -0.1245 -0.0959
  860loPI   C1B13757   9.455   7.663   6.345  0.0659 -0.1216 -0.0082
  860loPI   C2B13758   9.422   7.805   6.712  0.2154 -0.1270  0.1093
  860loPI   C3B13759   9.413   7.914   7.076  0.1860 -0.0377  0.1295
  860loPI   C4B13760   9.483   8.007   7.531  0.0758 -0.0569 -0.0492
  861loPI    C113761   9.798   0.256   5.517 -0.0696 -0.0629 -0.0044
  861loPI    C213762   9.610   0.432   5.211  0.2963  0.0118 -0.1912
  861loPI    C313763   9.866   0.131   5.143  0.1356 -0.1881  0.0729
  861loPI   PO413764   9.828   0.406   5.686  0.1057  0.1100  0.3561
  861loPI   GL113765   9.702   0.602   6.075 -0.1951 -0.1999  0.3077
  861loPI   GL213766  10.082   0.664   6.066 -0.2626 -0.3075 -0.0294
  861loPI   C1A13767   9.498   0.386   6.313  0.0342  0.4356 -0.0114
  861loPI   C2A13768   9.534   0.406   6.730 -0.1125  0.0194  0.3423
  861loPI   C3A13769   9.711   0.540   7.183  0.2474  0.2267  0.0246
  861loPI   C4A13770   9.723   0.524   7.597  0.1605  0.1645 -0.2407
  861loPI   C5A13771   9.781   0.678   8.020 -0.0544 -0.0408 -0.0337
  861loPI   C6A13772   9.604   0.624   8.388  0.2974  0.0987  0.1240
  861loPI   C1B13773  10.043   0.811   6.495 -0.2665 -0.1081  0.0818
  861loPI   C2B13774  10.070   0.779   6.965 -0.0583  0.1843  0.3254
  861loPI   C3B13775  10.147   0.839   7.354  0.2054 -0.0519  0.0557
  861loPI   C4B13776  10.116   0.923   7.727  0.0718 -0.0053  0.1065
  862loPI    C113777  12.017   3.537   5.316  0.3024  0.0661  0.0434
  862loPI    C213778  11.626   3.452   5.300  0.3673 -0.2994  0.2777
  862loPI    C313779  11.851   3.425   4.970  0.2541 -0.3870  0.2068
  862loPI   PO413780  12.097   3.514   5.589  0.0491 -0.3301 -0.1846
  862loPI   GL113781  12.157   3.404   5.985  0.2213  0.2092  0.2358
  862loPI   GL213782  12.323   3.187   6.037 -0.2578 -0.0413 -0.1241
  862loPI   C1A13783  11.917   3.449   6.382  0.4811 -0.1550  0.2011
  862loPI   C2A13784  11.984   3.392   6.728  0.1371 -0.1667 -0.1749
  862loPI   C3A13785  11.979   3.462   7.120  0.1410  0.1155  0.0306
  862loPI   C4A13786  11.913   3.518   7.548  0.1667 -0.1495  0.1713
  862loPI   C5A13787  11.955   3.619   7.880 -0.2337  0.1422 -0.3637
  862loPI   C6A13788  12.068   3.900   8.300  0.0549 -0.0986 -0.0652
  862loPI   C1B13789  12.337   3.204   6.446  0.2356 -0.3261  0.2966
  862loPI   C2B13790  12.448   3.215   6.836  0.2281  0.0594 -0.2171
  862loPI   C3B13791  12.431   3.292   7.285 -0.1735 -0.0464 -0.2125
  862loPI   C4B13792  12.373   3.284   7.765 -0.0323  0.0147  0.2644
  863loPI    C113793   9.917   7.075   5.189 -0.0748  0.0500 -0.1094
  863loPI    C213794  10.012   6.811   4.904 -0.1362 -0.0198 -0.0655
  863loPI    C313795   9.890   7.179   4.804  0.1122  0.0484 -0.1241
  863loPI   PO413796   9.811   6.921   5.427 -0.2941 -0.0725 -0.0942
  863loPI   GL113797   9.917   7.001   5.995  0.2040  0.1500  0.0901
  863loPI   GL213798  10.165   6.868   5.870 -0.1091  0.3353  0.0025
  863loPI   C1A13799   9.952   7.029   6.462 -0.0567  0.2528  0.1544
  863loPI   C2A13800   9.936   7.095   6.888 -0.1137  0.1278 -0.2050
  863loPI   C3A13801  10.008   7.175   7.289  0.4214  0.0426 -0.1800
  863loPI   C4A13802   9.854   7.212   7.690  0.1074  0.0351  0.1911
  863loPI   C5A13803   9.860   7.437   8.083 -0.2442  0.1948 -0.1342
  863loPI   C6A13804   9.671   7.660   8.323  0.1978 -0.2005 -0.0777
  863loPI   C1B13805  10.417   6.926   6.240  0.2937 -0.2955 -0.0296
  863loPI   C2B13806  10.411   6.963   6.695  0.1091 -0.1970 -0.0748
  863loPI   C3B13807  10.477   7.036   7.093 -0.2676  0.0026 -0.2095
  863loPI   C4B13808  10.475   6.995   7.515 -0.2812 -0.0112  0.0317
  864loPI    C113809  16.058   5.272   5.331 -0.2607  0.0152  0.2330
  864loPI    C213810  16.201   4.916   5.445 -0.0838 -0.0461 -0.1641
  864loPI    C313811  16.334   5.086   5.108 -0.2918  0.3194 -0.0665
  864loPI   PO413812  15.960   5.465   5.450  0.0885 -0.1540 -0.3130
  864loPI   GL113813  15.693   5.488   5.838 -0.0874 -0.2595  0.0282
  864loPI   GL213814  15.901   5.123   5.893  0.0390 -0.2095  0.4178
  864loPI   C1A13815  15.609   5.339   6.217 -0.2348  0.2754 -0.1906
  864loPI   C2A13816  15.654   5.284   6.633 -0.0731 -0.0315 -0.4384
  864loPI   C3A13817  15.701   5.385   6.909  0.1243  0.0260  0.1424
  864loPI   C4A13818  15.686   5.320   7.333  0.2006 -0.2850  0.1825
  864loPI   C5A13819  15.666   5.285   7.845 -0.1168 -0.1187  0.0103
  864loPI   C6A13820  15.654   5.507   8.192  0.0246 -0.3859  0.0257
  864loPI   C1B13821  16.021   5.070   6.316 -0.1926  0.1309 -0.1172
  864loPI   C2B13822  16.131   5.143   6.766 -0.1866 -0.0326 -0.0598
  864loPI   C3B13823  16.116   5.058   7.228 -0.0804  0.0531 -0.0266
  864loPI   C4B13824  16.144   5.149   7.679 -0.0201  0.0639  0.3548
  865loPI    C113825  13.593   7.125   5.329  0.1243 -0.1283 -0.1365
  865loPI    C213826  13.819   7.433   5.211 -0.0976 -0.0086 -0.2550
  865loPI    C313827  13.836   7.086   5.014 -0.1050  0.0376 -0.3375
  865loPI   PO413828  13.694   7.162   5.640 -0.2866  0.2141 -0.0102
  865loPI   GL113829  13.557   7.399   6.054 -0.1629  0.1851 -0.2565
  865loPI   GL213830  13.671   7.079   6.113 -0.0873  0.1227  0.3980
  865loPI   C1A13831  13.454   7.523   6.397 -0.2017  0.2144  0.1081
  865loPI   C2A13832  13.440   7.722   6.728 -0.0309  0.1618 -0.0445
  865loPI   C3A13833  13.491   7.781   7.075 -0.3764  0.4917  0.2530
  865loPI   C4A13834  13.483   7.766   7.542 -0.0199 -0.2289 -0.6524
  865loPI   C5A13835  13.556   7.717   8.052  0.1255  0.0195  0.0970
  865loPI   C6A13836  13.538   7.849   8.399  0.1600  0.2730 -0.1989
  865loPI   C1B13837  13.576   7.077   6.564 -0.3575  0.2592  0.0107
  865loPI   C2B13838  13.576   7.217   6.890  0.0962 -0.0846  0.1072
  865loPI   C3B13839  13.593   7.282   7.171 -0.0980  0.1493 -0.1184
  865loPI   C4B13840  13.546   7.242   7.625 -0.3226 -0.1406 -0.2994
  866loPI    C113841   1.717   6.996   5.503 -0.0109  0.0721 -0.3030
  866loPI    C213842   2.012   7.199   5.324  0.0269 -0.0822 -0.4179
  866loPI    C313843   1.635   7.235   5.193 -0.0065  0.1128 -0.2730
  866loPI   PO413844   1.829   6.988   5.704  0.1567 -0.1946  0.0581
  866loPI   GL113845   1.749   6.745   6.032 -0.0723  0.1516 -0.0892
  866loPI   GL213846   2.016   6.895   6.152 -0.3683 -0.1954  0.3061
  866loPI   C1A13847   1.577   6.653   6.400 -0.0505  0.1355  0.1399
  866loPI   C2A13848   1.536   6.688   6.818 -0.2133 -0.0859 -0.1959
  866loPI   C3A13849   1.533   6.678   7.216  0.2797 -0.1818  0.0085
  866loPI   C4A13850   1.624   6.739   7.641 -0.0677 -0.1621 -0.1017
  866loPI   C5A13851   1.665   6.772   7.991 -0.3977 -0.1147 -0.0510
  866loPI   C6A13852   1.889   6.921   8.403 -0.3491  0.2010 -0.0216
  866loPI   C1B13853   1.953   6.992   6.601  0.3104 -0.1663 -0.1079
  866loPI   C2B13854   1.866   7.016   7.039 -0.0739 -0.3408  0.1018
  866loPI   C3B13855   1.910   7.134   7.437  0.0720 -0.3738  0.0256
  866loPI   C4B13856   1.992   7.078   7.894 -0.1148  0.1226 -0.2153
  867loPI    C113857   3.535   6.103   5.706 -0.0270  0.1241  0.0856
  867loPI    C213858   3.343   6.300   5.416 -0.2124 -0.0214  0.1079
  867loPI    C313859   3.661   6.465   5.593 -0.1984  0.1383 -0.0639
  867loPI   PO413860   3.266   6.002   5.829 -0.2081  0.0513 -0.1592
  867loPI   GL113861   3.132   5.890   6.274 -0.2153  0.0939  0.1439
  867loPI   GL213862   2.953   6.033   6.420  0.1446  0.3038  0.2348
  867loPI   C1A13863   3.404   5.850   6.653 -0.0183 -0.2044 -0.1015
  867loPI   C2A13864   3.429   5.929   7.089  0.2686  0.2667 -0.2619
  867loPI   C3A13865   3.417   5.880   7.548  0.1233  0.2395 -0.1113
  867loPI   C4A13866   3.482   5.709   8.002 -0.0941 -0.1589  0.0592
  867loPI   C5A13867   3.355   5.485   8.371  0.1877 -0.0095  0.0314
  867loPI   C6A13868   3.153   5.708   8.724  0.0119 -0.0699 -0.0637
  867loPI   C1B13869   3.002   6.060   6.881 -0.1774  0.1817  0.1969
  867loPI   C2B13870   2.947   6.080   7.323  0.0882 -0.0587 -0.2042
  867loPI   C3B13871   3.020   6.116   7.805  0.2664 -0.2296  0.0795
  867loPI   C4B13872   3.078   5.932   8.225  0.0305  0.3261  0.0905
  868loPI    C113873  11.135  17.778   5.242 -0.2009  0.1600 -0.0473
  868loPI    C213874  11.432  17.682   4.992 -0.3355 -0.3049 -0.0390
  868loPI    C313875  11.154  17.946   4.879  0.1004  0.1750 -0.0268
  868loPI   PO413876  11.235  17.881   5.447 -0.2169  0.3634 -0.0292
  868loPI   GL113877  11.275  17.757   5.809 -0.0753 -0.3109  0.0875
  868loPI   GL213878  11.080  17.840   5.933 -0.1212  0.2022  0.1224
  868loPI   C1A13879  11.485  17.599   6.119  0.0874 -0.2777 -0.1003
  868loPI   C2A13880  11.523  17.614   6.643  0.1775  0.0428 -0.3464
  868loPI   C3A13881  11.559  17.671   7.018 -0.1273 -0.0689 -0.1544
  868loPI   C4A13882  11.550  17.672   7.467 -0.2287 -0.1740 -0.2854
  868loPI   C5A13883  11.548  17.853   7.944  0.1877  0.1069 -0.0104
  868loPI   C6A13884  11.163  18.181   8.016  0.0442 -0.0388 -0.2420
  868loPI   C1B13885  11.088  17.781   6.412 -0.0188  0.0273  0.1542
  868loPI   C2B13886  11.108  17.900   6.846  0.0466  0.0527  0.0009
  868loPI   C3B13887  11.105  17.817   7.189  0.0427  0.0218  0.0513
  868loPI   C4B13888  11.090  17.885   7.599 -0.0916 -0.0833 -0.4925
  869loPI    C113889  12.274   1.943   5.604 -0.0174 -0.2551  0.1442
  869loPI    C213890  12.352   1.980   5.214 -0.2649  0.0948  0.1227
  869loPI    C313891  12.647   1.891   5.470 -0.0551  0.1026 -0.1123
  869loPI   PO413892  12.044   1.882   5.710 -0.0375  0.0895 -0.0196
  869loPI   GL113893  12.116   1.701   6.087 -0.1969 -0.0607  0.3833
  869loPI   GL213894  12.478   1.695   5.967  0.0436  0.0371  0.1777
  869loPI   C1A13895  12.089   1.863   6.546  0.0653 -0.0284 -0.2579
  869loPI   C2A13896  12.099   1.956   7.042  0.1079 -0.0567  0.1626
  869loPI   C3A13897  12.212   1.910   7.446  0.0857 -0.0060  0.0189
  869loPI   C4A13898  12.153   1.997   7.789  0.3731 -0.2144  0.0334
  869loPI   C5A13899  11.953   2.125   8.175 -0.1473  0.4464 -0.3496
  869loPI   C6A13900  11.635   2.325   8.304  0.1011 -0.0120 -0.1605
  869loPI   C1B13901  12.584   1.557   6.298 -0.0813 -0.3156  0.0405
  869loPI   C2B13902  12.564   1.651   6.677  0.0499  0.0595  0.0057
  869loPI   C3B13903  12.659   1.734   7.223 -0.1711 -0.1689 -0.2902
  869loPI   C4B13904  12.638   1.752   7.730  0.1133 -0.1860  0.1535
  870loPI    C113905   7.781  13.252   5.460  0.1004 -0.1826 -0.0369
  870loPI    C213906   7.758  12.867   5.353 -0.2019 -0.2173  0.1412
  870loPI    C313907   7.488  13.129   5.217  0.0794 -0.0390 -0.0845
  870loPI   PO413908   7.793  13.167   5.775  0.0514 -0.2116  0.1934
  870loPI   GL113909   7.943  13.022   6.119  0.1014 -0.0713 -0.0984
  870loPI   GL213910   8.238  13.197   6.098 -0.3351 -0.1353 -0.3751
  870loPI   C1A13911   8.061  13.175   6.573  0.0729 -0.2592 -0.0611
  870loPI   C2A13912   8.126  13.174   7.011  0.1259  0.1481 -0.0501
  870loPI   C3A13913   8.094  13.206   7.477  0.0309 -0.1389  0.2470
  870loPI   C4A13914   8.128  13.308   7.814 -0.1086  0.1511 -0.0308
  870loPI   C5A13915   8.392  13.138   8.180 -0.0595 -0.0725  0.2196
  870loPI   C6A13916   8.678  13.055   8.563  0.0910 -0.5202 -0.3985
  870loPI   C1B13917   8.484  12.985   6.404 -0.1842 -0.0401  0.0201
  870loPI   C2B13918   8.568  12.888   6.844 -0.0766 -0.2195  0.1940
  870loPI   C3B13919   8.540  12.945   7.313 -0.0436  0.1124 -0.0637
  870loPI   C4B13920   8.636  13.083   7.704 -0.0621  0.0732 -0.0815
  871loPI    C113921  10.383  17.451   5.412 -0.1992 -0.2166 -0.3026
  871loPI    C213922  10.620  17.626   5.142  0.1064  0.2401  0.2398
  871loPI    C313923  10.229  17.713   5.153  0.0587  0.0953 -0.1466
  871loPI   PO413924  10.453  17.530   5.648 -0.0886  0.2372  0.3594
  871loPI   GL113925  10.710  17.505   6.112 -0.0475 -0.3612  0.0949
  871loPI   GL213926  11.007  17.307   6.090  0.0419  0.0478  0.0399
  871loPI   C1A13927  10.625  17.514   6.533 -0.2350 -0.0339  0.0688
  871loPI   C2A13928  10.639  17.560   6.930 -0.1019  0.0395  0.1325
  871loPI   C3A13929  10.716  17.574   7.357 -0.0311 -0.3625  0.2194
  871loPI   C4A13930  10.709  17.597   7.722 -0.0249  0.0013  0.1068
  871loPI   C5A13931  10.781  17.744   8.217  0.3353  0.0353 -0.2441
  871loPI   C6A13932  10.366  17.810   8.437 -0.4199  0.3847 -0.0980
  871loPI   C1B13933  11.137  17.300   6.501 -0.0120  0.1278 -0.0870
  871loPI   C2B13934  11.152  17.414   6.988 -0.1147  0.3916 -0.1197
  871loPI   C3B13935  11.140  17.373   7.483 -0.1029  0.0850  0.1384
  871loPI   C4B13936  11.172  17.518   7.902 -0.1771  0.0597  0.1880
  872loPI    C113937   4.276   8.979   5.741 -0.1326  0.1504 -0.1482
  872loPI    C213938   4.107   8.872   6.088  0.1708 -0.3010 -0.1301
  872loPI    C313939   3.889   8.879   5.752 -0.0482 -0.1747  0.0124
  872loPI   PO413940   4.528   9.158   5.953 -0.1939 -0.0257  0.1107
  872loPI   GL113941   4.601   9.370   6.390 -0.0047  0.0940  0.2710
  872loPI   GL213942   4.797   9.215   6.506 -0.2495  0.0733  0.0936
  872loPI   C1A13943   4.373   9.489   6.675  0.1288 -0.0534  0.2196
  872loPI   C2A13944   4.237   9.265   7.065  0.0469  0.0927  0.0788
  872loPI   C3A13945   3.912   9.285   7.360 -0.1716 -0.2050 -0.0937
  872loPI   C4A13946   3.830   9.307   7.850  0.1208  0.4321 -0.1309
  872loPI   C5A13947   3.516   9.306   8.066  0.1100 -0.1357  0.0218
  872loPI   C6A13948   3.320   9.138   8.439 -0.0626  0.0347 -0.1241
  872loPI   C1B13949   4.730   9.232   6.974  0.0846  0.1546  0.1628
  872loPI   C2B13950   4.816   9.175   7.428 -0.2139  0.1056 -0.1101
  872loPI   C3B13951   4.750   9.239   7.811  0.0779 -0.1382 -0.1420
  872loPI   C4B13952   4.966   8.936   8.008 -0.2077  0.3963  0.0923
  873loPI    C113953   6.013  15.280   5.478  0.0501 -0.1433 -0.1621
  873loPI    C213954   5.838  14.966   5.301 -0.1450 -0.0474 -0.1419
  873loPI    C313955   5.755  15.338   5.178 -0.0263  0.0037 -0.0695
  873loPI   PO413956   6.023  15.252   5.739  0.3468 -0.1822  0.1403
  873loPI   GL113957   6.234  15.377   6.193 -0.1878  0.0436 -0.2119
  873loPI   GL213958   5.955  15.570   6.149  0.1425 -0.0022  0.2030
  873loPI   C1A13959   6.422  15.301   6.673 -0.0755 -0.0912 -0.1756
  873loPI   C2A13960   6.477  15.350   7.076  0.0795  0.1129  0.5547
  873loPI   C3A13961   6.391  15.359   7.617 -0.0811 -0.0918 -0.1760
  873loPI   C4A13962   6.440  15.297   8.100 -0.0476  0.0810  0.2341
  873loPI   C5A13963   6.258  15.531   8.476 -0.1074  0.1047 -0.1161
  873loPI   C6A13964   6.094  15.725   8.816  0.1220 -0.0172  0.1543
  873loPI   C1B13965   5.957  15.517   6.599  0.2715 -0.3087 -0.2567
  873loPI   C2B13966   5.884  15.472   6.988  0.0212  0.2753 -0.2626
  873loPI   C3B13967   5.955  15.512   7.447  0.1424 -0.0650  0.1272
  873loPI   C4B13968   6.020  15.530   7.969 -0.3161 -0.0468 -0.1262
  874loPI    C113969   1.708   4.247   5.580  0.2089 -0.1936 -0.0444
  874loPI    C213970   1.740   4.529   5.298 -0.1712 -0.1014 -0.0004
  874loPI    C313971   1.992   4.218   5.300  0.0295  0.0561 -0.2564
  874loPI   PO413972   1.632   4.234   5.817 -0.0040 -0.0429  0.3289
  874loPI   GL113973   1.801   4.376   6.128 -0.2101  0.0817 -0.3693
  874loPI   GL213974   1.648   4.492   6.284 -0.0077 -0.0434 -0.2357
  874loPI   C1A13975   1.787   4.119   6.533 -0.0793  0.1683 -0.0460
  874loPI   C2A13976   1.906   4.186   6.958 -0.2368  0.2935 -0.1687
  874loPI   C3A13977   1.871   4.255   7.382  0.2042  0.2090  0.0472
  874loPI   C4A13978   1.840   4.087   7.820  0.5443  0.1109  0.0495
  874loPI   C5A13979   1.912   4.030   8.223  0.2886 -0.0680  0.1796
  874loPI   C6A13980   2.051   3.676   8.485  0.0204 -0.0258 -0.1414
  874loPI   C1B13981   1.779   4.643   6.619 -0.2397 -0.2457 -0.3266
  874loPI   C2B13982   1.718   4.627   7.046 -0.2173 -0.1304 -0.0780
  874loPI   C3B13983   1.756   4.723   7.541 -0.1465 -0.0829 -0.0380
  874loPI   C4B13984   1.740   4.662   7.985  0.1989  0.1672 -0.0812
  875loPI    C113985  13.436   3.380   5.176 -0.1265  0.2947  0.1266
  875loPI    C213986  13.209   3.497   4.868 -0.0506 -0.1441 -0.1053
  875loPI    C313987  13.606   3.547   4.854 -0.0642  0.0016  0.0038
  875loPI   PO413988  13.337   3.419   5.334  0.1651  0.0964  0.3590
  875loPI   GL113989  13.390   3.489   5.794  0.1721  0.1096  0.3414
  875loPI   GL213990  13.664   3.590   5.772 -0.0077  0.5245  0.1107
  875loPI   C1A13991  13.249   3.308   6.325 -0.3101  0.0470  0.0486
  875loPI   C2A13992  13.231   3.386   6.866  0.2383 -0.2656 -0.2203
  875loPI   C3A13993  13.280   3.450   7.294  0.3746 -0.1100  0.0350
  875loPI   C4A13994  13.225   3.466   7.751  0.1561  0.4824 -0.0587
  875loPI   C5A13995  13.251   3.616   8.140 -0.1609 -0.3667 -0.0429
  875loPI   C6A13996  13.665   3.660   8.375 -0.1978  0.2980  0.3209
  875loPI   C1B13997  13.709   3.709   6.276 -0.1510  0.0540 -0.1578
  875loPI   C2B13998  13.694   3.727   6.682  0.1008  0.0123 -0.1518
  875loPI   C3B13999  13.676   3.723   7.134 -0.0355 -0.0244 -0.1507
  875loPI   C4B14000  13.720   3.766   7.592  0.2039  0.0478  0.1312
  876loPI    C114001   3.624  11.460   5.840  0.0088  0.0358 -0.0326
  876loPI    C214002   3.859  11.554   5.531  0.0180 -0.0126 -0.0405
  876loPI    C314003   3.768  11.172   5.603  0.0174 -0.0017  0.0177
  876loPI   PO414004   3.504  11.670   5.883  0.2715  0.1451 -0.1160
  876loPI   GL114005   3.222  11.787   6.213  0.3159  0.1092 -0.3819
  876loPI   GL214006   3.285  12.113   6.436  0.0354  0.0806  0.0276
  876loPI   C1A14007   2.899  11.856   6.560 -0.0261  0.3491  0.0534
  876loPI   C2A14008   2.784  11.819   6.986 -0.0782 -0.2084 -0.0335
  876loPI   C3A14009   2.540  11.723   7.303  0.0176  0.1696 -0.0856
  876loPI   C4A14010   2.376  11.581   7.596 -0.0082  0.3356  0.2467
  876loPI   C5A14011   2.452  11.556   7.984  0.0018 -0.1174  0.0622
  876loPI   C6A14012   2.485  11.429   8.410  0.1441 -0.0662 -0.0527
  876loPI   C1B14013   3.293  12.068   6.963  0.0648  0.2462 -0.0141
  876loPI   C2B14014   3.531  11.980   7.434 -0.0910  0.2971  0.0105
  876loPI   C3B14015   3.466  12.160   7.816  0.2850 -0.0187 -0.1991
  876loPI   C4B14016   3.610  12.147   8.231  0.1509 -0.0690 -0.1264
  877loPI    C114017   6.926   2.890   5.268  0.0697  0.0373  0.1369
  877loPI    C214018   7.170   2.687   5.025  0.0315  0.3055 -0.1321
  877loPI    C314019   6.791   2.754   4.918 -0.1541 -0.0646  0.2609
  877loPI   PO414020   6.955   2.806   5.453  0.0953  0.1425 -0.0240
  877loPI   GL114021   7.065   3.050   5.773 -0.1372  0.1930  0.0660
  877loPI   GL214022   7.112   3.282   5.725 -0.6846  0.3739  0.0924
  877loPI   C1A14023   6.948   2.943   6.200  0.1405 -0.1354  0.0772
  877loPI   C2A14024   7.008   3.043   6.619  0.0858 -0.3887  0.1869
  877loPI   C3A14025   6.961   2.941   7.107  0.2259  0.2286 -0.1023
  877loPI   C4A14026   6.979   2.968   7.475 -0.2253  0.1454 -0.0331
  877loPI   C5A14027   6.591   3.093   7.810 -0.1401  0.0839  0.0499
  877loPI   C6A14028   6.588   3.357   8.135  0.3556  0.0696  0.0854
  877loPI   C1B14029   7.297   3.322   6.197 -0.2976  0.1153  0.0077
  877loPI   C2B14030   7.408   3.351   6.565 -0.1300  0.0560 -0.0869
  877loPI   C3B14031   7.444   3.225   6.987  0.0990 -0.0665  0.1395
  877loPI   C4B14032   7.430   3.222   7.406  0.1027  0.0622  0.0533
  878loPI    C114033  16.452  10.674   5.407  0.1487  0.0858  0.0644
  878loPI    C214034  16.674  10.523   5.110 -0.0720  0.2058 -0.1663
  878loPI    C314035  16.851  10.696   5.425  0.1763 -0.2729 -0.0333
  878loPI   PO414036  16.221  10.539   5.533 -0.0811  0.4918  0.0480
  878loPI   GL114037  16.244  10.456   5.921 -0.1076 -0.0168 -0.5455
  878loPI   GL214038  16.114  10.715   6.069  0.0295 -0.0250 -0.0254
  878loPI   C1A14039  16.155  10.275   6.225 -0.0097  0.1095 -0.1430
  878loPI   C2A14040  16.263  10.371   6.616 -0.2831 -0.0325  0.0834
  878loPI   C3A14041  16.237  10.418   7.041  0.0704  0.1095  0.0275
  878loPI   C4A14042  16.189  10.517   7.501  0.0429  0.1524  0.0695
  878loPI   C5A14043  16.201  10.504   7.947 -0.0812 -0.0197 -0.0548
  878loPI   C6A14044  16.556  10.457   8.288 -0.0738 -0.2080  0.0979
  878loPI   C1B14045  16.159  10.829   6.385  0.0601 -0.0088  0.0265
  878loPI   C2B14046  16.186  10.880   6.856  0.0206 -0.3289 -0.0169
  878loPI   C3B14047  16.083  10.917   7.233 -0.0744  0.0903  0.0516
  878loPI   C4B14048  16.063  11.027   7.677  0.1003  0.2177 -0.1831
  879loPI    C114049  14.230   9.668   5.268 -0.0779  0.0685  0.0046
  879loPI    C214050  14.006   9.943   5.081  0.2461  0.3091 -0.0388
  879loPI    C314051  14.097   9.600   4.896 -0.0364  0.2332 -0.0416
  879loPI   PO414052  14.222   9.819   5.602  0.1822 -0.0201  0.1677
  879loPI   GL114053  14.327   9.620   5.884  0.4374  0.0910  0.1876
  879loPI   GL214054  14.536   9.490   6.044  0.3150 -0.0215  0.2441
  879loPI   C1A14055  14.175   9.237   6.193  0.4720  0.0389 -0.2023
  879loPI   C2A14056  14.163   9.250   6.582 -0.0327 -0.3334  0.1072
  879loPI   C3A14057  14.120   9.390   7.003 -0.0126  0.0258 -0.0228
  879loPI   C4A14058  14.222   9.331   7.371  0.3022  0.0011 -0.0890
  879loPI   C5A14059  14.170   9.451   7.819  0.0376  0.0453  0.1076
  879loPI   C6A14060  13.919   9.380   8.103 -0.2279 -0.1317  0.0797
  879loPI   C1B14061  14.558   9.626   6.479  0.2326  0.1406 -0.0972
  879loPI   C2B14062  14.573   9.625   6.953  0.1923 -0.1671  0.3474
  879loPI   C3B14063  14.544   9.704   7.457  0.0447  0.0427  0.1325
  879loPI   C4B14064  14.588   9.826   7.810  0.0123  0.1457  0.3675
  880loPI    C114065   9.118   8.401   5.365 -0.2024 -0.1285 -0.0249
  880loPI    C214066   8.909   8.298   5.040 -0.0026  0.0788 -0.2226
  880loPI    C314067   9.283   8.433   5.002  0.1670 -0.2759  0.1255
  880loPI   PO414068   9.085   8.236   5.563  0.1462  0.0542 -0.0894
  880loPI   GL114069   9.125   8.057   6.038  0.0308 -0.0833 -0.0075
  880loPI   GL214070   8.858   7.994   6.106  0.2993  0.0736 -0.0427
  880loPI   C1A14071   9.319   8.138   6.295  0.0887 -0.3755 -0.4018
  880loPI   C2A14072   9.464   8.381   6.608  0.4217  0.1179 -0.1444
  880loPI   C3A14073   9.399   8.427   6.958  0.2133 -0.3063 -0.0740
  880loPI   C4A14074   9.386   8.518   7.385 -0.2657  0.1947  0.2640
  880loPI   C5A14075   9.451   8.439   7.808 -0.1880  0.0172 -0.3946
  880loPI   C6A14076   9.429   8.647   8.250 -0.2817 -0.0601 -0.0749
  880loPI   C1B14077   8.959   7.878   6.506 -0.0924 -0.3686  0.1193
  880loPI   C2B14078   9.001   8.048   6.832 -0.2848 -0.1104  0.3360
  880loPI   C3B14079   8.977   8.220   7.133 -0.0061 -0.1681 -0.0111
  880loPI   C4B14080   9.034   8.229   7.564  0.0769  0.2142  0.2253
  881loPI    C114081   2.540   1.448   5.459 -0.0615 -0.0965 -0.1783
  881loPI    C214082   2.541   1.129   5.218 -0.1765 -0.0732 -0.2104
  881loPI    C314083   2.829   1.404   5.186 -0.0062 -0.2359 -0.0983
  881loPI   PO414084   2.434   1.350   5.672  0.2600  0.2676 -0.3271
  881loPI   GL114085   2.694   1.272   6.030 -0.4371  0.1491  0.1637
  881loPI   GL214086   2.558   1.097   6.123  0.0606  0.1011 -0.1242
  881loPI   C1A14087   2.694   1.387   6.531  0.2292 -0.1168 -0.1201
  881loPI   C2A14088   2.674   1.348   6.922 -0.0187  0.0389 -0.0470
  881loPI   C3A14089   2.780   1.359   7.401  0.1959  0.1255 -0.1281
  881loPI   C4A14090   2.822   1.276   7.902 -0.0350 -0.1120 -0.2031
  881loPI   C5A14091   2.999   1.129   8.288 -0.2023 -0.0216  0.0926
  881loPI   C6A14092   3.421   1.149   8.463 -0.0623 -0.1660  0.2600
  881loPI   C1B14093   2.262   1.035   6.392 -0.5220  0.0125 -0.0717
  881loPI   C2B14094   2.222   0.987   6.801 -0.0501 -0.1563 -0.1138
  881loPI   C3B14095   2.370   1.050   7.182  0.3843 -0.0120 -0.2065
  881loPI   C4B14096   2.308   1.041   7.627  0.0906  0.3770 -0.1040
  882loPI    C114097   5.015   0.410   5.310  0.3037  0.1644 -0.0750
  882loPI    C214098   4.752   0.667   5.152  0.0558 -0.1975 -0.2650
  882loPI    C314099   5.022   0.489   4.918  0.2234 -0.1172 -0.1350
  882loPI   PO414100   5.032   0.573   5.555 -0.0659 -0.1026 -0.1066
  882loPI   GL114101   4.715   0.641   5.888  0.2772  0.0687 -0.2171
  882loPI   GL214102   4.867   0.887   5.973  0.1669 -0.2855 -0.2794
  882loPI   C1A14103   4.583   0.583   6.273  0.1637 -0.1495 -0.1596
  882loPI   C2A14104   4.663   0.578   6.794  0.1021  0.0298  0.0427
  882loPI   C3A14105   4.574   0.560   7.241 -0.1572  0.0003  0.0033
  882loPI   C4A14106   4.712   0.503   7.724  0.0130  0.0601 -0.1483
  882loPI   C5A14107   4.581   0.609   8.118 -0.2307  0.0435 -0.0236
  882loPI   C6A14108   4.382   0.393   8.494 -0.2571  0.0586  0.0071
  882loPI   C1B14109   4.996   0.777   6.464  0.1335  0.1870 -0.0387
  882loPI   C2B14110   5.047   0.880   6.838  0.1166  0.0554 -0.0948
  882loPI   C3B14111   4.988   0.882   7.206 -0.0544 -0.2871 -0.0255
  882loPI   C4B14112   5.047   0.913   7.660  0.0738  0.2390 -0.1022
  883loPI    C114113  14.919  15.864   5.139 -0.1883  0.0776 -0.1581
  883loPI    C214114  15.278  16.035   5.090 -0.2416  0.2288 -0.0277
  883loPI    C314115  15.022  16.016   4.783 -0.1158  0.1048 -0.1258
  883loPI   PO414116  14.906  16.030   5.397  0.1052  0.1479  0.1166
  883loPI   GL114117  15.022  15.883   5.805 -0.2796  0.2567 -0.0070
  883loPI   GL214118  14.671  15.856   5.828  0.2052 -0.2620 -0.0683
  883loPI   C1A14119  14.943  15.837   6.199 -0.1351 -0.1726 -0.0375
  883loPI   C2A14120  14.985  15.737   6.626  0.0725 -0.3020 -0.0738
  883loPI   C3A14121  14.880  15.861   7.068 -0.2212  0.0657 -0.0851
  883loPI   C4A14122  14.918  15.731   7.424 -0.0917 -0.0501  0.1777
  883loPI   C5A14123  14.929  15.706   7.844 -0.0435 -0.3757 -0.0121
  883loPI   C6A14124  14.914  15.832   8.242 -0.1570 -0.4251 -0.2004
  883loPI   C1B14125  14.423  15.954   6.188 -0.1900  0.2547  0.1927
  883loPI   C2B14126  14.518  16.046   6.569 -0.0512 -0.0979 -0.1095
  883loPI   C3B14127  14.402  15.911   7.007 -0.1527 -0.0746  0.1054
  883loPI   C4B14128  14.424  15.920   7.389  0.1526  0.1902  0.1302
  884loPI    C114129   4.278   1.255   5.297  0.1887  0.3174  0.0579
  884loPI    C214130   4.189   1.300   4.910  0.1880  0.0929  0.0308
  884loPI    C314131   4.450   1.019   5.024 -0.0301 -0.0359  0.2196
  884loPI   PO414132   4.115   1.312   5.515 -0.2235 -0.0643 -0.0995
  884loPI   GL114133   4.206   1.377   5.958  0.2375 -0.0324 -0.0364
  884loPI   GL214134   3.882   1.280   6.055  0.0419  0.1597  0.0468
  884loPI   C1A14135   4.439   1.551   6.299 -0.0626 -0.0482  0.4042
  884loPI   C2A14136   4.430   1.619   6.718 -0.0240 -0.1043 -0.0209
  884loPI   C3A14137   4.482   1.558   7.132  0.2337 -0.0633  0.0437
  884loPI   C4A14138   4.446   1.584   7.536 -0.4159 -0.1540 -0.3693
  884loPI   C5A14139   4.568   1.538   7.942 -0.3642 -0.2651  0.2136
  884loPI   C6A14140   4.549   1.782   8.249  0.0347 -0.0735  0.0052
  884loPI   C1B14141   4.058   1.281   6.499  0.3312 -0.1393 -0.3083
  884loPI   C2B14142   4.081   1.277   7.000  0.3825 -0.1413  0.1111
  884loPI   C3B14143   4.005   1.368   7.383 -0.1386  0.1125 -0.0201
  884loPI   C4B14144   4.152   1.288   7.862 -0.0987 -0.0885 -0.0107
  885loPI    C114145   0.703  12.407   5.663 -0.1256 -0.2087 -0.0582
  885loPI    C214146   0.601  12.143   5.380  0.3679 -0.2246 -0.2307
  885loPI    C314147   0.656  12.528   5.285 -0.0731 -0.1064 -0.0325
  885loPI   PO414148   0.751  12.311   5.887  0.4156  0.1021 -0.1713
  885loPI   GL114149   0.878  12.385   6.414 -0.2386 -0.2189  0.0855
  885loPI   GL214150   0.742  12.087   6.336  0.1825 -0.4171  0.2458
  885loPI   C1A14151   0.966  12.635   6.770 -0.2478 -0.1753  0.2873
  885loPI   C2A14152   0.921  12.708   7.187  0.3197  0.0784 -0.0270
  885loPI   C3A14153   1.106  12.821   7.528  0.0418 -0.0277 -0.0147
  885loPI   C4A14154   1.113  12.957   7.888 -0.0132  0.0763  0.1966
  885loPI   C5A14155   0.828  12.788   8.280  0.0699  0.2243  0.2005
  885loPI   C6A14156   0.602  12.469   8.394 -0.1922 -0.0502 -0.0429
  885loPI   C1B14157   0.607  12.187   6.717 -0.3162  0.1586 -0.1099
  885loPI   C2B14158   0.560  12.357   7.059  0.0114  0.0263 -0.0563
  885loPI   C3B14159   0.602  12.397   7.488  0.2850 -0.1782 -0.2575
  885loPI   C4B14160   0.878  12.486   7.766  0.0413 -0.2547  0.0206
  886loPI    C114161  10.909   7.088   4.869  0.0311 -0.0216  0.0828
  886loPI    C214162  11.240   6.868   4.819  0.1759  0.1132  0.4152
  886loPI    C314163  11.258   7.266   4.788 -0.1000  0.0863 -0.2575
  886loPI   PO414164  10.871   6.987   5.180 -0.0298 -0.1814  0.0353
  886loPI   GL114165  10.882   7.137   5.590 -0.2296  0.2169 -0.1187
  886loPI   GL214166  10.563   7.223   5.790  0.0361  0.1007  0.3788
  886loPI   C1A14167  10.975   7.112   6.074 -0.0949  0.1017 -0.1258
  886loPI   C2A14168  10.825   7.178   6.531 -0.1804  0.0756  0.0336
  886loPI   C3A14169  10.876   7.362   6.948  0.0237 -0.0568  0.2994
  886loPI   C4A14170  10.822   7.355   7.385  0.0699  0.0821  0.0512
  886loPI   C5A14171  10.869   7.439   7.822 -0.0853  0.2072 -0.0338
  886loPI   C6A14172  11.111   7.658   8.033 -0.0466  0.0172 -0.1207
  886loPI   C1B14173  10.473   7.432   6.170  0.2435 -0.1178  0.2377
  886loPI   C2B14174  10.327   7.444   6.635 -0.3055 -0.1553  0.0630
  886loPI   C3B14175  10.290   7.507   7.078  0.0089  0.0865 -0.0275
  886loPI   C4B14176  10.380   7.565   7.511 -0.2761 -0.1738 -0.1843
  887loPI    C114177  12.123   3.085   5.402 -0.0225  0.0678 -0.0817
  887loPI    C214178  12.224   2.817   5.123  0.0515 -0.0459  0.0531
  887loPI    C314179  12.339   3.198   5.085  0.0212 -0.0511 -0.0948
  887loPI   PO414180  12.148   2.956   5.620 -0.3008  0.0835 -0.0532
  887loPI   GL114181  12.089   2.720   5.939  0.0116 -0.0509 -0.2531
  887loPI   GL214182  11.878   2.892   6.028 -0.2250  0.0015 -0.1298
  887loPI   C1A14183  12.455   2.735   6.228 -0.0866 -0.0810  0.2645
  887loPI   C2A14184  12.453   2.696   6.779 -0.1475  0.2014  0.1034
  887loPI   C3A14185  12.422   2.808   7.226  0.1335 -0.2580  0.0391
  887loPI   C4A14186  12.487   2.805   7.746  0.3995 -0.0161 -0.0042
  887loPI   C5A14187  12.495   2.967   8.182 -0.0910 -0.0405  0.2318
  887loPI   C6A14188  12.874   2.922   8.433  0.3106 -0.2279  0.2341
  887loPI   C1B14189  11.999   2.890   6.452  0.1847 -0.1285  0.1207
  887loPI   C2B14190  11.948   2.936   6.934 -0.1315 -0.1375  0.0116
  887loPI   C3B14191  12.032   3.074   7.377  0.2644  0.2579 -0.2218
  887loPI   C4B14192  11.958   3.027   7.774 -0.0399 -0.2205  0.1380
  888loPI    C114193   5.623   3.207   5.474  0.0609 -0.1001  0.0483
  888loPI    C214194   5.989   3.149   5.326  0.0365 -0.0621 -0.0277
  888loPI    C314195   5.712   2.862   5.293 -0.0593  0.0611 -0.3287
  888loPI   PO414196   5.595   3.235   5.720 -0.1000 -0.0621  0.2668
  888loPI   GL114197   5.568   3.025   6.091 -0.1151 -0.0253  0.0124
  888loPI   GL214198   5.315   3.271   6.105 -0.1275  0.0055 -0.0874
  888loPI   C1A14199   5.614   3.050   6.530 -0.1617 -0.0142  0.1316
  888loPI   C2A14200   5.676   3.028   6.955  0.0428 -0.3426  0.0873
  888loPI   C3A14201   5.737   3.071   7.395 -0.4257  0.1534  0.0254
  888loPI   C4A14202   5.746   2.979   7.745 -0.2722  0.0123 -0.2484
  888loPI   C5A14203   5.613   3.031   8.107 -0.4329  0.1808 -0.0585
  888loPI   C6A14204   5.682   2.841   8.469  0.3489 -0.1518 -0.1473
  888loPI   C1B14205   5.165   3.267   6.551  0.0310  0.0335  0.2234
  888loPI   C2B14206   5.171   3.208   7.033  0.0679 -0.0449  0.0097
  888loPI   C3B14207   5.255   3.187   7.530  0.2330  0.0948  0.3016
  888loPI   C4B14208   5.198   3.134   7.926  0.1132 -0.0781 -0.0048
  889loPI    C114209   2.225   6.699   5.778 -0.2261 -0.0626 -0.1064
  889loPI    C214210   2.425   6.439   5.549 -0.1436 -0.0767 -0.0189
  889loPI    C314211   2.165   6.693   5.382 -0.1221 -0.1216 -0.1217
  889loPI   PO414212   2.476   6.680   5.998  0.2934  0.0579 -0.4776
  889loPI   GL114213   2.746   6.446   6.331 -0.4014  0.2419  0.0216
  889loPI   GL214214   2.497   6.398   6.467  0.0208 -0.0323 -0.1786
  889loPI   C1A14215   2.914   6.553   6.722  0.2611  0.1797 -0.0746
  889loPI   C2A14216   2.868   6.589   7.225 -0.2916 -0.2323 -0.0862
  889loPI   C3A14217   2.907   6.659   7.647 -0.3235 -0.0407 -0.0980
  889loPI   C4A14218   2.929   6.560   8.062  0.1535 -0.1679  0.0720
  889loPI   C5A14219   2.909   6.651   8.529 -0.1430 -0.0853 -0.1374
  889loPI   C6A14220   3.005   6.585   8.910  0.0818 -0.0849 -0.0582
  889loPI   C1B14221   2.497   6.275   6.990  0.2795  0.1933 -0.0423
  889loPI   C2B14222   2.401   6.309   7.393  0.0954  0.1821  0.1424
  889loPI   C3B14223   2.565   6.245   7.779  0.0328 -0.0044 -0.0629
  889loPI   C4B14224   2.497   6.209   8.203  0.0692  0.0882  0.0929
  890loPI    C114225  12.313  11.560   5.114  0.0062 -0.1093  0.1265
  890loPI    C214226  12.107  11.507   4.775  0.3270  0.0535 -0.1002
  890loPI    C314227  12.160  11.876   4.921  0.2995 -0.0049  0.0593
  890loPI   PO414228  12.204  11.394   5.217  0.1492 -0.0319  0.0401
  890loPI   GL114229  12.219  11.282   5.600 -0.0301  0.1221 -0.0166
  890loPI   GL214230  12.342  11.493   5.719 -0.2619  0.0809  0.1581
  890loPI   C1A14231  12.109  11.137   6.059 -0.2076 -0.1082  0.1935
  890loPI   C2A14232  12.121  11.130   6.504 -0.2148  0.0864  0.4395
  890loPI   C3A14233  12.048  11.245   6.871 -0.0192 -0.1324  0.3865
  890loPI   C4A14234  11.973  11.178   7.217 -0.1559 -0.2844  0.1568
  890loPI   C5A14235  12.022  11.199   7.593 -0.3506  0.1233  0.0984
  890loPI   C6A14236  12.172  11.558   7.955 -0.0606  0.1817 -0.2483
  890loPI   C1B14237  12.398  11.516   6.245 -0.1720 -0.1705 -0.1087
  890loPI   C2B14238  12.474  11.491   6.679 -0.1340 -0.0526 -0.1273
  890loPI   C3B14239  12.436  11.461   7.080 -0.2841 -0.0775 -0.2175
  890loPI   C4B14240  12.510  11.579   7.557  0.0911 -0.1421 -0.0271
  891loPI    C114241   0.791   0.891   5.267  0.2496 -0.1706  0.0788
  891loPI    C214242   0.515   0.619   5.168  0.1727 -0.0357 -0.0816
  891loPI    C314243   0.614   0.907   4.909  0.2818  0.0664  0.0721
  891loPI   PO414244   0.747   1.020   5.491  0.1372  0.2257  0.1072
  891loPI   GL114245   0.601   1.043   5.929  0.0082  0.2711 -0.1515
  891loPI   GL214246   0.838   1.155   6.000 -0.1085  0.0666 -0.1541
  891loPI   C1A14247   0.512   0.694   6.307  0.2621  0.0037  0.0396
  891loPI   C2A14248   0.521   0.723   6.739 -0.5612  0.2039 -0.1900
  891loPI   C3A14249   0.537   0.736   7.084  0.1725  0.0975 -0.0138
  891loPI   C4A14250   0.568   0.773   7.491 -0.0539  0.2965  0.0706
  891loPI   C5A14251   0.507   0.753   8.007  0.0431 -0.2797 -0.3208
  891loPI   C6A14252   0.131   0.866   8.201 -0.0111 -0.1036 -0.1938
  891loPI   C1B14253   0.888   1.058   6.541 -0.1056 -0.3676  0.0316
  891loPI   C2B14254   0.884   1.164   6.961 -0.0978 -0.0966 -0.0489
  891loPI   C3B14255   1.011   1.064   7.367  0.0857  0.5071  0.1322
  891loPI   C4B14256   1.041   1.017   7.747  0.1074  0.0945  0.0367
  892loPI    C114257  16.435   1.955   5.416  0.1069 -0.2999 -0.0925
  892loPI    C214258  16.196   2.005   5.099 -0.0169 -0.1355  0.0247
  892loPI    C314259  16.590   1.962   5.047 -0.0227  0.0035 -0.1450
  892loPI   PO414260  16.357   1.783   5.599 -0.0063 -0.0797 -0.0462
  892loPI   GL114261  16.069   1.826   5.896 -0.1442 -0.0941  0.1617
  892loPI   GL214262  16.166   1.609   6.089 -0.2618  0.1531 -0.0441
  892loPI   C1A14263  16.147   2.165   6.263  0.0761 -0.0517  0.1842
  892loPI   C2A14264  16.105   2.245   6.708  0.1838  0.0382 -0.4343
  892loPI   C3A14265  16.213   2.187   7.126  0.3065  0.1506 -0.2867
  892loPI   C4A14266  16.214   2.132   7.532 -0.1265  0.1993 -0.0843
  892loPI   C5A14267  16.126   2.132   8.069 -0.1450  0.1386 -0.1641
  892loPI   C6A14268  16.150   2.158   8.462 -0.0440 -0.1295 -0.3187
  892loPI   C1B14269  16.197   1.692   6.486  0.0469  0.0606  0.0732
  892loPI   C2B14270  16.147   1.753   6.873  0.1941 -0.0871  0.1741
  892loPI   C3B14271  16.163   1.693   7.277  0.1529  0.1255 -0.2161
  892loPI   C4B14272  16.238   1.666   7.682 -0.0380  0.2716 -0.5431
  893loPI    C114273   4.827   5.173   5.353  0.1576  0.4099  0.0480
  893loPI    C214274   5.064   5.319   5.065 -0.0628  0.2901 -0.1982
  893loPI    C314275   4.694   5.195   4.976 -0.0647  0.0692  0.1024
  893loPI   PO414276   4.938   5.287   5.529  0.1827  0.1207 -0.5300
  893loPI   GL114277   5.191   5.224   5.851  0.0800 -0.0585 -0.4399
  893loPI   GL214278   4.756   5.175   6.008 -0.0577 -0.3700 -0.1773
  893loPI   C1A14279   5.337   5.171   6.295  0.1691  0.1092 -0.1377
  893loPI   C2A14280   5.350   5.150   6.728 -0.0595  0.2874 -0.1015
  893loPI   C3A14281   5.374   5.136   7.152 -0.0022 -0.0024  0.1144
  893loPI   C4A14282   5.406   4.971   7.577  0.0204 -0.3318 -0.0309
  893loPI   C5A14283   5.447   4.991   7.959 -0.0415  0.0202 -0.0826
  893loPI   C6A14284   5.558   5.287   8.346 -0.0011 -0.0124  0.0151
  893loPI   C1B14285   4.861   5.323   6.439  0.1445 -0.1939  0.0178
  893loPI   C2B14286   4.864   5.219   6.932 -0.0271  0.2001  0.2613
  893loPI   C3B14287   4.953   5.321   7.300 -0.4989 -0.1042 -0.0440
  893loPI   C4B14288   4.939   5.221   7.696  0.0928  0.3362  0.1586
  894loPI    C114289   4.014   9.368   5.494 -0.2283 -0.1752  0.0224
  894loPI    C214290   4.412   9.375   5.457 -0.2120 -0.0757  0.2014
  894loPI    C314291   4.182   9.559   5.186 -0.1446 -0.2749  0.0060
  894loPI   PO414292   3.963   9.437   5.798 -0.2165  0.1855  0.0770
  894loPI   GL114293   3.797   9.582   6.210  0.0535 -0.0878  0.3875
  894loPI   GL214294   4.044   9.368   6.253 -0.2300  0.2654 -0.1826
  894loPI   C1A14295   3.727   9.409   6.662  0.3028  0.0117 -0.0289
  894loPI   C2A14296   3.537   9.173   6.954 -0.0782 -0.0944  0.2196
  894loPI   C3A14297   3.439   9.387   7.328  0.0801  0.0604  0.1989
  894loPI   C4A14298   3.506   9.586   7.669  0.2149 -0.4522 -0.2534
  894loPI   C5A14299   3.524   9.779   8.133 -0.3715 -0.1605  0.0805
  894loPI   C6A14300   3.306  10.091   8.161  0.0127 -0.2156  0.2287
  894loPI   C1B14301   4.046   9.017   6.572  0.3800 -0.0922  0.1298
  894loPI   C2B14302   3.957   8.870   7.027  0.0497 -0.0384 -0.0552
  894loPI   C3B14303   3.880   8.615   7.353  0.1237  0.0501 -0.0897
  894loPI   C4B14304   4.026   8.737   7.697  0.1266  0.2031  0.0211
  895loPI    C114305   1.738   0.218   5.600 -0.0480 -0.2108  0.1106
  895loPI    C214306   1.352   0.318   5.631  0.0004  0.0034  0.0404
  895loPI    C314307   1.490   0.158   5.291 -0.0298 -0.0921  0.0726
  895loPI   PO414308   1.804   0.182   5.797 -0.2146 -0.0885  0.1237
  895loPI   GL114309   2.159   0.265   6.091  0.1017  0.2813  0.1420
  895loPI   GL214310   1.903   0.287   6.253  0.1834 -0.0378 -0.1190
  895loPI   C1A14311   2.087  -0.207   6.301  0.1231  0.0751 -0.0875
  895loPI   C2A14312   2.057  -0.280   6.689  0.0411 -0.0440  0.1043
  895loPI   C3A14313   2.019  -0.301   7.198  0.1658  0.0105  0.0883
  895loPI   C4A14314   2.032  -0.352   7.666 -0.0998  0.1029  0.0517
  895loPI   C5A14315   2.145  -0.351   8.007 -0.0678  0.0426 -0.2231
  895loPI   C6A14316   1.931  -0.127   8.415  0.1188 -0.0313  0.2046
  895loPI   C1B14317   2.026   0.199   6.684 -0.1964 -0.0478  0.2217
  895loPI   C2B14318   1.986   0.203   7.035 -0.2105  0.3118  0.1188
  895loPI   C3B14319   2.002   0.139   7.568  0.0979  0.1528 -0.0449
  895loPI   C4B14320   2.042   0.174   8.028 -0.0837  0.1104 -0.0292
  896loPI    C114321   7.942   1.193   5.265  0.0462  0.3146  0.1860
  896loPI    C214322   7.697   1.342   4.986  0.0621  0.2199  0.1209
  896loPI    C314323   8.023   1.137   4.877 -0.1219 -0.1267  0.2090
  896loPI   PO414324   7.897   1.277   5.461  0.0387  0.0792  0.1547
  896loPI   GL114325   8.121   1.242   5.876  0.3562  0.2285  0.2540
  896loPI   GL214326   8.058   1.012   5.982  0.2298 -0.2844  0.1030
  896loPI   C1A14327   8.035   1.564   6.193 -0.2466  0.0605 -0.0199
  896loPI   C2A14328   8.107   1.572   6.629  0.3002 -0.0284 -0.0464
  896loPI   C3A14329   8.154   1.582   7.158 -0.1318 -0.3025 -0.3318
  896loPI   C4A14330   8.144   1.559   7.567 -0.0708  0.0555  0.3074
  896loPI   C5A14331   8.313   1.740   8.008  0.1042  0.3814  0.1261
  896loPI   C6A14332   8.581   1.736   8.369 -0.0532 -0.1332  0.0593
  896loPI   C1B14333   8.107   1.076   6.433  0.1406  0.2098  0.2874
  896loPI   C2B14334   8.110   1.060   6.837 -0.0990 -0.3112 -0.1191
  896loPI   C3B14335   8.292   1.092   7.234  0.0034 -0.1237  0.1206
  896loPI   C4B14336   8.283   1.081   7.642  0.0726 -0.0408 -0.1773
  897loPI    C114337  16.640  12.005   5.700  0.2028  0.0769  0.3152
  897loPI    C214338  16.594  11.768   5.381  0.1752  0.1079  0.2960
  897loPI    C314339  16.735  12.139   5.335  0.1155  0.1327  0.3129
  897loPI   PO414340  16.450  12.045   5.931  0.0083  0.1631  0.2098
  897loPI   GL114341  16.462  12.075   6.257 -0.1283  0.1190 -0.2987
  897loPI   GL214342  16.443  11.732   6.345 -0.0342  0.1970 -0.3832
  897loPI   C1A14343  16.377  12.305   6.716 -0.2100 -0.0279 -0.0941
  897loPI   C2A14344  16.397  12.279   7.189  0.0334  0.0533  0.1387
  897loPI   C3A14345  16.346  12.341   7.577 -0.1747  0.1850 -0.0221
  897loPI   C4A14346  16.236  12.349   8.087  0.0242  0.0981  0.2484
  897loPI   C5A14347  16.165  12.261   8.428  0.0088  0.1108 -0.1545
  897loPI   C6A14348  15.942  12.164   8.680 -0.3134  0.3034  0.0649
  897loPI   C1B14349  16.449  11.835   6.735 -0.2100 -0.1451  0.1281
  897loPI   C2B14350  16.447  11.735   7.122  0.1535 -0.0151  0.1482
  897loPI   C3B14351  16.413  11.831   7.526  0.0738  0.0821  0.2252
  897loPI   C4B14352  16.380  11.910   7.969  0.0073  0.2189 -0.1426
  898loPI    C114353   6.847   5.111   5.275  0.0217 -0.0296 -0.2359
  898loPI    C214354   6.624   5.277   4.988  0.0299  0.1233 -0.1550
  898loPI    C314355   6.651   4.879   5.015 -0.0779  0.1065 -0.2834
  898loPI   PO414356   6.813   5.275   5.460 -0.0149  0.1213 -0.1450
  898loPI   GL114357   6.913   5.181   5.897  0.0479  0.2594 -0.3336
  898loPI   GL214358   7.150   5.390   6.005  0.1086 -0.2129  0.0046
  898loPI   C1A14359   6.658   5.031   6.286 -0.0183  0.2352 -0.0320
  898loPI   C2A14360   6.708   5.082   6.719  0.0796 -0.1138  0.0505
  898loPI   C3A14361   6.628   4.930   7.127 -0.0248 -0.3486  0.0216
  898loPI   C4A14362   6.712   4.970   7.596 -0.1436  0.0651  0.0944
  898loPI   C5A14363   6.641   5.048   7.983  0.0521  0.2241 -0.0115
  898loPI   C6A14364   6.405   5.288   8.254  0.0132  0.2541  0.0825
  898loPI   C1B14365   7.036   5.283   6.441  0.0565 -0.2536  0.0128
  898loPI   C2B14366   7.097   5.257   6.993 -0.1271  0.1602 -0.3256
  898loPI   C3B14367   7.095   5.349   7.438 -0.1663  0.0937 -0.1948
  898loPI   C4B14368   7.134   5.386   7.797  0.1775  0.0081  0.1648
  899loPI    C114369  17.825   5.323   5.699  0.0929 -0.1856  0.0331
  899loPI    C214370  17.914   5.603   5.428  0.1139 -0.1339  0.0934
  899loPI    C314371  17.850   5.226   5.312 -0.1003 -0.0670 -0.0103
  899loPI   PO414372  17.986   5.462   5.956  0.2644 -0.2032  0.0392
  899loPI   GL114373  17.954   5.436   6.379  0.1647  0.0367  0.0431
  899loPI   GL214374  17.691   5.254   6.292 -0.0350 -0.0136  0.1500
  899loPI   C1A14375  17.899   5.377   6.746 -0.0529  0.1562  0.0819
  899loPI   C2A14376  17.932   5.427   7.056  0.3268  0.1979  0.3859
  899loPI   C3A14377  17.900   5.473   7.456  0.1205 -0.1886  0.1344
  899loPI   C4A14378  17.881   5.339   7.833  0.1484  0.0970 -0.0092
  899loPI   C5A14379  17.978   5.172   8.153 -0.0784 -0.2479 -0.1325
  899loPI   C6A14380  18.379   5.081   8.306  0.0507 -0.3191  0.0844
  899loPI   C1B14381  17.505   5.058   6.681  0.0578  0.0666 -0.0942
  899loPI   C2B14382  17.489   5.181   7.144 -0.2518 -0.0048  0.3390
  899loPI   C3B14383  17.481   5.114   7.559  0.0824  0.1646  0.4458
  899loPI   C4B14384  17.386   5.149   7.974 -0.3197 -0.0007 -0.0262
  900loPI    C114385   7.992   0.315   5.327 -0.2721  0.0730  0.1297
  900loPI    C214386   7.627   0.351   5.168 -0.1919 -0.0875 -0.0960
  900loPI    C314387   7.950   0.371   4.933 -0.0608 -0.0850  0.0829
  900loPI   PO414388   7.902   0.279   5.553  0.1657 -0.1706  0.1627
  900loPI   GL114389   7.906   0.400   5.899  0.1826  0.2428 -0.0106
  900loPI   GL214390   7.724   0.152   6.005 -0.1824  0.2491  0.1927
  900loPI   C1A14391   8.116   0.604   6.245  0.1656  0.3435  0.1128
  900loPI   C2A14392   8.210   0.562   6.588  0.3086 -0.1095 -0.1532
  900loPI   C3A14393   8.244   0.524   6.910  0.0651 -0.0478 -0.2406
  900loPI   C4A14394   8.309   0.570   7.317 -0.0395  0.2517 -0.1884
  900loPI   C5A14395   8.388   0.561   7.827 -0.1108  0.0122  0.0122
  900loPI   C6A14396   8.467   0.845   8.173  0.1749  0.0559 -0.3130
  900loPI   C1B14397   7.828   0.274   6.382  0.2081 -0.0051  0.1671
  900loPI   C2B14398   7.830   0.269   6.851  0.2107 -0.2638  0.0521
  900loPI   C3B14399   7.909   0.322   7.290  0.0384 -0.1960 -0.0285
  900loPI   C4B14400   7.972   0.252   7.768 -0.1662 -0.0197 -0.0223
  901loPI    C114401   5.622  15.703   5.517  0.0350  0.1518  0.1153
  901loPI    C214402   5.822  15.835   5.196  0.1076 -0.1765  0.0217
  901loPI    C314403   5.427  15.775   5.175  0.0615  0.0912  0.0872
  901loPI   PO414404   5.891  15.743   5.676 -0.0982  0.0419  0.0620
  901loPI   GL114405   6.088  15.960   5.975 -0.1463 -0.1632  0.2085
  901loPI   GL214406   6.177  16.266   6.011  0.1056  0.0488  0.0286
  901loPI   C1A14407   6.265  15.867   6.420 -0.1164  0.2697  0.0864
  901loPI   C2A14408   6.333  15.825   6.800  0.1675  0.2203 -0.0462
  901loPI   C3A14409   6.320  15.762   7.300  0.0435 -0.3666  0.2341
  901loPI   C4A14410   6.367  15.850   7.800  0.4651 -0.2761 -0.0349
  901loPI   C5A14411   6.253  16.298   8.068  0.0392 -0.3190 -0.2805
  901loPI   C6A14412   6.139  16.507   8.439 -0.3390 -0.1805  0.0578
  901loPI   C1B14413   6.223  16.417   6.385  0.1269  0.2653  0.1273
  901loPI   C2B14414   6.230  16.314   6.801  0.0246  0.1414  0.0148
  901loPI   C3B14415   6.199  16.311   7.159 -0.0109 -0.1801 -0.2769
  901loPI   C4B14416   6.289  16.430   7.554 -0.3584  0.0051 -0.0626
  902loPI    C114417   8.022   9.527   5.387  0.0278 -0.1443  0.1588
  902loPI    C214418   7.686   9.636   5.199  0.0806 -0.2224  0.0177
  902loPI    C314419   8.041   9.688   5.022  0.1688  0.1361  0.2865
  902loPI   PO414420   8.060   9.680   5.601  0.3064  0.0385  0.3177
  902loPI   GL114421   8.087   9.738   6.092  0.0649  0.2308 -0.0486
  902loPI   GL214422   7.874   9.958   6.209  0.1621 -0.0627 -0.1773
  902loPI   C1A14423   8.254   9.825   6.583  0.3065  0.0957 -0.1876
  902loPI   C2A14424   8.225   9.778   7.046  0.1822 -0.1870  0.3395
  902loPI   C3A14425   8.247   9.902   7.469  0.0211  0.2600 -0.0585
  902loPI   C4A14426   8.139   9.738   7.835 -0.0599 -0.1753  0.0569
  902loPI   C5A14427   8.248   9.696   8.310  0.1531  0.1016 -0.1083
  902loPI   C6A14428   7.973   9.626   8.706  0.1788 -0.0486 -0.0864
  902loPI   C1B14429   7.781   9.990   6.647  0.1116  0.0423 -0.0409
  902loPI   C2B14430   7.753   9.994   7.057  0.2500  0.1427 -0.1244
  902loPI   C3B14431   7.779   9.960   7.541 -0.1288 -0.0167 -0.0715
  902loPI   C4B14432   7.669   9.955   7.942  0.2231 -0.2434  0.2878
  903loPI    C114433   5.523   1.135   5.356 -0.1453  0.1701 -0.1058
  903loPI    C214434   5.655   0.805   5.173  0.0689  0.0936  0.1798
  903loPI    C314435   5.263   0.856   5.234  0.0047  0.0635 -0.1839
  903loPI   PO414436   5.746   1.197   5.549 -0.2514 -0.0365 -0.1244
  903loPI   GL114437   5.838   1.110   5.909  0.1695 -0.1425 -0.4529
  903loPI   GL214438   5.935   0.876   6.105 -0.0738 -0.1841  0.0564
  903loPI   C1A14439   5.826   1.419   6.268 -0.0768  0.1839 -0.0456
  903loPI   C2A14440   5.744   1.437   6.699  0.1678 -0.3102 -0.2282
  903loPI   C3A14441   5.838   1.529   7.093 -0.1372 -0.0910  0.0648
  903loPI   C4A14442   5.839   1.480   7.554 -0.2838 -0.1195  0.0593
  903loPI   C5A14443   5.976   1.481   7.904  0.4342  0.0545 -0.0597
  903loPI   C6A14444   5.792   1.532   8.346 -0.1128 -0.0248  0.0184
  903loPI   C1B14445   5.884   0.857   6.461  0.1509 -0.4241  0.2812
  903loPI   C2B14446   5.926   1.002   6.820  0.0510 -0.2645  0.4126
  903loPI   C3B14447   5.865   1.031   7.235  0.0391 -0.1208  0.2229
  903loPI   C4B14448   6.043   1.038   7.597  0.1907 -0.3072  0.1694
  904loPI    C114449  11.219   1.694   5.325 -0.0493 -0.2062  0.1096
  904loPI    C214450  11.430   1.980   5.143 -0.2432  0.0647  0.3029
  904loPI    C314451  11.221   1.716   4.926  0.1003 -0.0610  0.1178
  904loPI   PO414452  11.047   1.737   5.556  0.0847  0.1125  0.0612
  904loPI   GL114453  11.074   1.845   5.985  0.0569 -0.0070  0.3760
  904loPI   GL214454  11.203   1.476   5.929  0.4468  0.0786 -0.0146
  904loPI   C1A14455  11.159   1.752   6.385  0.0148  0.1229 -0.2402
  904loPI   C2A14456  11.241   1.814   6.841 -0.2855  0.0539  0.0836
  904loPI   C3A14457  11.333   1.854   7.309 -0.1455 -0.1324 -0.1180
  904loPI   C4A14458  11.325   1.899   7.717  0.0813 -0.2782  0.3122
  904loPI   C5A14459  11.209   1.758   8.164 -0.0644 -0.2303 -0.1535
  904loPI   C6A14460  10.921   1.626   8.425  0.1306 -0.1225 -0.2971
  904loPI   C1B14461  11.205   1.208   6.404 -0.3303 -0.2289  0.0374
  904loPI   C2B14462  11.286   1.192   6.866  0.0325  0.0527  0.2520
  904loPI   C3B14463  11.356   1.363   7.313  0.0811  0.0797 -0.0634
  904loPI   C4B14464  11.393   1.309   7.796 -0.2188 -0.3509  0.3508
  905loPI    C114465   0.606   1.928   5.229  0.2239 -0.1759  0.0648
  905loPI    C214466   0.669   1.557   5.093  0.1759 -0.0945 -0.1844
  905loPI    C314467   0.764   1.872   4.866 -0.1229  0.0423 -0.1245
  905loPI   PO414468   0.715   1.966   5.461 -0.1367 -0.1217 -0.1649
  905loPI   GL114469   0.584   2.121   5.768  0.0401 -0.0523 -0.0724
  905loPI   GL214470   0.342   1.843   5.841  0.0534 -0.2324  0.1232
  905loPI   C1A14471   0.854   2.157   6.263 -0.0149 -0.1446  0.1870
  905loPI   C2A14472   0.835   2.147   6.676  0.1183  0.2162 -0.1795
  905loPI   C3A14473   0.791   2.115   7.159  0.0998 -0.0466  0.3288
  905loPI   C4A14474   0.842   2.028   7.573 -0.2780 -0.2081  0.4094
  905loPI   C5A14475   0.823   1.911   7.971  0.1702  0.2155 -0.0945
  905loPI   C6A14476   1.083   1.579   8.099  0.3248 -0.1923 -0.2217
  905loPI   C1B14477   0.424   1.799   6.274 -0.2764  0.0501  0.0003
  905loPI   C2B14478   0.441   1.741   6.735 -0.1905  0.1252  0.1205
  905loPI   C3B14479   0.344   1.770   7.242  0.2360 -0.1163  0.2731
  905loPI   C4B14480   0.435   1.760   7.714 -0.3810 -0.1793 -0.0248
  906loPI    C114481  13.395   3.892   5.153 -0.1317 -0.1897  0.0823
  906loPI    C214482  13.579   4.211   4.996 -0.1906 -0.0444  0.3032
  906loPI    C314483  13.290   4.025   4.791  0.0247 -0.1192  0.0619
  906loPI   PO414484  13.296   3.927   5.354 -0.1353 -0.1591  0.1350
  906loPI   GL114485  13.398   3.967   5.736  0.4257 -0.1937 -0.0590
  906loPI   GL214486  13.609   4.127   5.896 -0.3312  0.1150  0.3096
  906loPI   C1A14487  13.214   3.822   6.131 -0.1215 -0.2685 -0.0472
  906loPI   C2A14488  13.238   3.874   6.629 -0.2764  0.0641 -0.0351
  906loPI   C3A14489  13.213   3.849   7.001  0.1422 -0.0633 -0.2133
  906loPI   C4A14490  13.256   3.927   7.399  0.1161  0.2523 -0.2074
  906loPI   C5A14491  13.192   4.040   7.856  0.2902 -0.0957  0.0145
  906loPI   C6A14492  13.379   4.100   8.316  0.3214  0.0721  0.1308
  906loPI   C1B14493  13.488   4.197   6.321  0.0333 -0.0587  0.0287
  906loPI   C2B14494  13.582   4.191   6.776 -0.0273 -0.0148 -0.0592
  906loPI   C3B14495  13.553   4.245   7.237  0.1180  0.0149 -0.1307
  906loPI   C4B14496  13.639   4.227   7.655  0.4660  0.0978  0.1082
  907loPI    C114497  10.203  15.449   5.588  0.1994 -0.0640 -0.2992
  907loPI    C214498   9.992  15.229   5.330  0.0410 -0.2400 -0.0240
  907loPI    C314499   9.862  15.592   5.436  0.0467 -0.2145 -0.1037
  907loPI   PO414500  10.239  15.240   5.747 -0.0319  0.2026  0.2979
  907loPI   GL114501  10.101  15.293   6.131 -0.2336  0.1936 -0.1166
  907loPI   GL214502  10.417  15.162   6.216  0.3597  0.2389  0.0552
  907loPI   C1A14503   9.990  15.398   6.519 -0.3111 -0.0858  0.1558
  907loPI   C2A14504  10.027  15.323   6.929 -0.4693  0.3871  0.0181
  907loPI   C3A14505  10.062  15.455   7.333 -0.0958  0.3261 -0.1020
  907loPI   C4A14506   9.982  15.381   7.707 -0.2783  0.0315 -0.3994
  907loPI   C5A14507  10.077  15.669   8.051  0.2345  0.3551  0.0885
  907loPI   C6A14508  10.308  15.935   8.456 -0.1102  0.2939  0.1586
  907loPI   C1B14509  10.476  15.184   6.626 -0.3370  0.0621 -0.0936
  907loPI   C2B14510  10.550  15.244   7.050 -0.0536 -0.0315 -0.1472
  907loPI   C3B14511  10.416  15.139   7.401  0.0304 -0.0515  0.2887
  907loPI   C4B14512  10.564  15.097   7.817 -0.0043 -0.0064 -0.1767
  908loPI    C114513   9.880   4.214   5.182  0.1163  0.2328  0.1682
  908loPI    C214514   9.648   4.312   4.871 -0.0601  0.2465  0.3027
  908loPI    C314515  10.010   4.477   4.910  0.2140 -0.2012 -0.2176
  908loPI   PO414516   9.653   4.051   5.356 -0.1434 -0.1658  0.3278
  908loPI   GL114517   9.701   4.018   5.773  0.1077 -0.0091  0.2038
  908loPI   GL214518   9.599   4.275   5.906  0.0487  0.0723  0.2368
  908loPI   C1A14519   9.686   3.931   6.205  0.4161  0.0690 -0.3598
  908loPI   C2A14520   9.599   3.848   6.686 -0.0944 -0.3196  0.1053
  908loPI   C3A14521   9.537   3.929   7.015 -0.0276 -0.0567 -0.1934
  908loPI   C4A14522   9.603   3.898   7.437 -0.0705  0.2080 -0.3210
  908loPI   C5A14523   9.620   3.924   7.956 -0.0165  0.3663  0.1230
  908loPI   C6A14524   9.496   3.793   8.356  0.2951  0.1811 -0.0473
  908loPI   C1B14525   9.518   4.364   6.280 -0.0150  0.0619 -0.0393
  908loPI   C2B14526   9.591   4.399   6.629 -0.1542 -0.2283  0.1586
  908loPI   C3B14527   9.424   4.422   7.017  0.0701  0.3617  0.0886
  908loPI   C4B14528   9.505   4.417   7.369  0.3389  0.1391  0.0862
  909loPI    C114529   7.303  10.002   5.257 -0.0735 -0.0908 -0.1460
  909loPI    C214530   6.976  10.210   5.157 -0.0659 -0.0572 -0.1012
  909loPI    C314531   7.053   9.861   4.978 -0.1194 -0.0587 -0.1214
  909loPI   PO414532   7.330  10.055   5.553 -0.0174 -0.1605 -0.1992
  909loPI   GL114533   7.191  10.212   5.983  0.2975 -0.3480 -0.0158
  909loPI   GL214534   7.070  10.488   6.050 -0.2523 -0.0364  0.2048
  909loPI   C1A14535   7.324  10.189   6.476  0.1537 -0.0438 -0.0756
  909loPI   C2A14536   7.282  10.100   6.964 -0.0658 -0.0907  0.1424
  909loPI   C3A14537   6.972  10.087   7.299 -0.3017 -0.1740 -0.0982
  909loPI   C4A14538   7.027  10.128   7.712  0.2164 -0.1379 -0.0655
  909loPI   C5A14539   7.168   9.813   7.983 -0.3342 -0.0128  0.3376
  909loPI   C6A14540   7.391   9.677   8.323 -0.0011 -0.2134  0.0658
  909loPI   C1B14541   7.221  10.727   6.409 -0.0319 -0.0620 -0.0663
  909loPI   C2B14542   7.103  10.633   6.859  0.2035  0.1268 -0.5928
  909loPI   C3B14543   7.074  10.631   7.211 -0.1216  0.0242 -0.3437
  909loPI   C4B14544   6.993  10.616   7.613  0.1154 -0.2295  0.0553
  910loPI    C114545   8.150  16.854   5.451  0.1589 -0.1934 -0.0399
  910loPI    C214546   8.401  17.004   5.178  0.0013 -0.0661 -0.1166
  910loPI    C314547   8.006  17.026   5.120 -0.0272 -0.4232 -0.0811
  910loPI   PO414548   8.115  16.970   5.749 -0.0765  0.0275  0.0961
  910loPI   GL114549   7.957  17.323   5.944  0.0524  0.2383 -0.1815
  910loPI   GL214550   8.001  17.627   6.128  0.2887 -0.2626 -0.0185
  910loPI   C1A14551   7.976  17.183   6.372  0.1304  0.1972  0.0648
  910loPI   C2A14552   7.960  17.069   6.756  0.0738  0.1730 -0.4183
  910loPI   C3A14553   8.015  17.230   7.068 -0.0784  0.2035 -0.0644
  910loPI   C4A14554   8.124  17.226   7.551  0.2012  0.0486  0.0567
  910loPI   C5A14555   7.805  17.222   8.002  0.2769  0.1636 -0.2039
  910loPI   C6A14556   7.718  17.202   8.476  0.0480 -0.2327 -0.0950
  910loPI   C1B14557   7.869  17.711   6.439 -0.1257  0.2366 -0.3316
  910loPI   C2B14558   7.912  17.669   6.821 -0.1087  0.0964  0.1467
  910loPI   C3B14559   7.895  17.744   7.227 -0.2829  0.3011 -0.1084
  910loPI   C4B14560   8.014  17.735   7.597  0.2582  0.3433 -0.0549
  911loPI    C114561  15.417  12.672   5.204  0.1298  0.0935 -0.0403
  911loPI    C214562  15.694  12.711   4.919  0.0262 -0.2427 -0.1919
  911loPI    C314563  15.335  12.881   4.873  0.1261 -0.0013 -0.0994
  911loPI   PO414564  15.510  12.752   5.455  0.0527 -0.3018 -0.2280
  911loPI   GL114565  15.702  12.808   5.922 -0.0501 -0.0547 -0.0880
  911loPI   GL214566  15.338  12.721   5.926  0.2209 -0.2519 -0.0529
  911loPI   C1A14567  15.915  12.931   6.399 -0.1241  0.3544  0.0541
  911loPI   C2A14568  15.858  13.001   6.903  0.1730 -0.0872 -0.0035
  911loPI   C3A14569  15.863  13.070   7.336 -0.0668  0.6255  0.2035
  911loPI   C4A14570  15.793  13.066   7.808 -0.1275  0.3038 -0.2138
  911loPI   C5A14571  15.855  13.220   8.151  0.1310 -0.0169 -0.2586
  911loPI   C6A14572  15.681  13.015   8.608  0.2722 -0.0578 -0.2025
  911loPI   C1B14573  15.501  12.565   6.355  0.4966  0.2565  0.1127
  911loPI   C2B14574  15.439  12.659   6.766 -0.0446 -0.0365 -0.0411
  911loPI   C3B14575  15.456  12.789   7.168  0.0248  0.1367 -0.1900
  911loPI   C4B14576  15.327  12.750   7.648 -0.0419 -0.0183 -0.0383
  912loPI    C114577  17.311   1.052   5.570 -0.0478 -0.0837 -0.0122
  912loPI    C214578  17.117   0.837   5.294  0.0600  0.0251 -0.1745
  912loPI    C314579  17.490   0.963   5.223  0.1405 -0.0653  0.0793
  912loPI   PO414580  17.134   1.206   5.637  0.1394 -0.0335 -0.1995
  912loPI   GL114581  16.994   1.375   5.936 -0.0365  0.0301 -0.1727
  912loPI   GL214582  16.722   1.512   5.959 -0.1194 -0.1982 -0.2134
  912loPI   C1A14583  17.199   1.212   6.393  0.0313 -0.1374  0.0581
  912loPI   C2A14584  17.144   1.379   6.835 -0.0279  0.1929  0.4964
  912loPI   C3A14585  17.097   1.373   7.360  0.2116 -0.1435 -0.0499
  912loPI   C4A14586  17.176   1.221   7.735  0.2156  0.1033  0.1074
  912loPI   C5A14587  17.218   1.369   8.176 -0.1555  0.1827  0.3417
  912loPI   C6A14588  17.109   1.242   8.579 -0.0571  0.2526  0.0687
  912loPI   C1B14589  16.728   1.451   6.356 -0.0814 -0.1891  0.3803
  912loPI   C2B14590  16.631   1.478   6.714 -0.0645 -0.0918  0.1549
  912loPI   C3B14591  16.668   1.539   7.164  0.0257 -0.1825  0.1210
  912loPI   C4B14592  16.703   1.460   7.670  0.0649  0.0314  0.1498
  913loPI    C114593  12.329   8.845   5.379 -0.4928 -0.2530  0.0567
  913loPI    C214594  12.180   9.111   5.121 -0.1745 -0.2171 -0.0954
  913loPI    C314595  12.215   8.727   5.014 -0.1042 -0.2146 -0.0817
  913loPI   PO414596  12.240   8.910   5.694 -0.1723  0.2949 -0.2625
  913loPI   GL114597  12.125   8.835   6.033  0.1589 -0.1451 -0.0514
  913loPI   GL214598  12.155   8.484   6.013 -0.0376 -0.0734 -0.0946
  913loPI   C1A14599  11.935   8.794   6.380 -0.2249  0.1163  0.2077
  913loPI   C2A14600  11.896   8.876   6.808  0.1059 -0.0393  0.2894
  913loPI   C3A14601  11.958   8.902   7.211 -0.0346 -0.1311  0.0612
  913loPI   C4A14602  12.034   8.943   7.625 -0.0257 -0.0566 -0.1849
  913loPI   C5A14603  12.132   8.866   8.139 -0.3878 -0.1673 -0.1546
  913loPI   C6A14604  12.326   8.832   8.628  0.1232  0.2736 -0.1537
  913loPI   C1B14605  12.399   8.586   6.385 -0.2174  0.1492 -0.0577
  913loPI   C2B14606  12.391   8.664   6.858 -0.2897  0.0754  0.1195
  913loPI   C3B14607  12.453   8.725   7.315 -0.1278 -0.3092 -0.0394
  913loPI   C4B14608  12.471   8.659   7.758 -0.0725 -0.0642  0.1067
  914loPI    C114609   3.119  10.258   5.625  0.1635 -0.1133 -0.1707
  914loPI    C214610   3.423  10.008   5.556  0.1266 -0.2125  0.0198
  914loPI    C314611   3.394  10.349   5.349  0.4056 -0.1686  0.0486
  914loPI   PO414612   3.130  10.334   5.898 -0.2622  0.0842  0.3797
  914loPI   GL114613   2.807  10.414   6.165 -0.3350  0.2009 -0.1070
  914loPI   GL214614   2.517  10.590   6.185  0.1572 -0.1218  0.0420
  914loPI   C1A14615   2.645  10.093   6.454 -0.0048 -0.2087 -0.1139
  914loPI   C2A14616   2.717   9.864   6.808 -0.1721  0.2790 -0.1596
  914loPI   C3A14617   2.756   9.362   6.924  0.0893 -0.0924  0.0330
  914loPI   C4A14618   3.015   9.055   7.172  0.2676 -0.0691  0.1003
  914loPI   C5A14619   3.400   8.858   7.344  0.0260  0.3260  0.0378
  914loPI   C6A14620   3.553   8.939   7.646 -0.2807  0.3445  0.0354
  914loPI   C1B14621   2.397  10.484   6.557  0.0130 -0.0409 -0.2912
  914loPI   C2B14622   2.315  10.216   6.933  0.4564  0.2640 -0.1623
  914loPI   C3B14623   2.093  10.005   7.287 -0.0241 -0.1501 -0.1287
  914loPI   C4B14624   2.129   9.789   7.715  0.0148 -0.0138  0.1594
  915loPI    C114625   0.513   2.618   5.267  0.0989  0.1730  0.0815
  915loPI    C214626   0.162   2.725   5.108  0.0118 -0.1102  0.0771
  915loPI    C314627   0.502   2.806   4.914 -0.0746 -0.1714 -0.1028
  915loPI   PO414628   0.510   2.633   5.505  0.1590 -0.3025  0.1208
  915loPI   GL114629   0.520   2.704   5.911 -0.0573  0.2053  0.0690
  915loPI   GL214630   0.213   2.754   6.122 -0.1431 -0.2486 -0.1208
  915loPI   C1A14631   0.710   2.651   6.392  0.2923  0.2584 -0.0854
  915loPI   C2A14632   0.695   2.649   6.820 -0.0331 -0.2117 -0.0561
  915loPI   C3A14633   0.689   2.611   7.265  0.1519 -0.1013  0.0673
  915loPI   C4A14634   0.821   2.558   7.730  0.0992  0.3918 -0.1221
  915loPI   C5A14635   0.654   2.819   8.038 -0.1711 -0.1811 -0.0616
  915loPI   C6A14636   0.332   3.116   8.099  0.2986 -0.1681  0.1878
  915loPI   C1B14637   0.237   2.718   6.479 -0.2894  0.2101 -0.2216
  915loPI   C2B14638   0.187   2.822   6.853 -0.0281 -0.0981 -0.0325
  915loPI   C3B14639   0.237   2.828   7.298  0.2029 -0.0175  0.1133
  915loPI   C4B14640   0.347   2.738   7.701 -0.0003 -0.0905  0.0264
  916loPI    C114641  12.415  11.899   5.430 -0.1031 -0.0882  0.4866
  916loPI    C214642  12.762  11.703   5.466 -0.0307 -0.0317  0.1295
  916loPI    C314643  12.658  11.864   5.115 -0.3806  0.0263  0.2553
  916loPI   PO414644  12.338  11.984   5.657 -0.0266 -0.0184 -0.1848
  916loPI   GL114645  12.381  12.338   6.069  0.2742 -0.1620  0.0541
  916loPI   GL214646  12.374  12.014   6.165 -0.0294 -0.0682  0.3265
  916loPI   C1A14647  12.252  12.482   6.522 -0.2669 -0.0464 -0.2171
  916loPI   C2A14648  12.233  12.472   6.906  0.1358 -0.1987 -0.0120
  916loPI   C3A14649  12.196  12.613   7.266  0.1114  0.0372 -0.0664
  916loPI   C4A14650  12.223  12.566   7.808  0.3755  0.0222  0.3475
  916loPI   C5A14651  12.314  12.381   8.204  0.1242 -0.1263 -0.0287
  916loPI   C6A14652  12.211  11.983   8.423  0.0796  0.1269 -0.2673
  916loPI   C1B14653  12.409  12.021   6.545  0.0217 -0.2148 -0.2957
  916loPI   C2B14654  12.322  11.975   7.079  0.0941  0.2153 -0.2281
  916loPI   C3B14655  12.291  12.073   7.461 -0.0803  0.1579 -0.1480
  916loPI   C4B14656  12.406  12.022   7.856 -0.2595 -0.0489  0.2664
  917loPI    C114657   6.795   0.921   5.575  0.1785 -0.0477  0.0739
  917loPI    C214658   6.698   0.703   5.254 -0.1257 -0.0424  0.1584
  917loPI    C314659   6.567   1.080   5.287 -0.0084 -0.0081  0.2413
  917loPI   PO414660   7.051   0.897   5.633 -0.0323  0.1580 -0.1363
  917loPI   GL114661   7.240   0.953   6.013 -0.0901  0.0677  0.1550
  917loPI   GL214662   7.628   0.745   6.112 -0.2158  0.1199 -0.1872
  917loPI   C1A14663   7.237   0.899   6.436  0.0816 -0.0891  0.2865
  917loPI   C2A14664   7.304   1.033   6.882  0.2120  0.5364 -0.1930
  917loPI   C3A14665   7.350   0.953   7.324  0.2475  0.0764  0.2452
  917loPI   C4A14666   7.452   0.945   7.779 -0.1861  0.3351  0.1314
  917loPI   C5A14667   7.431   0.622   8.099  0.1003 -0.0630  0.1172
  917loPI   C6A14668   7.296   0.341   8.471  0.2654 -0.1079  0.0429
  917loPI   C1B14669   7.768   0.773   6.591 -0.1828 -0.0494  0.1298
  917loPI   C2B14670   7.823   0.782   7.082 -0.0489  0.3904 -0.0423
  917loPI   C3B14671   7.927   0.726   7.630 -0.1447 -0.1617 -0.1067
  917loPI   C4B14672   7.967   0.779   8.035  0.0383 -0.1740 -0.3555
  918loPI    C114673   6.374  17.883   5.128 -0.0934 -0.0645  0.0050
  918loPI    C214674   6.008  17.887   4.964 -0.0742  0.1875 -0.0354
  918loPI    C314675   6.278  18.163   4.859  0.0251  0.1941  0.2275
  918loPI   PO414676   6.248  17.824   5.390  0.3943  0.0824 -0.0373
  918loPI   GL114677   6.109  17.962   5.827 -0.1138  0.0665  0.0352
  918loPI   GL214678   5.832  18.174   5.871 -0.1373 -0.1916 -0.0135
  918loPI   C1A14679   6.113  17.867   6.177 -0.2336 -0.3116 -0.3510
  918loPI   C2A14680   6.068  17.819   6.573 -0.1308  0.1677  0.0313
  918loPI   C3A14681   6.026  17.979   7.036 -0.1113 -0.0539  0.1836
  918loPI   C4A14682   6.118  18.037   7.444 -0.0245  0.1217  0.2208
  918loPI   C5A14683   6.009  18.050   7.813  0.2578 -0.1104 -0.2925
  918loPI   C6A14684   5.728  18.349   7.963  0.2736  0.1484 -0.0178
  918loPI   C1B14685   5.625  18.070   6.221  0.1850  0.0014  0.0840
  918loPI   C2B14686   5.554  18.057   6.670  0.0201 -0.2491 -0.0388
  918loPI   C3B14687   5.578  18.148   7.100  0.1240  0.1131 -0.0666
  918loPI   C4B14688   5.609  18.188   7.500 -0.1668  0.2513 -0.0453
  919loPI    C114689   7.343  16.810   5.405  0.0913 -0.1150 -0.1117
  919loPI    C214690   7.657  17.032   5.517 -0.1734  0.1749  0.0710
  919loPI    C314691   7.485  17.093   5.161 -0.0005 -0.0123 -0.0468
  919loPI   PO414692   7.273  16.717   5.621  0.0387 -0.1951  0.2570
  919loPI   GL114693   7.515  16.527   6.045  0.1853 -0.1940 -0.0429
  919loPI   GL214694   7.614  16.877   6.053  0.1023  0.1814 -0.2607
  919loPI   C1A14695   7.177  16.425   6.345  0.1964 -0.2610 -0.3939
  919loPI   C2A14696   7.069  16.553   6.802  0.0146 -0.0185  0.0616
  919loPI   C3A14697   7.228  16.559   7.224  0.0943  0.0189  0.5402
  919loPI   C4A14698   7.197  16.663   7.602 -0.1935 -0.2295  0.1306
  919loPI   C5A14699   7.172  16.453   8.019  0.0106  0.0009 -0.1307
  919loPI   C6A14700   7.092  16.338   8.375 -0.1288 -0.0711  0.0710
  919loPI   C1B14701   7.559  16.804   6.461  0.0095 -0.2637  0.1142
  919loPI   C2B14702   7.488  16.889   6.847  0.0349 -0.0465  0.0502
  919loPI   C3B14703   7.656  16.867   7.261 -0.1739  0.2389  0.1707
  919loPI   C4B14704   7.668  16.884   7.599  0.1026  0.0145 -0.2279
  920loPI    C114705   1.475  13.355   5.875 -0.2964  0.1757  0.2288
  920loPI    C214706   1.630  13.603   6.148 -0.0802  0.1086  0.1691
  920loPI    C314707   1.659  13.690   5.758  0.1166 -0.0736  0.1409
  920loPI   PO414708   1.290  13.305   6.015 -0.0896 -0.0889  0.2833
  920loPI   GL114709   1.412  13.223   6.434 -0.1503 -0.1313 -0.4821
  920loPI   GL214710   1.062  13.045   6.493  0.0969  0.1095 -0.2981
  920loPI   C1A14711   1.435  13.583   6.735  0.0220  0.0626  0.1122
  920loPI   C2A14712   1.283  13.624   7.217 -0.3473  0.3064 -0.1726
  920loPI   C3A14713   1.331  13.570   7.586  0.1140 -0.2731  0.1076
  920loPI   C4A14714   1.465  13.574   7.933  0.1133 -0.2668  0.0143
  920loPI   C5A14715   1.598  13.561   8.311  0.3875 -0.1519  0.0123
  920loPI   C6A14716   1.597  13.613   8.751  0.0286 -0.1630  0.0220
  920loPI   C1B14717   0.959  13.173   6.916 -0.2267  0.0852 -0.2547
  920loPI   C2B14718   0.967  13.294   7.420 -0.1110  0.1088  0.3635
  920loPI   C3B14719   0.950  13.454   7.856 -0.1944 -0.0483  0.2588
  920loPI   C4B14720   0.754  13.241   8.066  0.1899  0.1131 -0.1659
  921loPI    C114721   7.899   5.671   5.322  0.1954 -0.0447  0.0640
  921loPI    C214722   7.909   5.670   4.922  0.0783 -0.1307  0.0607
  921loPI    C314723   7.872   6.016   5.121  0.0147 -0.0986 -0.0063
  921loPI   PO414724   7.745   5.492   5.378 -0.1828  0.1051  0.0309
  921loPI   GL114725   7.747   5.386   5.732 -0.2038  0.1750 -0.0774
  921loPI   GL214726   7.689   5.060   5.848  0.2690  0.1642 -0.1330
  921loPI   C1A14727   7.996   5.465   6.079 -0.0430 -0.0642 -0.1040
  921loPI   C2A14728   7.971   5.496   6.507  0.1234  0.1302  0.0233
  921loPI   C3A14729   7.961   5.495   6.996 -0.1796  0.0610  0.2296
  921loPI   C4A14730   7.994   5.482   7.341  0.4126  0.0383 -0.0654
  921loPI   C5A14731   8.039   5.603   7.756  0.0786 -0.1426  0.1203
  921loPI   C6A14732   8.135   5.402   8.106  0.1076  0.0874  0.2248
  921loPI   C1B14733   7.648   5.148   6.279  0.0429 -0.1787  0.0151
  921loPI   C2B14734   7.525   5.114   6.770  0.1555 -0.0619  0.0159
  921loPI   C3B14735   7.589   5.133   7.164 -0.2778  0.1835 -0.0641
  921loPI   C4B14736   7.591   5.296   7.631  0.5419  0.1598  0.0915
  922loPI    C114737   8.220  12.494   5.350 -0.2527  0.1415 -0.2006
  922loPI    C214738   8.241  12.191   5.090 -0.1661  0.1128 -0.1607
  922loPI    C314739   7.918  12.427   5.097 -0.2462  0.0045 -0.1726
  922loPI   PO414740   8.275  12.371   5.631 -0.1789 -0.1405  0.2770
  922loPI   GL114741   8.306  12.594   6.055  0.1679 -0.0155 -0.2838
  922loPI   GL214742   8.058  12.493   6.247  0.1621 -0.0340  0.0545
  922loPI   C1A14743   8.629  12.405   6.382 -0.1142 -0.2038  0.0967
  922loPI   C2A14744   8.667  12.405   6.760  0.0057  0.3907  0.0962
  922loPI   C3A14745   8.685  12.429   7.180  0.0906 -0.0438 -0.0481
  922loPI   C4A14746   8.559  12.492   7.616 -0.4225  0.0389  0.1210
  922loPI   C5A14747   8.695  12.679   8.100  0.0476  0.0722 -0.1029
  922loPI   C6A14748   9.032  12.929   8.250  0.3484 -0.2223 -0.2068
  922loPI   C1B14749   8.196  12.610   6.630 -0.3999 -0.0577  0.0041
  922loPI   C2B14750   8.206  12.660   7.072  0.1527 -0.0532  0.2454
  922loPI   C3B14751   8.056  12.660   7.430 -0.0354  0.1569  0.0548
  922loPI   C4B14752   8.227  12.809   7.778  0.1790  0.2019 -0.2440
  923loPI    C114753   7.218   6.398   5.462 -0.1659 -0.2210  0.2259
  923loPI    C214754   7.428   6.296   5.137 -0.0436 -0.0214  0.2404
  923loPI    C314755   7.057   6.155   5.188 -0.0949  0.0123 -0.0269
  923loPI   PO414756   7.347   6.368   5.691 -0.2670  0.2407  0.3115
  923loPI   GL114757   7.440   6.253   6.103 -0.0013 -0.1054 -0.1404
  923loPI   GL214758   7.757   6.414   6.036  0.3469  0.3470 -0.0095
  923loPI   C1A14759   7.457   6.261   6.593 -0.2888  0.0780 -0.0887
  923loPI   C2A14760   7.462   6.226   7.038 -0.1178  0.0352 -0.1843
  923loPI   C3A14761   7.475   6.231   7.432  0.1897 -0.2240 -0.0204
  923loPI   C4A14762   7.609   6.205   7.894  0.1106 -0.0579  0.4068
  923loPI   C5A14763   7.802   6.010   8.210  0.2436 -0.1875 -0.3118
  923loPI   C6A14764   7.701   5.672   8.411  0.0052  0.2275 -0.1302
  923loPI   C1B14765   7.824   6.541   6.430  0.1731  0.0273  0.2443
  923loPI   C2B14766   7.836   6.501   6.883  0.0664 -0.0443  0.0963
  923loPI   C3B14767   7.971   6.508   7.276 -0.0611  0.0431 -0.0491
  923loPI   C4B14768   7.903   6.616   7.723  0.0193  0.1043 -0.1303
  924loPI    C114769  10.281   3.744   4.989  0.0368 -0.1292 -0.0954
  924loPI    C214770  10.106   3.994   4.730  0.0804 -0.1612 -0.1559
  924loPI    C314771  10.178   3.615   4.625  0.0418 -0.1913 -0.0748
  924loPI   PO414772  10.164   3.735   5.200  0.3179 -0.0801  0.2303
  924loPI   GL114773  10.151   3.962   5.596 -0.0126 -0.0711 -0.2593
  924loPI   GL214774  10.174   4.246   5.728  0.1073 -0.0167  0.0325
  924loPI   C1A14775  10.306   3.800   6.007 -0.1166  0.1233  0.2874
  924loPI   C2A14776  10.490   3.945   6.355  0.1209  0.2385  0.0259
  924loPI   C3A14777  10.547   3.969   6.745 -0.0948  0.2633  0.1729
  924loPI   C4A14778  10.454   4.085   7.223  0.2982 -0.1352 -0.4806
  924loPI   C5A14779  10.523   4.051   7.596  0.0411 -0.1470  0.1130
  924loPI   C6A14780  10.265   4.246   7.802 -0.0601 -0.1698  0.0782
  924loPI   C1B14781  10.072   4.193   6.104 -0.2719 -0.1268 -0.2769
  924loPI   C2B14782  10.011   4.142   6.559  0.0995 -0.0122  0.0842
  924loPI   C3B14783   9.926   4.202   7.004 -0.0922 -0.2268 -0.0129
  924loPI   C4B14784  10.022   4.284   7.380  0.1334  0.1308  0.2421
  925loPI    C114785   3.573  16.694   5.240 -0.0365  0.0716 -0.0894
  925loPI    C214786   3.443  16.359   5.064 -0.1742  0.0747  0.0042
  925loPI    C314787   3.235  16.699   5.026 -0.0693  0.1348 -0.0368
  925loPI   PO414788   3.619  16.656   5.544  0.1881 -0.0945 -0.1209
  925loPI   GL114789   3.682  16.833   5.914 -0.2994 -0.2309 -0.1404
  925loPI   GL214790   4.041  16.596   6.058 -0.0749  0.0960 -0.1083
  925loPI   C1A14791   3.472  17.044   6.176  0.1694  0.2416 -0.2224
  925loPI   C2A14792   3.407  17.129   6.516  0.0065  0.0571 -0.1689
  925loPI   C3A14793   3.457  17.089   6.986  0.1377  0.0168 -0.2272
  925loPI   C4A14794   3.441  17.017   7.415  0.1144  0.0463 -0.0618
  925loPI   C5A14795   3.450  17.045   7.874  0.0792  0.1049 -0.1459
  925loPI   C6A14796   3.576  16.900   8.309  0.0093 -0.0364  0.1280
  925loPI   C1B14797   3.936  16.927   6.369  0.0872 -0.0088 -0.0260
  925loPI   C2B14798   3.899  16.911   6.788 -0.1210 -0.1026  0.1389
  925loPI   C3B14799   3.961  16.866   7.224 -0.0736 -0.2873 -0.0310
  925loPI   C4B14800   3.868  16.822   7.642 -0.3047  0.0010  0.0110
  926loPI    C114801  14.619   7.152   5.193 -0.0873  0.0581  0.0275
  926loPI    C214802  14.305   7.296   4.990  0.1031  0.1151 -0.2325
  926loPI    C314803  14.628   7.166   4.793  0.1850 -0.0837  0.0264
  926loPI   PO414804  14.685   7.188   5.455 -0.0279 -0.0165  0.1127
  926loPI   GL114805  14.498   7.353   5.797  0.0381 -0.4075 -0.3739
  926loPI   GL214806  14.427   7.753   5.994  0.0710 -0.0771 -0.2969
  926loPI   C1A14807  14.581   7.201   6.156 -0.0865 -0.0041 -0.0015
  926loPI   C2A14808  14.417   7.227   6.563 -0.0643  0.1682  0.2326
  926loPI   C3A14809  14.489   7.368   7.026  0.0482  0.2176  0.0032
  926loPI   C4A14810  14.377   7.335   7.527 -0.0304  0.3427  0.0768
  926loPI   C5A14811  14.494   7.154   7.891  0.1020 -0.2668  0.2289
  926loPI   C6A14812  14.580   7.141   8.287  0.0663 -0.0986 -0.0578
  926loPI   C1B14813  14.317   7.685   6.297 -0.2794  0.1829  0.0347
  926loPI   C2B14814  14.393   7.716   6.718  0.2589  0.1639  0.0017
  926loPI   C3B14815  14.364   7.877   7.172 -0.0644 -0.1583  0.0058
  926loPI   C4B14816  14.299   7.837   7.629 -0.1653  0.0359 -0.0768
  927loPI    C114817   1.362   7.676   5.855 -0.1705 -0.0334 -0.1017
  927loPI    C214818   1.593   7.888   5.607 -0.3137  0.1553 -0.0763
  927loPI    C314819   1.632   7.490   5.626  0.0847  0.1948  0.0097
  927loPI   PO414820   1.430   7.704   6.121  0.3863 -0.1877 -0.2266
  927loPI   GL114821   1.502   7.448   6.448  0.0367  0.0623 -0.0318
  927loPI   GL214822   1.488   7.130   6.536  0.1485 -0.1644  0.1411
  927loPI   C1A14823   1.793   7.461   6.762 -0.1712 -0.0201  0.0111
  927loPI   C2A14824   1.827   7.542   7.144 -0.0140  0.3761  0.3188
  927loPI   C3A14825   1.839   7.583   7.664  0.0246  0.0713 -0.0257
  927loPI   C4A14826   1.857   7.563   8.016 -0.2930 -0.1847  0.3219
  927loPI   C5A14827   1.932   7.497   8.350 -0.0805 -0.2185 -0.0867
  927loPI   C6A14828   2.157   7.278   8.666 -0.2122  0.2107 -0.2348
  927loPI   C1B14829   1.424   7.202   6.986 -0.1604 -0.0090  0.0871
  927loPI   C2B14830   1.431   7.282   7.397  0.4043  0.1552 -0.0037
  927loPI   C3B14831   1.461   7.257   7.879 -0.0001 -0.2238  0.4686
  927loPI   C4B14832   1.477   7.282   8.249 -0.3370 -0.2214 -0.1241
  928loPI    C114833   4.731   2.625   5.563  0.1713 -0.0219 -0.2209
  928loPI    C214834   4.429   2.503   5.332 -0.0924  0.0605  0.0742
  928loPI    C314835   4.646   2.821   5.224 -0.0690 -0.0362 -0.1705
  928loPI   PO414836   4.584   2.637   5.798  0.1296  0.0945 -0.0491
  928loPI   GL114837   4.344   2.460   6.062 -0.3076 -0.2317 -0.1361
  928loPI   GL214838   4.195   2.160   6.071  0.1356 -0.0052  0.2807
  928loPI   C1A14839   4.283   2.533   6.498  0.1828 -0.0774 -0.0740
  928loPI   C2A14840   4.300   2.616   6.955  0.1440 -0.3422  0.0072
  928loPI   C3A14841   4.363   2.606   7.353 -0.2808  0.0281  0.0837
  928loPI   C4A14842   4.382   2.582   7.746 -0.1410 -0.1046 -0.0427
  928loPI   C5A14843   4.359   2.768   8.163 -0.2914 -0.4042  0.1405
  928loPI   C6A14844   4.211   2.746   8.575 -0.1291 -0.1256 -0.2143
  928loPI   C1B14845   4.419   2.091   6.428 -0.0757 -0.0294 -0.0377
  928loPI   C2B14846   4.399   2.112   6.839  0.1443 -0.3135 -0.1587
  928loPI   C3B14847   4.439   2.061   7.274 -0.0648  0.0779 -0.0941
  928loPI   C4B14848   4.435   2.038   7.775 -0.0668 -0.1494  0.0787
  929loPI    C114849  10.717  15.449   5.236 -0.0070 -0.1260  0.1701
  929loPI    C214850  10.730  15.593   4.863 -0.1939 -0.0719  0.1834
  929loPI    C314851  10.943  15.268   4.960 -0.1348 -0.0786  0.0334
  929loPI   PO414852  10.797  15.718   5.366  0.0363 -0.2508  0.1516
  929loPI   GL114853  10.946  15.748   5.750 -0.1264  0.1389 -0.2901
  929loPI   GL214854  10.833  16.003   5.973 -0.1973  0.2067  0.1732
  929loPI   C1A14855  11.283  15.763   6.076 -0.0659 -0.1408 -0.0780
  929loPI   C2A14856  11.319  15.732   6.474  0.1609 -0.1209  0.0499
  929loPI   C3A14857  11.334  15.852   6.939  0.0439 -0.0054 -0.0911
  929loPI   C4A14858  11.370  15.772   7.377  0.3677  0.0032  0.1372
  929loPI   C5A14859  11.242  15.804   7.889 -0.0168  0.0781  0.0365
  929loPI   C6A14860  11.262  15.762   8.325  0.3785  0.2234 -0.0602
  929loPI   C1B14861  10.825  15.930   6.401  0.1196 -0.0631  0.3514
  929loPI   C2B14862  10.874  16.059   6.803 -0.1796 -0.2524  0.4675
  929loPI   C3B14863  10.881  16.011   7.097 -0.0348  0.2453  0.2027
  929loPI   C4B14864  10.898  15.952   7.522 -0.2151 -0.1332 -0.2122
  930loPI    C114865  16.692  14.543   5.566 -0.0516  0.0388 -0.2751
  930loPI    C214866  16.585  14.246   5.321 -0.1141 -0.0379 -0.1560
  930loPI    C314867  16.776  14.566   5.176 -0.1391 -0.0885 -0.3019
  930loPI   PO414868  16.554  14.536   5.705  0.0305 -0.0373  0.0681
  930loPI   GL114869  16.546  14.404   6.103 -0.2159  0.0744 -0.1502
  930loPI   GL214870  16.382  14.651   6.345 -0.2966  0.0587  0.0257
  930loPI   C1A14871  16.490  14.237   6.512 -0.1110 -0.1132  0.0249
  930loPI   C2A14872  16.487  14.173   6.970 -0.3774  0.1912  0.0446
  930loPI   C3A14873  16.610  14.263   7.433 -0.2393 -0.3988  0.0518
  930loPI   C4A14874  16.515  14.249   7.791  0.1377  0.0696 -0.1731
  930loPI   C5A14875  16.526  14.294   8.219 -0.3040  0.0505  0.0028
  930loPI   C6A14876  16.914  14.352   8.535 -0.1997  0.3306  0.1508
  930loPI   C1B14877  16.505  14.708   6.725  0.1521  0.2956 -0.0112
  930loPI   C2B14878  16.463  14.730   7.124 -0.3258  0.0892 -0.1375
  930loPI   C3B14879  16.436  14.735   7.503 -0.1357 -0.0592 -0.0451
  930loPI   C4B14880  16.499  14.745   8.019  0.1340  0.1180  0.1043
  931loPI    C114881  16.402  17.562   5.494 -0.1212  0.0368 -0.1056
  931loPI    C214882  16.506  17.441   5.127  0.1555 -0.0729  0.0062
  931loPI    C314883  16.122  17.431   5.240  0.1101 -0.3636 -0.1623
  931loPI   PO414884  16.648  17.628   5.582  0.1557  0.0265 -0.2483
  931loPI   GL114885  16.668  17.813   5.946 -0.1614  0.0044 -0.0373
  931loPI   GL214886  16.904  17.854   6.055  0.0221 -0.0717  0.3701
  931loPI   C1A14887  16.552  17.750   6.406  0.1244  0.1905  0.1318
  931loPI   C2A14888  16.373  17.631   6.789 -0.2760 -0.0223  0.1289
  931loPI   C3A14889  16.479  17.622   7.206  0.0333  0.0521 -0.0460
  931loPI   C4A14890  16.385  17.659   7.573  0.0837  0.1294 -0.4035
  931loPI   C5A14891  16.149  17.757   8.009 -0.0053 -0.0388  0.0723
  931loPI   C6A14892  16.113  17.860   8.423  0.1546 -0.0993  0.0091
  931loPI   C1B14893  16.946  17.975   6.517  0.3448  0.1407  0.1033
  931loPI   C2B14894  16.853  18.007   6.974  0.0670 -0.2295 -0.2604
  931loPI   C3B14895  16.898  17.925   7.470 -0.2289  0.2600  0.2130
  931loPI   C4B14896  16.797  18.047   7.834 -0.2836  0.2411  0.3994
  932loPI    C114897  15.406   2.888   5.348  0.2020  0.0439  0.2512
  932loPI    C214898  15.741   3.025   5.177  0.2777 -0.2217  0.1829
  932loPI    C314899  15.511   2.760   4.984 -0.0539  0.0708  0.1657
  932loPI   PO414900  15.482   2.800   5.542 -0.1540  0.1599  0.1998
  932loPI   GL114901  15.240   2.701   5.945 -0.1755  0.1598  0.3479
  932loPI   GL214902  14.818   2.546   5.873 -0.1794 -0.0423 -0.0157
  932loPI   C1A14903  15.193   2.591   6.365  0.3058 -0.0871  0.2092
  932loPI   C2A14904  15.191   2.523   6.781  0.1342 -0.2013 -0.1756
  932loPI   C3A14905  15.235   2.690   7.245  0.4563  0.0456  0.2386
  932loPI   C4A14906  15.209   2.576   7.629 -0.1355  0.1402 -0.4207
  932loPI   C5A14907  15.302   2.494   8.025  0.2170 -0.2110  0.0862
  932loPI   C6A14908  15.164   2.280   8.430 -0.0657 -0.0125  0.0655
  932loPI   C1B14909  14.686   2.767   6.227 -0.0968  0.2238  0.3042
  932loPI   C2B14910  14.706   2.827   6.659 -0.0167 -0.2135 -0.4427
  932loPI   C3B14911  14.714   2.692   7.073  0.0113 -0.0544  0.0097
  932loPI   C4B14912  14.669   2.810   7.475 -0.0317  0.0669 -0.0397
  933loPI    C114913  10.501   0.499   5.470 -0.1062  0.0163 -0.0783
  933loPI    C214914  10.149   0.558   5.291 -0.0959 -0.0347 -0.1156
  933loPI    C314915  10.353   0.221   5.224 -0.2282 -0.1855  0.2182
  933loPI   PO414916  10.456   0.530   5.774 -0.4063 -0.0387  0.1267
  933loPI   GL114917  10.507   0.398   6.159 -0.1920 -0.1804 -0.0615
  933loPI   GL214918  10.512   0.067   6.055 -0.1334 -0.0202  0.1195
  933loPI   C1A14919  10.514   0.582   6.639  0.1670 -0.1542  0.0623
  933loPI   C2A14920  10.576   0.640   7.020 -0.0929 -0.1308 -0.0694
  933loPI   C3A14921  10.627   0.637   7.463 -0.0912  0.0340 -0.1088
  933loPI   C4A14922  10.466   0.559   7.925 -0.0593  0.0704  0.1663
  933loPI   C5A14923  10.549   0.261   8.342 -0.1675 -0.3989  0.3094
  933loPI   C6A14924  10.875   0.153   8.468  0.2998 -0.0479 -0.1149
  933loPI   C1B14925  10.500   0.035   6.534  0.1957  0.2650  0.1529
  933loPI   C2B14926  10.575   0.061   6.878  0.1980 -0.1886  0.0132
  933loPI   C3B14927  10.648   0.120   7.316  0.5959 -0.1938 -0.1372
  933loPI   C4B14928  10.625   0.089   7.777 -0.0450 -0.4400 -0.2180
  934loPI    C114929   6.651  11.724   5.397  0.0332  0.1346  0.0172
  934loPI    C214930   6.394  12.008   5.279 -0.0972  0.0568  0.1106
  934loPI    C314931   6.723  11.933   5.064 -0.2076  0.0836 -0.0691
  934loPI   PO414932   6.739  11.712   5.617 -0.1664 -0.2382  0.1153
  934loPI   GL114933   6.894  11.762   6.018  0.0148 -0.0480 -0.3264
  934loPI   GL214934   6.876  12.048   5.954 -0.0676  0.0229 -0.1974
  934loPI   C1A14935   6.887  11.640   6.421  0.0682 -0.0523  0.1771
  934loPI   C2A14936   6.876  11.689   6.934 -0.0949 -0.0984 -0.0070
  934loPI   C3A14937   6.978  11.616   7.364 -0.3273 -0.0198 -0.2223
  934loPI   C4A14938   6.777  11.793   7.738  0.1563  0.1866  0.0338
  934loPI   C5A14939   6.480  11.975   8.028 -0.1081 -0.0730  0.1968
  934loPI   C6A14940   6.199  12.202   8.335  0.2203  0.2091  0.0067
  934loPI   C1B14941   6.780  12.133   6.393  0.0061 -0.3982 -0.3032
  934loPI   C2B14942   6.850  12.226   6.912 -0.0932 -0.4064  0.1387
  934loPI   C3B14943   6.870  12.161   7.299  0.1638  0.0682 -0.2197
  934loPI   C4B14944   6.826  12.271   7.726  0.0526  0.0637  0.2168
  935loPI    C114945   7.402   1.086   5.315  0.0030 -0.0281 -0.3817
  935loPI    C214946   7.243   0.745   5.180 -0.0519 -0.1427 -0.0388
  935loPI    C314947   7.043   1.089   5.138 -0.1145 -0.1919 -0.1515
  935loPI   PO414948   7.428   1.126   5.509 -0.3676 -0.0727  0.0303
  935loPI   GL114949   7.548   1.309   5.834 -0.0892 -0.2486  0.5047
  935loPI   GL214950   7.275   1.455   5.919  0.4663 -0.2895 -0.1775
  935loPI   C1A14951   7.686   1.281   6.180 -0.0059  0.1110 -0.0006
  935loPI   C2A14952   7.665   1.265   6.629  0.2146  0.3862  0.2897
  935loPI   C3A14953   7.754   1.286   7.053  0.0197 -0.0513 -0.0895
  935loPI   C4A14954   7.820   1.207   7.406  0.0674  0.2142  0.1952
  935loPI   C5A14955   7.819   1.292   7.840 -0.0417  0.2400  0.1056
  935loPI   C6A14956   8.275   1.295   8.148  0.0375  0.2257  0.1904
  935loPI   C1B14957   7.195   1.458   6.318  0.0276  0.1271  0.1305
  935loPI   C2B14958   7.179   1.472   6.754  0.1791 -0.0504  0.1108
  935loPI   C3B14959   7.262   1.485   7.200  0.4589  0.0707 -0.0860
  935loPI   C4B14960   7.355   1.405   7.577  0.0445  0.0106 -0.2157
  936loPI    C114961   4.115   8.437   5.705 -0.2587  0.0340  0.4227
  936loPI    C214962   4.210   8.630   5.368  0.2539 -0.2518  0.3934
  936loPI    C314963   3.839   8.492   5.421  0.1851 -0.2669 -0.0870
  936loPI   PO414964   4.289   8.510   5.853 -0.3756  0.2108 -0.1173
  936loPI   GL114965   4.564   8.273   6.195  0.0309 -0.1697  0.0552
  936loPI   GL214966   4.660   7.942   6.293 -0.2311 -0.0879  0.0239
  936loPI   C1A14967   4.466   8.405   6.633 -0.0061 -0.0922 -0.2408
  936loPI   C2A14968   4.631   8.302   6.964  0.4692 -0.1460  0.0660
  936loPI   C3A14969   4.437   8.284   7.304  0.1283 -0.2573  0.0049
  936loPI   C4A14970   4.465   8.332   7.714 -0.0518 -0.0217 -0.0176
  936loPI   C5A14971   4.669   8.402   8.152  0.0616  0.2017 -0.2460
  936loPI   C6A14972   4.893   8.330   8.540  0.0375 -0.1187 -0.0337
  936loPI   C1B14973   4.673   7.876   6.709 -0.3650  0.1118  0.1643
  936loPI   C2B14974   4.688   7.835   7.151 -0.2085  0.1671 -0.1899
  936loPI   C3B14975   4.427   7.775   7.526  0.4458  0.2180 -0.0104
  936loPI   C4B14976   4.297   7.891   7.898  0.1917 -0.1775 -0.0684
  937loPI    C114977  11.136  11.171   5.271  0.0931  0.0486 -0.0965
  937loPI    C214978  11.246  11.233   4.891 -0.2613 -0.0776 -0.2239
  937loPI    C314979  10.869  11.304   5.005 -0.1054  0.1699  0.1594
  937loPI   PO414980  11.272  11.177   5.462  0.0819 -0.0167 -0.0715
  937loPI   GL114981  11.254  11.340   5.847 -0.3199 -0.1755  0.0572
  937loPI   GL214982  11.144  11.031   5.952  0.1511  0.3260 -0.1767
  937loPI   C1A14983  11.511  11.367   6.165 -0.0739  0.0703 -0.1641
  937loPI   C2A14984  11.516  11.439   6.543 -0.2684  0.3869  0.2566
  937loPI   C3A14985  11.568  11.350   6.966 -0.1356 -0.1650  0.3026
  937loPI   C4A14986  11.571  11.363   7.390 -0.2600 -0.1491 -0.1551
  937loPI   C5A14987  11.610  11.425   7.849 -0.1224 -0.1813 -0.1472
  937loPI   C6A14988  11.798  11.229   8.230  0.0775 -0.1043 -0.0923
  937loPI   C1B14989  11.201  11.016   6.389 -0.1951 -0.4112 -0.1550
  937loPI   C2B14990  11.196  11.069   6.802 -0.1122  0.2437  0.0428
  937loPI   C3B14991  11.188  11.052   7.204 -0.2026  0.1361 -0.1082
  937loPI   C4B14992  11.134  11.103   7.593 -0.1650 -0.2042  0.1546
  938loPI    C114993  10.468   4.671   5.127 -0.1468  0.0131 -0.1133
  938loPI    C214994  10.329   4.987   4.925 -0.0765  0.1377  0.0313
  938loPI    C314995  10.715   4.969   5.028 -0.0637 -0.0319 -0.0432
  938loPI   PO414996  10.299   4.551   5.321 -0.1079 -0.1224 -0.2704
  938loPI   GL114997  10.256   4.717   5.796  0.0103 -0.1390 -0.2394
  938loPI   GL214998  10.058   4.813   5.919 -0.0384  0.1538 -0.0053
  938loPI   C1A14999  10.474   4.579   6.138  0.1504  0.1054  0.1685
  938loPI   C2A15000  10.406   4.423   6.521  0.2504  0.0792 -0.1167
  938loPI   C3A15001  10.338   4.439   6.890 -0.2220 -0.1585 -0.0047
  938loPI   C4A15002  10.397   4.645   7.191 -0.0620  0.2075  0.0719
  938loPI   C5A15003  10.553   4.594   7.506 -0.1154 -0.0540 -0.0862
  938loPI   C6A15004  10.793   4.648   7.909 -0.0834 -0.0925 -0.1998
  938loPI   C1B15005   9.940   4.682   6.355  0.1106  0.0296  0.1779
  938loPI   C2B15006   9.940   4.695   6.804  0.3055  0.3423 -0.1661
  938loPI   C3B15007   9.910   4.660   7.141 -0.1970  0.0760  0.4068
  938loPI   C4B15008  10.026   4.716   7.559  0.2800 -0.1913  0.1213
  939loPI    C115009  16.091  14.390   5.400 -0.0327  0.0123  0.1091
  939loPI    C215010  16.098  14.789   5.428 -0.3847  0.0294  0.0138
  939loPI    C315011  16.246  14.609   5.103 -0.1578  0.0757  0.0895
  939loPI   PO415012  15.876  14.368   5.517  0.2129  0.2734  0.0003
  939loPI   GL115013  15.727  14.264   5.899  0.0740  0.0669  0.1872
  939loPI   GL215014  15.645  14.005   6.031 -0.0416 -0.2406  0.0460
  939loPI   C1A15015  15.998  14.301   6.224  0.2208 -0.0542  0.0927
  939loPI   C2A15016  16.022  14.385   6.747 -0.1728  0.0834  0.0020
  939loPI   C3A15017  16.115  14.377   7.164  0.0419 -0.0400 -0.0655
  939loPI   C4A15018  16.060  14.419   7.586  0.2277  0.2059 -0.1022
  939loPI   C5A15019  16.065  14.473   7.973  0.0114  0.3025 -0.2196
  939loPI   C6A15020  15.990  14.367   8.358  0.3500  0.1519  0.1401
  939loPI   C1B15021  15.689  14.087   6.526  0.1755 -0.3543 -0.0848
  939loPI   C2B15022  15.689  14.134   7.001 -0.0644 -0.1719  0.0076
  939loPI   C3B15023  15.626  14.073   7.411  0.0730 -0.0577 -0.2431
  939loPI   C4B15024  15.635  14.081   7.895  0.1675 -0.1508  0.1877
  940loPI    C115025  14.473   4.966   5.115 -0.0355  0.0201  0.1419
  940loPI    C215026  14.161   5.135   4.930  0.0263 -0.1395 -0.1125
  940loPI    C315027  14.519   5.124   4.751  0.1662 -0.0110  0.1528
  940loPI   PO415028  14.474   5.083   5.372 -0.1628 -0.2145 -0.1523
  940loPI   GL115029  14.509   5.210   5.696  0.0490 -0.1329 -0.0233
  940loPI   GL215030  14.562   5.555   5.776 -0.2810 -0.0644 -0.1316
  940loPI   C1A15031  14.382   5.214   6.167  0.1163  0.0862  0.0655
  940loPI   C2A15032  14.331   5.417   6.538 -0.2825 -0.0396  0.0754
  940loPI   C3A15033  14.289   5.377   6.999 -0.0211  0.2652  0.5015
  940loPI   C4A15034  14.228   5.384   7.406 -0.0614  0.0872 -0.1557
  940loPI   C5A15035  14.413   5.463   7.843  0.1400 -0.0695  0.1134
  940loPI   C6A15036  14.370   5.425   8.230 -0.0516 -0.0080  0.1818
  940loPI   C1B15037  14.671   5.639   6.289 -0.2257 -0.0742  0.2729
  940loPI   C2B15038  14.738   5.701   6.718 -0.0077 -0.2237  0.1107
  940loPI   C3B15039  14.719   5.710   7.198  0.1970 -0.1775 -0.1904
  940loPI   C4B15040  14.808   5.704   7.621  0.1064  0.0535 -0.2466
  941loPI    C115041   8.919  15.232   5.348  0.0228 -0.0001 -0.0508
  941loPI    C215042   8.955  15.504   5.057 -0.1045  0.0238 -0.0446
  941loPI    C315043   8.817  15.613   5.416 -0.1498 -0.0475 -0.0403
  941loPI   PO415044   9.144  15.038   5.422  0.1622  0.1620  0.2259
  941loPI   GL115045   9.207  14.912   5.785 -0.1701 -0.0566 -0.1334
  941loPI   GL215046   9.444  14.808   5.997 -0.0562 -0.0424  0.2472
  941loPI   C1A15047   9.136  15.068   6.226  0.3312  0.0511  0.1175
  941loPI   C2A15048   9.142  15.116   6.683  0.0663  0.3329 -0.0039
  941loPI   C3A15049   9.083  15.241   7.143  0.0289 -0.1141 -0.2941
  941loPI   C4A15050   9.191  15.212   7.610 -0.2376 -0.0319 -0.0719
  941loPI   C5A15051   9.125  15.219   8.071  0.1178  0.0427  0.3292
  941loPI   C6A15052   8.791  15.364   8.352  0.2989 -0.1418 -0.0089
  941loPI   C1B15053   9.591  14.891   6.470  0.2044  0.3307 -0.3296
  941loPI   C2B15054   9.569  14.948   6.869  0.1235  0.3131  0.1676
  941loPI   C3B15055   9.593  15.161   7.309 -0.1327  0.2362  0.2441
  941loPI   C4B15056   9.638  14.958   7.598 -0.2504 -0.0882  0.2289
  942loPI    C115057  13.455   0.668   5.362 -0.0320 -0.0461  0.0236
  942loPI    C215058  13.485   0.308   5.189 -0.0085 -0.0387  0.0123
  942loPI    C315059  13.559   0.640   4.977 -0.0509 -0.0262  0.0170
  942loPI   PO415060  13.548   0.707   5.623 -0.3508  0.3633  0.1512
  942loPI   GL115061  13.701   0.646   6.002  0.3032 -0.0053  0.1369
  942loPI   GL215062  14.001   0.575   5.896  0.2076  0.2317 -0.2248
  942loPI   C1A15063  13.654   0.703   6.471 -0.0732 -0.3589 -0.0116
  942loPI   C2A15064  13.622   0.700   6.876  0.0820  0.1951 -0.1200
  942loPI   C3A15065  13.636   0.770   7.267  0.2600 -0.2066  0.1441
  942loPI   C4A15066  13.589   0.715   7.729  0.0140 -0.2137 -0.0016
  942loPI   C5A15067  13.523   0.768   8.101  0.1843 -0.1505 -0.1179
  942loPI   C6A15068  13.409   0.643   8.439 -0.1524  0.0484 -0.0492
  942loPI   C1B15069  14.154   0.480   6.309 -0.0573 -0.0257  0.3447
  942loPI   C2B15070  14.122   0.641   6.745  0.5085  0.0616 -0.2382
  942loPI   C3B15071  14.123   0.625   7.214  0.1007  0.1247 -0.2303
  942loPI   C4B15072  14.044   0.671   7.568 -0.1247  0.1319  0.1901
  943loPI    C115073  13.331   9.755   5.329 -0.0990 -0.2227 -0.1773
  943loPI    C215074  13.688   9.871   5.466 -0.1372 -0.2404 -0.0618
  943loPI    C315075  13.665   9.599   5.175 -0.0574 -0.2810 -0.0304
  943loPI   PO415076  13.212   9.972   5.515 -0.0914 -0.1903  0.0651
  943loPI   GL115077  12.998  10.031   5.845 -0.1515  0.3048  0.0086
  943loPI   GL215078  12.802   9.953   5.973 -0.2037 -0.0484  0.1519
  943loPI   C1A15079  13.080  10.279   6.328 -0.1391 -0.2815  0.1323
  943loPI   C2A15080  13.080  10.333   6.826 -0.2400  0.0719  0.0803
  943loPI   C3A15081  13.103  10.305   7.217 -0.0608 -0.2370  0.1640
  943loPI   C4A15082  13.084  10.385   7.665  0.1157  0.2385 -0.1786
  943loPI   C5A15083  13.067  10.275   8.077 -0.2632 -0.2621  0.1937
  943loPI   C6A15084  12.717  10.100   8.375 -0.0907 -0.1830  0.0454
  943loPI   C1B15085  12.661   9.987   6.370 -0.0575  0.0854 -0.1623
  943loPI   C2B15086  12.608   9.960   6.759 -0.0410 -0.0888 -0.2207
  943loPI   C3B15087  12.664  10.084   7.202 -0.1958 -0.2069 -0.1148
  943loPI   C4B15088  12.758  10.081   7.663  0.0991  0.3218  0.0956
  944loPI    C115089  13.764   5.905   5.137  0.1875 -0.1778  0.0766
  944loPI    C215090  13.987   5.605   4.994  0.5485  0.1687 -0.1098
  944loPI    C315091  13.965   5.950   4.794 -0.0581  0.1910 -0.0243
  944loPI   PO415092  13.856   5.884   5.433 -0.3651  0.1972  0.1294
  944loPI   GL115093  13.831   5.793   5.791 -0.0354 -0.1537  0.1709
  944loPI   GL215094  14.154   5.787   5.990 -0.0450  0.0530 -0.0730
  944loPI   C1A15095  13.546   5.882   6.148  0.0229 -0.3628 -0.2042
  944loPI   C2A15096  13.334   5.715   6.462 -0.2733  0.0825  0.1935
  944loPI   C3A15097  13.327   5.796   6.971  0.2657  0.0587  0.2687
  944loPI   C4A15098  13.381   5.844   7.297  0.1831 -0.1286 -0.4192
  944loPI   C5A15099  13.392   5.867   7.741 -0.1211 -0.2298  0.0500
  944loPI   C6A15100  13.515   5.773   8.213 -0.1224  0.0716  0.0828
  944loPI   C1B15101  14.194   5.884   6.425 -0.0365 -0.0555  0.1369
  944loPI   C2B15102  14.276   5.836   6.829  0.1825 -0.1234 -0.0359
  944loPI   C3B15103  14.179   5.876   7.277 -0.1461  0.1485 -0.0081
  944loPI   C4B15104  14.279   5.866   7.651  0.1859  0.0130 -0.1453
  945loPI    C115105   3.632   1.373   5.547  0.0457 -0.1924  0.0576
  945loPI    C215106   3.348   1.342   5.268  0.0304 -0.0987  0.0623
  945loPI    C315107   3.733   1.326   5.163  0.0268  0.1251  0.0112
  945loPI   PO415108   3.511   1.207   5.713  0.1915 -0.0501 -0.1697
  945loPI   GL115109   3.334   1.312   6.081 -0.1433 -0.0189  0.1709
  945loPI   GL215110   3.121   1.107   6.182 -0.1298  0.2130  0.1865
  945loPI   C1A15111   3.580   1.413   6.437  0.1395 -0.0332  0.2933
  945loPI   C2A15112   3.574   1.517   6.872  0.0392 -0.3979 -0.1396
  945loPI   C3A15113   3.546   1.529   7.366  0.1538  0.1533  0.0484
  945loPI   C4A15114   3.657   1.526   7.819  0.0015 -0.3540 -0.3703
  945loPI   C5A15115   3.814   1.342   8.213 -0.2366 -0.2362  0.2713
  945loPI   C6A15116   4.224   1.459   8.417 -0.2018 -0.0968 -0.1066
  945loPI   C1B15117   3.184   1.089   6.666 -0.3258 -0.0224 -0.0240
  945loPI   C2B15118   3.201   1.213   7.059  0.0527  0.0069  0.2309
  945loPI   C3B15119   3.233   1.129   7.460 -0.1145 -0.0404 -0.0685
  945loPI   C4B15120   3.302   1.150   7.929  0.0976 -0.3281 -0.1508
  946loPI    C115121   2.006   8.798   5.642  0.0493  0.0521 -0.1434
  946loPI    C215122   2.391   8.904   5.664  0.0249  0.1185 -0.0257
  946loPI    C315123   2.290   8.517   5.651  0.1044  0.1033 -0.2507
  946loPI   PO415124   1.848   8.937   5.865 -0.1469 -0.3845  0.1970
  946loPI   GL115125   1.776   8.977   6.311 -0.2340 -0.2798  0.0393
  946loPI   GL215126   1.566   9.202   6.291 -0.0838 -0.3371  0.5108
  946loPI   C1A15127   1.651   8.764   6.773 -0.0256  0.0682  0.1504
  946loPI   C2A15128   1.737   8.563   7.130 -0.0311 -0.0241 -0.3358
  946loPI   C3A15129   1.713   8.615   7.559 -0.1842 -0.2153  0.2215
  946loPI   C4A15130   1.652   8.569   8.043  0.4872 -0.1684  0.2322
  946loPI   C5A15131   1.941   8.721   8.445  0.1126 -0.0911  0.1778
  946loPI   C6A15132   2.363   8.867   8.518  0.3145  0.0001  0.0520
  946loPI   C1B15133   1.265   8.975   6.555  0.0742  0.0383 -0.3463
  946loPI   C2B15134   1.246   8.848   6.999 -0.0641  0.2220 -0.3751
  946loPI   C3B15135   1.246   8.744   7.447 -0.0729  0.1295  0.0150
  946loPI   C4B15136   1.244   8.766   7.831 -0.1577  0.0763  0.3777
  947loPI    C115137  12.912   4.192   5.468 -0.1307 -0.0199  0.1601
  947loPI    C215138  12.520   4.271   5.488 -0.1060  0.2026 -0.1698
  947loPI    C315139  12.699   4.234   5.132  0.1089 -0.2373 -0.0226
  947loPI   PO415140  12.985   4.322   5.696 -0.0668  0.0190 -0.1933
  947loPI   GL115141  12.734   4.463   6.087 -0.4029  0.0921 -0.0408
  947loPI   GL215142  13.038   4.365   6.217 -0.0180  0.2048  0.1864
  947loPI   C1A15143  12.660   4.617   6.484 -0.0510  0.0167 -0.1441
  947loPI   C2A15144  12.654   4.571   6.952 -0.0262 -0.1842 -0.2442
  947loPI   C3A15145  12.704   4.610   7.444  0.0557  0.2995 -0.0121
  947loPI   C4A15146  12.607   4.884   7.726 -0.3131  0.2124 -0.2571
  947loPI   C5A15147  12.521   5.097   8.145  0.0880  0.0121  0.1234
  947loPI   C6A15148  12.581   5.568   8.283  0.1595 -0.0791 -0.2058
  947loPI   C1B15149  13.091   4.411   6.623  0.3385 -0.1152 -0.0290
  947loPI   C2B15150  13.123   4.479   7.096  0.1127 -0.0680 -0.1937
  947loPI   C3B15151  13.170   4.449   7.496 -0.1641 -0.0522  0.1941
  947loPI   C4B15152  13.248   4.513   8.026  0.3085 -0.0347  0.2193
  948loPI    C115153  11.529  16.465   5.049 -0.2023  0.0878  0.1506
  948loPI    C215154  11.153  16.347   4.977 -0.1728  0.1326 -0.0836
  948loPI    C315155  11.353  16.559   4.702  0.1303 -0.1514 -0.0896
  948loPI   PO415156  11.517  16.358   5.339 -0.3080 -0.1251  0.0130
  948loPI   GL115157  11.438  16.565   5.644 -0.2252 -0.0651  0.0908
  948loPI   GL215158  11.597  16.717   5.839  0.0839 -0.0467  0.1915
  948loPI   C1A15159  11.334  16.261   6.020  0.0906 -0.2126  0.0626
  948loPI   C2A15160  11.192  16.309   6.500 -0.0731 -0.2408 -0.2907
  948loPI   C3A15161  11.221  16.376   6.959  0.1893  0.1640 -0.1753
  948loPI   C4A15162  11.268  16.424   7.342 -0.0091  0.1601  0.0038
  948loPI   C5A15163  11.291  16.644   7.793  0.0736  0.0395  0.2789
  948loPI   C6A15164  11.319  17.059   7.830 -0.0619 -0.0728  0.0211
  948loPI   C1B15165  11.695  16.643   6.231 -0.0904  0.0031 -0.0605
  948loPI   C2B15166  11.660  16.669   6.686 -0.1192  0.1980 -0.0435
  948loPI   C3B15167  11.625  16.647   7.093 -0.0769  0.2957  0.0553
  948loPI   C4B15168  11.689  16.758   7.540  0.1222  0.1788 -0.1230
  949loPI    C115169  16.387  15.020   5.761  0.1239 -0.1462 -0.0717
  949loPI    C215170  16.247  15.375   5.880  0.2704 -0.1042 -0.0222
  949loPI    C315171  16.289  15.298   5.490  0.0825 -0.1285 -0.0386
  949loPI   PO415172  16.540  14.981   6.013  0.3864 -0.3585  0.1492
  949loPI   GL115173  16.392  15.160   6.414 -0.1333 -0.0785  0.0985
  949loPI   GL215174  16.373  15.503   6.318  0.2705  0.1726 -0.1437
  949loPI   C1A15175  16.426  15.260   6.805 -0.2615  0.2316  0.1441
  949loPI   C2A15176  16.334  15.187   7.238 -0.1189  0.0748  0.3001
  949loPI   C3A15177  16.465  15.372   7.664  0.0221 -0.0495  0.3258
  949loPI   C4A15178  16.406  15.264   8.145 -0.3340 -0.1015  0.0273
  949loPI   C5A15179  16.406  15.180   8.589  0.1910  0.2559  0.0716
  949loPI   C6A15180  16.712  15.029   8.960  0.1650 -0.2459 -0.0491
  949loPI   C1B15181  16.271  15.745   6.630 -0.2167 -0.0109  0.0855
  949loPI   C2B15182  16.277  15.722   7.073  0.0423  0.0591 -0.0048
  949loPI   C3B15183  16.309  15.879   7.495  0.0167  0.0841  0.0554
  949loPI   C4B15184  16.271  15.841   7.937  0.0904 -0.1866 -0.1523
  950loPI    C115185  17.827   1.813   5.492  0.1622 -0.1295 -0.0920
  950loPI    C215186  18.156   1.618   5.375  0.0697 -0.1761 -0.2776
  950loPI    C315187  17.926   1.803   5.105  0.0447  0.0157 -0.1268
  950loPI   PO415188  17.826   1.878   5.717 -0.3181  0.4810  0.3608
  950loPI   GL115189  17.594   2.014   6.094 -0.0311  0.1087 -0.6211
  950loPI   GL215190  17.883   1.895   6.290  0.3308  0.0435  0.5621
  950loPI   C1A15191  17.445   2.144   6.520  0.0902  0.0632 -0.2783
  950loPI   C2A15192  17.505   2.189   6.933  0.0559 -0.1197  0.2403
  950loPI   C3A15193  17.505   2.208   7.356  0.1999 -0.0261 -0.4416
  950loPI   C4A15194  17.539   2.119   7.760  0.0401 -0.0133  0.0206
  950loPI   C5A15195  17.225   2.153   8.078  0.1490  0.0925 -0.1088
  950loPI   C6A15196  17.271   2.159   8.591  0.1150 -0.0295  0.2256
  950loPI   C1B15197  17.961   1.974   6.699  0.2587 -0.1848 -0.2461
  950loPI   C2B15198  17.964   2.020   7.104  0.0276 -0.2046  0.2482
  950loPI   C3B15199  17.921   1.966   7.500  0.1618  0.0949 -0.0317
  950loPI   C4B15200  17.976   1.898   7.970 -0.2219 -0.4463 -0.1790
  951loPI    C115201   5.738   2.069   5.357 -0.3161 -0.0080 -0.0602
  951loPI    C215202   5.551   2.413   5.277 -0.1043  0.1543  0.1287
  951loPI    C315203   5.380   2.065   5.180 -0.2923  0.3132 -0.1214
  951loPI   PO415204   5.821   2.130   5.615  0.1534 -0.0914 -0.2072
  951loPI   GL115205   5.860   2.316   5.921 -0.1385  0.0869  0.0418
  951loPI   GL215206   6.183   2.372   5.899 -0.0906  0.1800  0.0482
  951loPI   C1A15207   5.695   2.407   6.424  0.2279 -0.2518  0.1587
  951loPI   C2A15208   5.666   2.527   6.928  0.0823 -0.3364  0.0617
  951loPI   C3A15209   5.759   2.484   7.392  0.3282  0.0749 -0.3073
  951loPI   C4A15210   5.746   2.500   7.868  0.3560 -0.1151  0.0964
  951loPI   C5A15211   5.817   2.318   8.263  0.3026 -0.1768  0.0670
  951loPI   C6A15212   5.900   2.455   8.662  0.2214  0.2400 -0.0118
  951loPI   C1B15213   6.164   2.291   6.334 -0.1427  0.0668 -0.1216
  951loPI   C2B15214   6.092   2.261   6.725  0.1675 -0.1449  0.2121
  951loPI   C3B15215   6.236   2.285   7.136  0.0709 -0.3602 -0.2691
  951loPI   C4B15216   6.205   2.304   7.610  0.1116 -0.1570  0.0467
  952loPI    C115217   8.868   2.329   5.248  0.1069 -0.1040 -0.2410
  952loPI    C215218   8.696   2.542   4.956  0.0167  0.0075 -0.1078
  952loPI    C315219   9.092   2.553   5.005  0.0316 -0.0081 -0.2226
  952loPI   PO415220   8.760   2.382   5.434 -0.1038 -0.0937  0.0314
  952loPI   GL115221   8.470   2.518   5.759 -0.3614  0.2081  0.0524
  952loPI   GL215222   8.643   2.781   5.771 -0.2767 -0.1111 -0.4059
  952loPI   C1A15223   8.362   2.483   6.147 -0.0635  0.0781  0.1694
  952loPI   C2A15224   8.397   2.416   6.613 -0.0612 -0.0730  0.0626
  952loPI   C3A15225   8.478   2.489   6.986 -0.0584 -0.1052  0.0318
  952loPI   C4A15226   8.392   2.423   7.345 -0.1256 -0.1520 -0.0843
  952loPI   C5A15227   8.532   2.347   7.725 -0.0672 -0.1068 -0.3069
  952loPI   C6A15228   8.658   2.143   8.131 -0.0189  0.1240  0.0268
  952loPI   C1B15229   8.777   2.752   6.261  0.1620 -0.2264  0.1036
  952loPI   C2B15230   8.779   2.768   6.656  0.5759  0.1931  0.1052
  952loPI   C3B15231   8.892   2.736   7.054  0.1385 -0.1048  0.0118
  952loPI   C4B15232   8.846   2.771   7.561  0.0148  0.0296  0.0342
  953loPI    C115233  13.674   1.133   5.124 -0.2026  0.1988  0.0824
  953loPI    C215234  13.689   1.337   4.781  0.1132 -0.0789 -0.0748
  953loPI    C315235  13.371   1.109   4.864  0.0076  0.0385 -0.1534
  953loPI   PO415236  13.747   1.363   5.355  0.0362  0.2064  0.4437
  953loPI   GL115237  13.746   1.189   5.783 -0.1299 -0.0551 -0.0075
  953loPI   GL215238  13.934   1.437   5.844 -0.1380 -0.1816  0.5287
  953loPI   C1A15239  13.565   1.199   6.132 -0.0226  0.3103  0.0639
  953loPI   C2A15240  13.522   1.233   6.530  0.0324  0.3137  0.0173
  953loPI   C3A15241  13.557   1.221   6.889 -0.0133 -0.2556  0.1348
  953loPI   C4A15242  13.546   1.299   7.279  0.0162  0.0565 -0.0915
  953loPI   C5A15243  13.637   1.264   7.696 -0.0850  0.0257 -0.3535
  953loPI   C6A15244  13.919   1.080   7.881  0.1760 -0.1882 -0.2977
  953loPI   C1B15245  13.989   1.450   6.261 -0.0622 -0.0119  0.1268
  953loPI   C2B15246  14.026   1.597   6.592  0.0791 -0.1748 -0.3816
  953loPI   C3B15247  13.964   1.615   7.015  0.0410 -0.0750  0.2639
  953loPI   C4B15248  13.982   1.721   7.464 -0.0768 -0.0421  0.1973
  954loPI    C115249   2.093  10.344   5.743  0.0133  0.1250  0.2153
  954loPI    C215250   2.096  10.678   5.524 -0.0026 -0.0299 -0.0250
  954loPI    C315251   2.261  10.344   5.380 -0.1002 -0.1590  0.1604
  954loPI   PO415252   2.070  10.497   5.987  0.1044  0.1866  0.0423
  954loPI   GL115253   1.792  10.454   6.345  0.2266  0.2632 -0.0010
  954loPI   GL215254   1.521  10.607   6.435 -0.0494  0.0612  0.0204
  954loPI   C1A15255   1.884  10.475   6.781  0.2010 -0.0069  0.1976
  954loPI   C2A15256   1.911  10.457   7.217  0.0321 -0.0671  0.0120
  954loPI   C3A15257   1.945  10.337   7.664  0.3303  0.1078  0.0579
  954loPI   C4A15258   2.083  10.155   8.055  0.0908  0.0278 -0.1136
  954loPI   C5A15259   2.243   9.690   8.208  0.3430 -0.2372 -0.0057
  954loPI   C6A15260   2.399   9.290   8.195 -0.0226  0.0589  0.3935
  954loPI   C1B15261   1.330  10.666   6.793 -0.1952  0.1915  0.0469
  954loPI   C2B15262   1.298  10.687   7.179 -0.0459 -0.0397  0.2106
  954loPI   C3B15263   1.535  10.693   7.627  0.1209  0.0343  0.1210
  954loPI   C4B15264   1.647  10.423   8.022  0.0030 -0.0742  0.0708
  955loPI    C115265   8.480   8.580   5.280  0.0476 -0.1505  0.0110
  955loPI    C215266   8.811   8.767   5.157 -0.1892  0.2137 -0.0889
  955loPI    C315267   8.494   8.743   4.914 -0.3016  0.0309  0.0736
  955loPI   PO415268   8.607   8.342   5.413 -0.0961 -0.1401  0.2994
  955loPI   GL115269   8.611   8.399   5.864  0.2764  0.1207 -0.0933
  955loPI   GL215270   8.462   8.289   6.136 -0.2378  0.1732 -0.0007
  955loPI   C1A15271   8.890   8.433   6.289  0.1552 -0.4303  0.0797
  955loPI   C2A15272   8.869   8.614   6.768 -0.1216  0.0817  0.0314
  955loPI   C3A15273   8.827   8.668   7.167 -0.0808 -0.1786  0.1292
  955loPI   C4A15274   8.894   8.723   7.597 -0.0642 -0.1547 -0.5082
  955loPI   C5A15275   9.014   8.592   7.998  0.0763  0.1578  0.1728
  955loPI   C6A15276   8.917   8.086   8.085  0.1593  0.0552 -0.0197
  955loPI   C1B15277   8.498   8.145   6.526 -0.1378  0.1827  0.0862
  955loPI   C2B15278   8.524   8.191   6.948  0.1292 -0.0208 -0.0215
  955loPI   C3B15279   8.565   8.295   7.402 -0.2939  0.0725  0.2279
  955loPI   C4B15280   8.541   8.366   7.773  0.0162  0.0872  0.0342
  956loPI    C115281  15.200   0.665   5.150 -0.1105 -0.1167  0.1573
  956loPI    C215282  15.022   0.382   4.930 -0.2567  0.0021  0.1215
  956loPI    C315283  14.893   0.761   4.912 -0.1178  0.0557  0.2344
  956loPI   PO415284  15.324   0.476   5.442 -0.0291  0.0520  0.2425
  956loPI   GL115285  15.165   0.449   5.805 -0.0928  0.0093 -0.0402
  956loPI   GL215286  14.856   0.534   5.819 -0.0024 -0.1762  0.0376
  956loPI   C1A15287  15.119   0.254   6.179  0.2935 -0.0584  0.0677
  956loPI   C2A15288  15.140   0.231   6.584 -0.2833  0.2106  0.0313
  956loPI   C3A15289  15.010   0.305   6.987 -0.1557  0.0632 -0.2863
  956loPI   C4A15290  15.026   0.245   7.379 -0.3068  0.0946  0.0849
  956loPI   C5A15291  14.955   0.332   7.856  0.0574 -0.1066  0.0188
  956loPI   C6A15292  14.945   0.752   8.026  0.2477 -0.2198 -0.1379
  956loPI   C1B15293  15.008   0.727   6.195 -0.1921  0.2408  0.1731
  956loPI   C2B15294  15.023   0.697   6.644 -0.0059  0.2705  0.1965
  956loPI   C3B15295  14.958   0.766   7.084 -0.0011  0.4021 -0.0794
  956loPI   C4B15296  15.002   0.755   7.516  0.0043 -0.1787  0.0572
  957loPI    C115297  17.568  17.937   5.388 -0.0593 -0.1691  0.1632
  957loPI    C215298  17.590  17.574   5.556  0.0324 -0.2697 -0.0614
  957loPI    C315299  17.727  17.631   5.185  0.0816  0.0123 -0.0024
  957loPI   PO415300  17.603  18.071   5.625  0.1288 -0.2443 -0.2964
  957loPI   GL115301  17.611  17.992   5.986 -0.0983 -0.2275  0.0812
  957loPI   GL215302  17.410  17.762   6.026 -0.0539  0.1189 -0.1273
  957loPI   C1A15303  17.727  18.008   6.383 -0.1433  0.2133  0.0413
  957loPI   C2A15304  17.746  18.088   6.761 -0.2295 -0.0827 -0.2208
  957loPI   C3A15305  17.727  18.079   7.164  0.2798  0.0080 -0.2793
  957loPI   C4A15306  17.806  18.096   7.654 -0.1450  0.1024 -0.1441
  957loPI   C5A15307  17.803  17.863   8.027  0.0209 -0.1507  0.1960
  957loPI   C6A15308  17.661  17.541   8.069 -0.2605  0.0073  0.1341
  957loPI   C1B15309  17.352  17.717   6.435 -0.3604  0.0785 -0.0540
  957loPI   C2B15310  17.331  17.820   6.874  0.1972 -0.2399 -0.0091
  957loPI   C3B15311  17.375  17.807   7.273 -0.2770 -0.1407 -0.1557
  957loPI   C4B15312  17.385  17.814   7.718 -0.1073  0.0046  0.0694
  958loPI    C115313  15.883   1.615   5.469  0.0561  0.1251 -0.0703
  958loPI    C215314  15.574   1.767   5.265  0.0022 -0.0660 -0.1334
  958loPI    C315315  15.877   1.594   5.069  0.1363  0.0937 -0.0702
  958loPI   PO415316  15.737   1.415   5.670  0.0044  0.0793 -0.1356
  958loPI   GL115317  15.635   1.461   6.081  0.1444  0.0195 -0.0295
  958loPI   GL215318  15.288   1.524   6.064  0.0004  0.0942 -0.0508
  958loPI   C1A15319  15.721   1.394   6.407 -0.1094  0.1314  0.2914
  958loPI   C2A15320  15.798   1.376   6.867  0.0198  0.0735  0.2063
  958loPI   C3A15321  15.754   1.345   7.244  0.2041 -0.1949 -0.1879
  958loPI   C4A15322  15.737   1.440   7.705 -0.1069  0.0753 -0.0014
  958loPI   C5A15323  15.760   1.822   7.876 -0.1105 -0.3770  0.0002
  958loPI   C6A15324  15.641   2.134   8.258 -0.0426  0.0365 -0.0577
  958loPI   C1B15325  15.301   1.633   6.419 -0.0823 -0.1156 -0.2243
  958loPI   C2B15326  15.340   1.600   6.869 -0.1407 -0.1701  0.1598
  958loPI   C3B15327  15.289   1.564   7.242 -0.1463 -0.1079  0.0371
  958loPI   C4B15328  15.250   1.589   7.710  0.0421  0.1142  0.2537
  959loPI    C115329   9.012   6.134   5.206  0.0001  0.0406  0.0247
  959loPI    C215330   9.284   6.012   4.939 -0.0702 -0.1347  0.0322
  959loPI    C315331   8.901   5.900   4.901 -0.1587  0.1802 -0.0264
  959loPI   PO415332   9.074   6.120   5.446 -0.3293 -0.0950 -0.3021
  959loPI   GL115333   9.414   6.245   5.696 -0.3507  0.0526 -0.1756
  959loPI   GL215334   9.098   6.260   5.908  0.2610 -0.2434 -0.2734
  959loPI   C1A15335   9.559   6.074   6.091  0.0749 -0.1134  0.0279
  959loPI   C2A15336   9.709   6.232   6.500  0.4555  0.1040  0.0296
  959loPI   C3A15337   9.680   6.273   6.874 -0.0002 -0.0595 -0.0091
  959loPI   C4A15338   9.712   6.260   7.386 -0.2500  0.0208 -0.2131
  959loPI   C5A15339   9.763   6.412   7.854  0.1904 -0.0947 -0.1704
  959loPI   C6A15340   9.671   6.650   8.262  0.0399 -0.1764 -0.0573
  959loPI   C1B15341   9.113   6.316   6.322 -0.0191  0.1944  0.0800
  959loPI   C2B15342   9.244   6.391   6.755  0.0963  0.0651  0.1807
  959loPI   C3B15343   9.283   6.459   7.197  0.2015 -0.1301  0.0101
  959loPI   C4B15344   9.228   6.549   7.582  0.0113 -0.1519  0.0256
  960loPI    C115345  14.355   5.811   5.347 -0.2202  0.0286 -0.0416
  960loPI    C215346  14.446   5.912   4.970 -0.2561 -0.1836 -0.1084
  960loPI    C315347  14.488   5.533   5.092 -0.1344 -0.0942  0.1351
  960loPI   PO415348  14.445   6.024   5.549 -0.0379  0.0067  0.0163
  960loPI   GL115349  14.565   6.198   5.986 -0.1138  0.0378 -0.5889
  960loPI   GL215350  14.924   6.013   6.025  0.0713  0.4213  0.2273
  960loPI   C1A15351  14.596   6.127   6.381 -0.2836 -0.0866  0.1682
  960loPI   C2A15352  14.614   6.222   6.705 -0.0897 -0.1575  0.2222
  960loPI   C3A15353  14.545   6.236   7.078  0.1526 -0.3225 -0.0733
  960loPI   C4A15354  14.556   6.393   7.505  0.1112 -0.1388 -0.2808
  960loPI   C5A15355  14.683   6.667   7.943 -0.2368  0.2343  0.1123
  960loPI   C6A15356  14.813   6.597   8.395 -0.1052  0.4331  0.1405
  960loPI   C1B15357  15.044   5.987   6.507  0.0581 -0.1072 -0.0597
  960loPI   C2B15358  15.175   6.036   6.900  0.0577  0.2276 -0.1790
  960loPI   C3B15359  15.135   6.042   7.395 -0.0876  0.1527  0.1955
  960loPI   C4B15360  14.994   6.276   7.769  0.2278 -0.1738 -0.1684
  961loPI    C115361   7.124  17.719   5.330  0.0015  0.1040 -0.1110
  961loPI    C215362   6.857  17.745   5.034 -0.2366 -0.0012  0.0915
  961loPI    C315363   7.157  17.482   5.010 -0.2851 -0.0457 -0.0326
  961loPI   PO415364   7.090  17.757   5.588 -0.1079  0.1440 -0.0371
  961loPI   GL115365   7.005  17.963   5.928  0.0664  0.2121  0.0976
  961loPI   GL215366   7.200  18.214   5.988 -0.3659  0.0927 -0.2701
  961loPI   C1A15367   6.901  17.991   6.325 -0.0874 -0.1540 -0.1639
  961loPI   C2A15368   6.934  18.049   6.774  0.1067  0.1919 -0.0060
  961loPI   C3A15369   6.954  18.078   7.197 -0.3260 -0.3499 -0.2289
  961loPI   C4A15370   7.035  18.132   7.731 -0.2206 -0.1402  0.0771
  961loPI   C5A15371   7.246  18.095   8.017 -0.3792 -0.4874 -0.0800
  961loPI   C6A15372   7.698  18.183   8.241 -0.1068  0.0511 -0.1032
  961loPI   C1B15373   7.299  18.424   6.288 -0.2103  0.3055  0.0810
  961loPI   C2B15374   7.328  18.449   6.652 -0.1841 -0.0493 -0.0022
  961loPI   C3B15375   7.400  18.387   7.113  0.2706  0.0632 -0.3031
  961loPI   C4B15376   7.468  18.463   7.571  0.2647 -0.0693 -0.0395
  962loPI    C115377  15.626  15.154   5.582 -0.1678  0.1846 -0.1321
  962loPI    C215378  15.793  15.271   5.238  0.0366 -0.0790 -0.1254
  962loPI    C315379  15.546  14.956   5.243 -0.0634  0.0001 -0.0504
  962loPI   PO415380  15.870  15.073   5.764 -0.1539  0.0522 -0.0742
  962loPI   GL115381  15.947  15.047   6.136 -0.1752 -0.0529  0.0750
  962loPI   GL215382  15.881  15.344   6.233  0.2097 -0.2238 -0.0943
  962loPI   C1A15383  15.980  14.873   6.533 -0.2954 -0.1840  0.0346
  962loPI   C2A15384  15.969  14.903   6.971  0.1178  0.2287  0.0616
  962loPI   C3A15385  15.975  14.929   7.444  0.1519 -0.2386  0.1725
  962loPI   C4A15386  16.089  15.024   7.860 -0.1267 -0.0612 -0.1716
  962loPI   C5A15387  15.942  14.996   8.315 -0.1040  0.2473  0.3317
  962loPI   C6A15388  15.983  14.811   8.697 -0.1011  0.0969  0.0503
  962loPI   C1B15389  15.950  15.367   6.634  0.2828 -0.0715  0.1343
  962loPI   C2B15390  15.882  15.395   7.121  0.0080  0.2415 -0.1403
  962loPI   C3B15391  15.941  15.488   7.606 -0.3208  0.0775 -0.2094
  962loPI   C4B15392  15.831  15.545   8.018 -0.1878  0.0324  0.0880
  963loPI    C115393  10.708   5.928   4.976  0.0475 -0.0693 -0.1177
  963loPI    C215394  10.973   6.009   4.688  0.1780  0.0629  0.0378
  963loPI    C315395  10.601   6.154   4.664  0.1922  0.0843 -0.0575
  963loPI   PO415396  10.886   5.997   5.270 -0.0604 -0.1196  0.3302
  963loPI   GL115397  10.749   5.966   5.649  0.1168 -0.3988 -0.2208
  963loPI   GL215398  11.080   5.821   5.863  0.1024 -0.0923 -0.1235
  963loPI   C1A15399  10.622   5.927   6.105  0.1707 -0.0242  0.0962
  963loPI   C2A15400  10.657   5.911   6.584 -0.4302 -0.0164 -0.1643
  963loPI   C3A15401  10.632   5.975   6.980  0.0858  0.1947 -0.0370
  963loPI   C4A15402  10.668   6.011   7.383  0.2285 -0.3413 -0.3207
  963loPI   C5A15403  10.661   5.995   7.815 -0.0213  0.1192 -0.0052
  963loPI   C6A15404  10.684   6.076   8.176  0.2196 -0.1848  0.1254
  963loPI   C1B15405  11.138   5.678   6.332  0.0099 -0.1945 -0.2786
  963loPI   C2B15406  11.085   5.756   6.826 -0.0955  0.1209 -0.3153
  963loPI   C3B15407  11.083   5.935   7.180  0.3077  0.1328  0.1570
  963loPI   C4B15408  11.157   5.864   7.596 -0.1109  0.1983 -0.0368
  964loPI    C115409  10.631   7.637   5.512 -0.1205 -0.0773  0.0764
  964loPI    C215410  10.502   7.682   5.136 -0.1941  0.3060  0.1428
  964loPI    C315411  10.523   7.317   5.299  0.1529  0.0992 -0.3407
  964loPI   PO415412  10.840   7.814   5.584  0.2741 -0.3387  0.1319
  964loPI   GL115413  10.990   8.010   5.913 -0.0113  0.2386  0.3817
  964loPI   GL215414  10.831   7.778   6.118  0.1901  0.3931 -0.0996
  964loPI   C1A15415  11.192   8.133   6.280  0.2175 -0.1127 -0.0394
  964loPI   C2A15416  11.175   8.207   6.762  0.2215 -0.0707  0.1262
  964loPI   C3A15417  11.191   8.128   7.284  0.1363 -0.1534  0.2231
  964loPI   C4A15418  11.231   8.265   7.639 -0.1869  0.3796 -0.0352
  964loPI   C5A15419  11.180   8.132   8.117  0.1650 -0.1887  0.2985
  964loPI   C6A15420  11.145   7.858   8.505  0.2614  0.0363 -0.0500
  964loPI   C1B15421  10.733   7.794   6.527  0.4220 -0.1498 -0.1443
  964loPI   C2B15422  10.680   7.812   6.934  0.1940 -0.0706 -0.0382
  964loPI   C3B15423  10.737   7.920   7.367 -0.1179  0.2397 -0.1198
  964loPI   C4B15424  10.788   7.980   7.803 -0.1777 -0.2377 -0.0130
  965loPI    C115425   5.108  12.425   5.907 -0.1880 -0.0885  0.1056
  965loPI    C215426   5.235  12.505   5.536 -0.0132 -0.0480  0.1735
  965loPI    C315427   5.278  12.137   5.687 -0.2074 -0.0997  0.1052
  965loPI   PO415428   5.228  12.613   6.035  0.0371  0.0939 -0.1121
  965loPI   GL115429   5.505  12.914   6.404  0.0433 -0.1146 -0.2606
  965loPI   GL215430   5.681  13.163   6.313 -0.0387  0.1258  0.1224
  965loPI   C1A15431   5.343  12.675   6.684 -0.0143 -0.2704  0.1195
  965loPI   C2A15432   5.023  12.393   6.894 -0.0445  0.1188 -0.1139
  965loPI   C3A15433   4.631  12.326   6.795  0.0971 -0.2708  0.0883
  965loPI   C4A15434   4.327  12.583   6.890  0.0372  0.3156 -0.1282
  965loPI   C5A15435   4.413  12.713   7.192 -0.1148  0.2135  0.0582
  965loPI   C6A15436   4.377  12.654   7.701  0.0606 -0.1959 -0.0643
  965loPI   C1B15437   5.777  13.111   6.754  0.0513  0.1851  0.0153
  965loPI   C2B15438   5.865  13.042   7.144 -0.0880 -0.0270  0.1522
  965loPI   C3B15439   5.832  13.121   7.629  0.1644 -0.2526 -0.0624
  965loPI   C4B15440   5.474  13.334   7.824  0.1770  0.0981 -0.1748
  966loPI    C115441   6.349   0.362   5.374 -0.0863  0.1008 -0.1660
  966loPI    C215442   6.266   0.643   5.102 -0.1906  0.0672 -0.1695
  966loPI    C315443   5.992   0.367   5.193 -0.0904 -0.0309 -0.1626
  966loPI   PO415444   6.370   0.526   5.582 -0.0851  0.0663 -0.3197
  966loPI   GL115445   6.260   0.474   5.939 -0.1234 -0.1796 -0.0111
  966loPI   GL215446   6.371   0.691   6.085 -0.0966 -0.2977  0.2490
  966loPI   C1A15447   6.017   0.406   6.316  0.0127  0.1769 -0.1129
  966loPI   C2A15448   5.978   0.464   6.776 -0.3102 -0.1381 -0.2242
  966loPI   C3A15449   5.961   0.465   7.190 -0.0641  0.0758 -0.1964
  966loPI   C4A15450   6.083   0.508   7.619  0.1850 -0.0612  0.0034
  966loPI   C5A15451   6.118   0.718   8.017  0.0443  0.0879  0.0251
  966loPI   C6A15452   6.148   1.068   8.114 -0.2127 -0.0411 -0.1036
  966loPI   C1B15453   6.349   0.681   6.577 -0.1117  0.1481 -0.1480
  966loPI   C2B15454   6.426   0.766   7.011  0.0468  0.1925  0.0795
  966loPI   C3B15455   6.470   0.728   7.404  0.2178 -0.0796 -0.2239
  966loPI   C4B15456   6.560   0.856   7.817 -0.1858  0.0583 -0.0443
  967loPI    C115457   4.943   9.960   5.809  0.1763 -0.0176  0.0171
  967loPI    C215458   5.032  10.001   5.421  0.1345  0.0783  0.0172
  967loPI    C315459   4.766   9.726   5.537 -0.0315  0.2096 -0.0478
  967loPI   PO415460   5.153   9.941   5.922 -0.1355 -0.0666 -0.0977
  967loPI   GL115461   5.198   9.838   6.271 -0.0338  0.2511 -0.1355
  967loPI   GL215462   4.935   9.757   6.384  0.0480  0.4816 -0.1236
  967loPI   C1A15463   5.514   9.812   6.611 -0.0229 -0.1252  0.0234
  967loPI   C2A15464   5.583   9.821   7.051  0.0705  0.1835  0.0339
  967loPI   C3A15465   5.627   9.820   7.484  0.0858 -0.1918  0.0374
  967loPI   C4A15466   5.517   9.934   7.929  0.1383  0.0295  0.2165
  967loPI   C5A15467   5.633   9.558   8.144  0.0974 -0.0713 -0.0105
  967loPI   C6A15468   5.457   9.122   7.972 -0.2523  0.0327 -0.2003
  967loPI   C1B15469   5.083   9.596   6.718 -0.1576 -0.0817 -0.0866
  967loPI   C2B15470   5.175   9.550   7.097  0.2670  0.1278  0.2566
  967loPI   C3B15471   5.212   9.522   7.574 -0.0862  0.2428 -0.0252
  967loPI   C4B15472   5.144   9.632   8.078 -0.3682  0.0164  0.1514
  968loPI    C115473   1.766  17.418   5.445 -0.1220  0.0258 -0.1324
  968loPI    C215474   2.134  17.507   5.316 -0.0685 -0.0539 -0.0361
  968loPI    C315475   1.859  17.795   5.349  0.0610  0.0521  0.1359
  968loPI   PO415476   1.699  17.338   5.674 -0.1257 -0.3260 -0.0035
  968loPI   GL115477   1.567  17.155   6.008  0.2211  0.1684  0.1600
  968loPI   GL215478   1.788  16.923   6.089  0.2476  0.0259  0.1714
  968loPI   C1A15479   1.670  17.440   6.406 -0.0572 -0.0707 -0.1992
  968loPI   C2A15480   1.688  17.293   6.886  0.0828 -0.0488 -0.2160
  968loPI   C3A15481   1.670  17.349   7.296 -0.0109 -0.2140 -0.0913
  968loPI   C4A15482   1.675  17.322   7.789 -0.0021 -0.1741 -0.2338
  968loPI   C5A15483   1.680  17.412   8.255 -0.0501 -0.5065  0.2174
  968loPI   C6A15484   1.584  17.396   8.646  0.0498 -0.4330  0.0005
  968loPI   C1B15485   1.721  16.831   6.618 -0.1242 -0.0952  0.1007
  968loPI   C2B15486   1.751  16.786   7.076  0.0393 -0.0013  0.1505
  968loPI   C3B15487   1.750  16.864   7.458 -0.0646  0.0615 -0.1637
  968loPI   C4B15488   1.749  16.843   7.860  0.1099  0.2121 -0.1359
  969loPI    C115489   3.516  16.126   5.510  0.0599 -0.2831  0.0000
  969loPI    C215490   3.803  16.213   5.776  0.0025 -0.2807  0.0615
  969loPI    C315491   3.875  16.250   5.384  0.1168 -0.3719  0.0733
  969loPI   PO415492   3.260  16.332   5.528 -0.1060  0.1958  0.2541
  969loPI   GL115493   3.219  16.628   5.926 -0.2548  0.0647 -0.4166
  969loPI   GL215494   3.377  16.354   5.987 -0.1535  0.2385 -0.3578
  969loPI   C1A15495   3.119  16.665   6.305 -0.1787  0.0154  0.1174
  969loPI   C2A15496   3.020  16.836   6.692 -0.0074 -0.0522 -0.0534
  969loPI   C3A15497   3.077  16.708   7.200  0.0226  0.2086  0.2528
  969loPI   C4A15498   3.035  16.772   7.566 -0.0267 -0.2480  0.2041
  969loPI   C5A15499   3.148  16.676   7.929 -0.1670  0.0043 -0.0485
  969loPI   C6A15500   3.106  16.426   8.268 -0.2173  0.2053 -0.3218
  969loPI   C1B15501   3.647  16.466   6.297  0.0937  0.0797 -0.2314
  969loPI   C2B15502   3.549  16.657   6.628 -0.0596  0.3338  0.0628
  969loPI   C3B15503   3.599  16.471   7.051  0.1425  0.2859 -0.1832
  969loPI   C4B15504   3.478  16.516   7.450  0.1292  0.2389 -0.0923
  970loPI    C115505   2.939   6.626   5.713  0.1900  0.0892 -0.0435
  970loPI    C215506   3.220   6.798   5.486  0.1704 -0.2287 -0.3160
  970loPI    C315507   2.933   6.577   5.316 -0.1776 -0.0079 -0.0297
  970loPI   PO415508   3.007   6.405   5.898 -0.2782  0.1211  0.0125
  970loPI   GL115509   3.224   6.451   6.290 -0.1240 -0.0450 -0.0562
  970loPI   GL215510   3.471   6.400   6.135  0.1496  0.0390  0.0998
  970loPI   C1A15511   3.401   6.406   6.821 -0.0467 -0.0250 -0.1600
  970loPI   C2A15512   3.390   6.414   7.237 -0.0641  0.2582 -0.3046
  970loPI   C3A15513   3.417   6.404   7.639 -0.1923  0.1547  0.0465
  970loPI   C4A15514   3.524   6.182   8.096 -0.0407  0.0110 -0.3849
  970loPI   C5A15515   3.377   6.210   8.475  0.2274  0.0833 -0.0524
  970loPI   C6A15516   3.317   6.232   8.923  0.1111  0.1672 -0.1994
  970loPI   C1B15517   3.726   6.220   6.484 -0.0736  0.0735  0.1354
  970loPI   C2B15518   3.822   6.192   6.871 -0.1150  0.1416 -0.0113
  970loPI   C3B15519   3.839   6.136   7.223  0.3420  0.0319 -0.0158
  970loPI   C4B15520   3.871   6.130   7.649 -0.2294 -0.0972 -0.2166
  971loPI    C115521  14.847   1.505   5.193 -0.2704  0.2260  0.0180
  971loPI    C215522  14.716   1.296   4.878  0.0293 -0.1839  0.1558
  971loPI    C315523  14.955   1.612   4.823  0.1872 -0.3322 -0.0248
  971loPI   PO415524  14.772   1.357   5.427  0.1030  0.1021 -0.0401
  971loPI   GL115525  14.582   1.433   5.846  0.3699  0.0180 -0.2617
  971loPI   GL215526  14.892   1.290   5.918  0.1898 -0.2251 -0.1270
  971loPI   C1A15527  14.444   1.349   6.356  0.4655  0.2352 -0.0988
  971loPI   C2A15528  14.445   1.469   6.887 -0.2228 -0.0303  0.0512
  971loPI   C3A15529  14.452   1.450   7.332  0.1698  0.1323 -0.2597
  971loPI   C4A15530  14.396   1.515   7.812 -0.2863 -0.1772  0.0478
  971loPI   C5A15531  14.193   1.408   8.162  0.0282  0.1977  0.1540
  971loPI   C6A15532  14.178   1.380   8.579  0.0448 -0.0314  0.0347
  971loPI   C1B15533  14.927   1.223   6.384 -0.1394  0.1325  0.0204
  971loPI   C2B15534  14.888   1.301   6.688 -0.2204 -0.0438 -0.2971
  971loPI   C3B15535  14.913   1.236   7.142  0.0926  0.0688 -0.2019
  971loPI   C4B15536  14.852   1.243   7.558  0.0316  0.2315 -0.0880
  972loPI    C115537  17.297   8.977   5.380 -0.0259 -0.0159  0.0309
  972loPI    C215538  16.985   8.753   5.269  0.0459 -0.0609 -0.0811
  972loPI    C315539  17.229   8.906   4.992  0.0739  0.0451  0.0020
  972loPI   PO415540  17.171   8.939   5.662  0.0086  0.1168  0.0323
  972loPI   GL115541  17.225   8.929   5.997 -0.1439  0.0936 -0.0268
  972loPI   GL215542  17.007   8.698   6.095  0.0485  0.2660  0.3240
  972loPI   C1A15543  17.322   8.953   6.360 -0.1438  0.1028  0.0870
  972loPI   C2A15544  17.396   9.031   6.808 -0.1528  0.1376 -0.1863
  972loPI   C3A15545  17.330   9.054   7.283 -0.0399  0.4084  0.3828
  972loPI   C4A15546  17.372   9.011   7.689  0.1647 -0.0129 -0.2484
  972loPI   C5A15547  17.332   9.165   8.046 -0.0691  0.1498 -0.2943
  972loPI   C6A15548  17.281   8.905   8.333 -0.0397  0.2137  0.0507
  972loPI   C1B15549  16.940   8.719   6.559  0.0048  0.3163 -0.1374
  972loPI   C2B15550  16.963   8.742   6.970  0.2575 -0.0718  0.0044
  972loPI   C3B15551  16.958   8.706   7.360 -0.1809 -0.1984 -0.2289
  972loPI   C4B15552  16.871   8.766   7.832  0.0913  0.1807  0.1326
  973loPI    C115553  13.269   1.506   5.174 -0.2053  0.0522  0.1597
  973loPI    C215554  13.150   1.548   4.795  0.0391 -0.2252  0.0481
  973loPI    C315555  13.439   1.782   4.941  0.0499 -0.2193  0.0174
  973loPI   PO415556  13.082   1.545   5.335 -0.2033 -0.2209  0.0299
  973loPI   GL115557  13.037   1.540   5.761 -0.0141 -0.1875 -0.0263
  973loPI   GL215558  13.351   1.512   5.854  0.1860 -0.2360 -0.2534
  973loPI   C1A15559  13.052   1.356   6.189  0.2077  0.0072 -0.1536
  973loPI   C2A15560  13.110   1.481   6.588  0.2238  0.1267  0.1267
  973loPI   C3A15561  13.112   1.505   7.040 -0.0816 -0.1663  0.1565
  973loPI   C4A15562  13.154   1.567   7.506 -0.0033  0.0180  0.0309
  973loPI   C5A15563  13.220   1.500   7.880 -0.2337 -0.2344  0.1484
  973loPI   C6A15564  13.577   1.618   8.131  0.4776  0.0885 -0.2478
  973loPI   C1B15565  13.494   1.680   6.228  0.2595 -0.0775 -0.0061
  973loPI   C2B15566  13.526   1.807   6.745 -0.1524 -0.1160  0.0062
  973loPI   C3B15567  13.550   1.807   7.159  0.0818 -0.0927 -0.0816
  973loPI   C4B15568  13.550   1.881   7.618 -0.0441  0.0883  0.0667
  974loPI    C115569   3.381   0.176   5.294 -0.1111  0.1196 -0.0412
  974loPI    C215570   3.174   0.440   5.075  0.0391  0.2310 -0.0506
  974loPI    C315571   3.387   0.153   4.895  0.1090  0.2818 -0.0490
  974loPI   PO415572   3.572   0.337   5.435 -0.0261  0.4339  0.0807
  974loPI   GL115573   3.927   0.394   5.737  0.0513 -0.0451  0.0413
  974loPI   GL215574   4.121   0.291   5.749  0.0107 -0.1426  0.3806
  974loPI   C1A15575   3.764   0.382   6.141  0.2924  0.0046  0.0853
  974loPI   C2A15576   3.766   0.463   6.614  0.1485  0.0038  0.0239
  974loPI   C3A15577   3.775   0.515   7.026  0.1031 -0.1675  0.2352
  974loPI   C4A15578   3.719   0.420   7.436  0.0966  0.0090  0.0444
  974loPI   C5A15579   3.734   0.542   7.892 -0.1897 -0.1363  0.0126
  974loPI   C6A15580   3.664   0.830   8.151 -0.3636 -0.0073  0.1761
  974loPI   C1B15581   4.256   0.208   6.156  0.2650  0.0255 -0.1396
  974loPI   C2B15582   4.282   0.257   6.639  0.1467 -0.1297  0.3065
  974loPI   C3B15583   4.270   0.243   6.975  0.1653 -0.2742 -0.1037
  974loPI   C4B15584   4.238   0.307   7.484  0.2834 -0.1245  0.0218
  975loPI    C115585   9.782   8.332   5.126 -0.1765  0.2226  0.1810
  975loPI    C215586   9.690   8.629   4.874 -0.2869 -0.0103 -0.0585
  975loPI    C315587  10.073   8.541   4.949 -0.2539  0.1050 -0.0910
  975loPI   PO415588   9.645   8.392   5.388  0.0942 -0.0748 -0.2563
  975loPI   GL115589   9.418   8.491   5.836 -0.2884  0.0688  0.0147
  975loPI   GL215590   9.668   8.410   5.892 -0.0878  0.1833  0.0257
  975loPI   C1A15591   9.297   8.670   6.194 -0.1982 -0.0232  0.1301
  975loPI   C2A15592   9.325   8.907   6.657  0.0759 -0.4333 -0.1407
  975loPI   C3A15593   9.255   8.911   7.062 -0.0854 -0.1108 -0.2385
  975loPI   C4A15594   9.314   9.014   7.451 -0.1036 -0.0193  0.1362
  975loPI   C5A15595   9.349   9.015   7.899  0.2806  0.3800  0.2523
  975loPI   C6A15596   9.717   9.114   8.153  0.0374 -0.2797  0.2286
  975loPI   C1B15597   9.805   8.533   6.222 -0.2232  0.2303 -0.3786
  975loPI   C2B15598   9.851   8.686   6.685 -0.1436  0.0766 -0.0455
  975loPI   C3B15599   9.727   8.796   7.068 -0.3453 -0.1360  0.2614
  975loPI   C4B15600   9.830   8.818   7.504 -0.0465  0.2180 -0.3635
  976loPI    C115601  17.634  13.560   5.733 -0.2779  0.1428  0.0108
  976loPI    C215602  17.656  13.815   5.426 -0.3224  0.0112 -0.1024
  976loPI    C315603  17.542  13.437   5.364  0.1696 -0.1603 -0.0076
  976loPI   PO415604  17.683  13.737   5.933  0.2841  0.0500  0.0006
  976loPI   GL115605  17.487  13.835   6.271  0.0510  0.0558  0.0397
  976loPI   GL215606  17.181  13.942   6.247  0.1239  0.1268 -0.1030
  976loPI   C1A15607  17.374  13.831   6.743  0.1434 -0.0962 -0.0849
  976loPI   C2A15608  17.465  13.782   7.176 -0.0508  0.4951 -0.1109
  976loPI   C3A15609  17.437  13.902   7.550  0.1938 -0.1367  0.2331
  976loPI   C4A15610  17.484  13.880   7.865 -0.0046  0.0574  0.1470
  976loPI   C5A15611  17.758  14.176   8.128  0.0650 -0.0299  0.0558
  976loPI   C6A15612  17.870  14.224   8.612 -0.3052 -0.1100 -0.1314
  976loPI   C1B15613  16.928  14.005   6.701 -0.0237 -0.0209 -0.0190
  976loPI   C2B15614  17.013  14.038   7.182 -0.3112  0.0579 -0.1328
  976loPI   C3B15615  16.980  14.063   7.698 -0.2317 -0.1063  0.1349
  976loPI   C4B15616  17.083  14.035   8.180 -0.2117  0.2118  0.0111
  977loPI    C115617   1.535   5.965   5.308  0.0758 -0.4308  0.0913
  977loPI    C215618   1.866   6.099   5.128 -0.2803  0.1111 -0.1901
  977loPI    C315619   1.622   5.846   4.936 -0.2834  0.1055 -0.1788
  977loPI   PO415620   1.618   6.024   5.626  0.0610 -0.2754  0.2058
  977loPI   GL115621   1.378   5.927   6.069  0.1823  0.0077  0.0237
  977loPI   GL215622   1.509   6.265   6.041  0.2137 -0.4016  0.0603
  977loPI   C1A15623   1.245   5.818   6.551 -0.1340  0.2094 -0.2027
  977loPI   C2A15624   1.137   5.864   6.978  0.1936  0.4372  0.1147
  977loPI   C3A15625   1.185   5.850   7.399 -0.2347 -0.1538 -0.2180
  977loPI   C4A15626   1.140   5.787   7.869  0.0797 -0.0390 -0.0431
  977loPI   C5A15627   1.070   5.854   8.226 -0.2058 -0.0602 -0.0810
  977loPI   C6A15628   0.713   6.013   8.558  0.1266 -0.1449 -0.0604
  977loPI   C1B15629   1.721   6.171   6.386  0.1378  0.5558  0.2437
  977loPI   C2B15630   1.617   6.189   6.790  0.0541  0.1671  0.0077
  977loPI   C3B15631   1.610   6.214   7.218 -0.1501  0.2003  0.0412
  977loPI   C4B15632   1.660   6.209   7.699  0.0246  0.1467  0.0241
  978loPI    C115633   6.650  17.299   5.197 -0.2104  0.0181  0.0676
  978loPI    C215634   6.346  17.425   4.969 -0.2169 -0.0349  0.0469
  978loPI    C315635   6.681  17.287   4.799 -0.0998  0.2166  0.0691
  978loPI   PO415636   6.623  17.474   5.382  0.1126 -0.2924  0.1660
  978loPI   GL115637   6.699  17.491   5.838 -0.0745  0.0469  0.2803
  978loPI   GL215638   6.589  17.701   5.898 -0.0458  0.2108 -0.0967
  978loPI   C1A15639   7.000  17.500   6.205 -0.2324 -0.2355  0.1930
  978loPI   C2A15640   7.016  17.492   6.643  0.0587 -0.3053  0.2361
  978loPI   C3A15641   6.946  17.540   7.068  0.0824  0.1263 -0.2497
  978loPI   C4A15642   7.030  17.636   7.371  0.0050  0.3077 -0.0045
  978loPI   C5A15643   7.108  17.620   7.841 -0.0778 -0.0066 -0.1053
  978loPI   C6A15644   7.138  17.359   8.220  0.1140  0.4849  0.3303
  978loPI   C1B15645   6.539  17.613   6.374 -0.0065  0.1638  0.3135
  978loPI   C2B15646   6.564  17.687   6.830  0.2967  0.1984 -0.0817
  978loPI   C3B15647   6.523  17.756   7.230  0.0847 -0.3360  0.0747
  978loPI   C4B15648   6.648  17.745   7.641 -0.1536 -0.2592 -0.1154
  979loPI    C115649   5.157   3.406   5.635 -0.2835 -0.0389  0.0043
  979loPI    C215650   4.942   3.360   5.301 -0.1029  0.0894 -0.1314
  979loPI    C315651   5.288   3.560   5.290  0.0151 -0.0985  0.0883
  979loPI   PO415652   4.896   3.515   5.854  0.0174 -0.0362 -0.3848
  979loPI   GL115653   4.809   3.921   6.186  0.3111  0.1383  0.0145
  979loPI   GL215654   4.503   4.015   6.260 -0.2903  0.0890 -0.0903
  979loPI   C1A15655   5.026   3.722   6.541 -0.1769  0.2732 -0.1216
  979loPI   C2A15656   5.152   3.711   7.000  0.1465  0.0689 -0.1264
  979loPI   C3A15657   5.107   3.689   7.423  0.0764  0.0366  0.0114
  979loPI   C4A15658   5.003   3.711   7.785 -0.1292 -0.0329 -0.2583
  979loPI   C5A15659   4.993   3.875   8.148  0.0904 -0.2285 -0.0743
  979loPI   C6A15660   4.687   4.221   8.341  0.1414  0.3623  0.0460
  979loPI   C1B15661   4.608   3.936   6.673  0.2265 -0.1182 -0.0943
  979loPI   C2B15662   4.647   3.942   7.012  0.0740  0.2066  0.2456
  979loPI   C3B15663   4.654   3.954   7.465  0.0343  0.0014  0.1224
  979loPI   C4B15664   4.521   3.974   7.922  0.1788  0.0038 -0.0728
  980loPI    C115665  16.064   3.404   5.113 -0.1644 -0.1988  0.2358
  980loPI    C215666  16.218   3.459   4.749 -0.1349 -0.2123  0.2463
  980loPI    C315667  15.913   3.686   4.873 -0.1658 -0.2290  0.2013
  980loPI   PO415668  16.236   3.389   5.271  0.3999  0.0232 -0.2008
  980loPI   GL115669  16.109   3.543   5.739 -0.0362  0.2382  0.1689
  980loPI   GL215670  16.314   3.651   5.975 -0.2283  0.3136 -0.2314
  980loPI   C1A15671  16.001   3.251   6.142  0.2668 -0.0497  0.0547
  980loPI   C2A15672  15.991   3.223   6.589 -0.0432  0.0327 -0.1919
  980loPI   C3A15673  16.009   3.262   7.009 -0.0259 -0.0746 -0.1185
  980loPI   C4A15674  15.993   3.150   7.409 -0.0525  0.0134  0.0141
  980loPI   C5A15675  16.041   3.010   7.886  0.1038 -0.0739 -0.2745
  980loPI   C6A15676  15.773   3.270   8.338  0.1930  0.1916  0.3090
  980loPI   C1B15677  16.344   3.537   6.377  0.0243 -0.0817 -0.2820
  980loPI   C2B15678  16.385   3.528   6.840  0.1395 -0.3068  0.1726
  980loPI   C3B15679  16.418   3.586   7.170  0.3491  0.3465  0.1004
  980loPI   C4B15680  16.453   3.517   7.593 -0.1880  0.0042 -0.2277
  981loPI    C115681  16.670   1.184   5.173 -0.1471  0.1725  0.0739
  981loPI    C215682  16.395   1.475   5.175 -0.1248  0.1951 -0.0376
  981loPI    C315683  16.688   1.479   4.904 -0.1216  0.0705 -0.0372
  981loPI   PO415684  16.706   1.137   5.436 -0.3439  0.2092 -0.1732
  981loPI   GL115685  16.670   1.036   5.794  0.2243  0.0106  0.1430
  981loPI   GL215686  16.990   0.806   5.870  0.0983 -0.0761 -0.3485
  981loPI   C1A15687  16.768   0.966   6.238  0.0573  0.0065  0.2313
  981loPI   C2A15688  16.776   0.998   6.633 -0.0901  0.0305 -0.0500
  981loPI   C3A15689  16.748   1.024   7.119 -0.0412  0.0449 -0.2377
  981loPI   C4A15690  16.772   1.006   7.563  0.4004 -0.0384  0.0432
  981loPI   C5A15691  16.765   1.063   8.025 -0.4249 -0.3490  0.1986
  981loPI   C6A15692  16.610   1.285   8.265  0.2438  0.1024 -0.2649
  981loPI   C1B15693  17.263   0.775   6.177  0.0978  0.0549 -0.1556
  981loPI   C2B15694  17.229   0.781   6.562 -0.2206 -0.0793 -0.0791
  981loPI   C3B15695  17.228   0.811   6.971 -0.0468 -0.1569  0.1637
  981loPI   C4B15696  17.170   0.794   7.372  0.2622  0.0358  0.2089
  982loPI    C115697  15.626   9.388   5.322 -0.0908 -0.3586  0.0455
  982loPI    C215698  15.801   9.412   4.963  0.1577  0.4936  0.2018
  982loPI    C315699  15.410   9.490   5.000  0.0092 -0.1223  0.0518
  982loPI   PO415700  15.829   9.315   5.486  0.2827  0.2552 -0.0754
  982loPI   GL115701  15.853   9.384   5.896 -0.0904 -0.1444 -0.1100
  982loPI   GL215702  15.953   9.020   6.053  0.2742  0.0583  0.2816
  982loPI   C1A15703  15.887   9.500   6.250  0.0580 -0.2762  0.1190
  982loPI   C2A15704  15.878   9.547   6.684  0.3100 -0.2911  0.0347
  982loPI   C3A15705  15.992   9.621   7.145  0.3058  0.1730  0.0280
  982loPI   C4A15706  15.935   9.742   7.482  0.2269  0.2558 -0.0893
  982loPI   C5A15707  15.872   9.648   7.918  0.4063 -0.4715 -0.2830
  982loPI   C6A15708  15.604   9.562   8.105  0.0311  0.1036 -0.4287
  982loPI   C1B15709  15.918   9.055   6.436  0.0409 -0.1426 -0.3579
  982loPI   C2B15710  16.010   9.122   6.903 -0.1149 -0.0725  0.1802
  982loPI   C3B15711  15.996   9.175   7.350  0.2667  0.1859  0.3143
  982loPI   C4B15712  15.900   9.076   7.736  0.2237 -0.0552 -0.0227
  983loPI    C115713  11.732   8.799   5.204  0.1456 -0.0413 -0.0188
  983loPI    C215714  11.724   9.060   4.901 -0.2080 -0.0613 -0.0311
  983loPI    C315715  11.728   8.667   4.826 -0.1469 -0.0649 -0.0097
  983loPI   PO415716  11.811   9.054   5.428 -0.1471 -0.0491 -0.2803
  983loPI   GL115717  11.735   9.127   5.769  0.0011  0.1147 -0.1413
  983loPI   GL215718  11.571   8.951   6.073  0.2118  0.0144 -0.1355
  983loPI   C1A15719  11.882   9.315   6.136 -0.3081  0.0927 -0.0703
  983loPI   C2A15720  11.889   9.426   6.541  0.0789  0.1565  0.0651
  983loPI   C3A15721  11.822   9.401   7.031  0.0461  0.3764 -0.1122
  983loPI   C4A15722  11.815   9.432   7.534 -0.0390 -0.3598 -0.1283
  983loPI   C5A15723  11.921   9.460   7.989  0.1420 -0.1999 -0.1424
  983loPI   C6A15724  12.325   9.708   8.395  0.2259 -0.1727  0.0083
  983loPI   C1B15725  11.460   8.959   6.506  0.1636 -0.0675 -0.0680
  983loPI   C2B15726  11.433   9.032   7.022  0.1210 -0.0537  0.1352
  983loPI   C3B15727  11.519   9.094   7.423 -0.1813 -0.1239  0.0718
  983loPI   C4B15728  11.630   9.046   7.894  0.3226  0.0139 -0.1302
  984loPI    C115729   8.439  17.527   5.563 -0.1262  0.5199  0.0883
  984loPI    C215730   8.081  17.428   5.414  0.1296  0.0361 -0.2317
  984loPI    C315731   8.349  17.613   5.182  0.2543 -0.0260 -0.1382
  984loPI   PO415732   8.473  17.529   5.840 -0.0218  0.1855 -0.3282
  984loPI   GL115733   8.445  17.348   6.171 -0.0969 -0.2295  0.0308
  984loPI   GL215734   8.432  17.050   6.174 -0.2496  0.0631 -0.1839
  984loPI   C1A15735   8.325  17.434   6.610 -0.3902 -0.1369 -0.1136
  984loPI   C2A15736   8.392  17.523   7.054  0.4373  0.1409 -0.1524
  984loPI   C3A15737   8.478  17.599   7.459 -0.1372  0.0449 -0.0074
  984loPI   C4A15738   8.450  17.496   7.871 -0.1652 -0.2698 -0.2742
  984loPI   C5A15739   8.330  17.324   8.113 -0.1489 -0.1052 -0.1831
  984loPI   C6A15740   8.200  17.283   8.533 -0.2515  0.1163  0.1846
  984loPI   C1B15741   8.359  16.863   6.589  0.0051 -0.1640  0.2154
  984loPI   C2B15742   8.511  17.000   6.966  0.0472  0.0733  0.0233
  984loPI   C3B15743   8.549  17.041   7.320 -0.1626  0.0336 -0.1045
  984loPI   C4B15744   8.638  16.997   7.771 -0.0273  0.3426 -0.2219
  985loPI    C115745  13.049   2.027   4.966 -0.1960 -0.2903 -0.1850
  985loPI    C215746  12.682   2.181   4.922 -0.1042 -0.0542 -0.1425
  985loPI    C315747  12.851   1.977   4.622 -0.1862  0.0194 -0.2393
  985loPI   PO415748  13.121   2.052   5.289 -0.1771  0.1188 -0.1208
  985loPI   GL115749  13.122   2.071   5.731 -0.0084  0.1399 -0.1229
  985loPI   GL215750  13.390   2.168   5.872  0.0054 -0.1273  0.0322
  985loPI   C1A15751  13.021   1.898   6.138 -0.2675 -0.3322  0.0441
  985loPI   C2A15752  13.016   2.019   6.638 -0.0335 -0.3572 -0.0669
  985loPI   C3A15753  13.089   2.031   7.060 -0.0298  0.1225  0.0974
  985loPI   C4A15754  13.102   2.097   7.397 -0.2196 -0.1965 -0.0591
  985loPI   C5A15755  12.973   2.077   7.804 -0.2690  0.1436  0.2751
  985loPI   C6A15756  12.971   1.864   8.099 -0.0065  0.1059 -0.1208
  985loPI   C1B15757  13.475   2.244   6.325  0.1549  0.1675 -0.0480
  985loPI   C2B15758  13.370   2.362   6.813  0.4445  0.0203 -0.1442
  985loPI   C3B15759  13.493   2.338   7.309 -0.3221  0.0559  0.0264
  985loPI   C4B15760  13.446   2.413   7.681 -0.0646 -0.3603  0.3331
  986loPI    C115761  10.776   3.666   5.063  0.3904 -0.1067 -0.0487
  986loPI    C215762  10.729   3.394   4.775 -0.0155 -0.1062  0.0102
  986loPI    C315763  10.683   3.782   4.692  0.0647 -0.0914  0.0339
  986loPI   PO415764  10.911   3.444   5.296  0.0780 -0.1003 -0.3982
  986loPI   GL115765  10.844   3.208   5.618  0.1484 -0.2157  0.1195
  986loPI   GL215766  10.983   3.119   5.884  0.0108  0.1037  0.1336
  986loPI   C1A15767  10.613   3.376   6.070  0.1210 -0.3375 -0.0730
  986loPI   C2A15768  10.553   3.457   6.558 -0.2115 -0.2103 -0.4170
  986loPI   C3A15769  10.548   3.563   7.015 -0.0069  0.2436 -0.4178
  986loPI   C4A15770  10.550   3.574   7.449  0.2261  0.0171 -0.0840
  986loPI   C5A15771  10.679   3.629   7.889  0.0581  0.0427  0.3053
  986loPI   C6A15772  11.142   3.631   8.084 -0.2342  0.1178  0.2210
  986loPI   C1B15773  10.956   3.320   6.394  0.2553  0.1939 -0.0860
  986loPI   C2B15774  11.028   3.422   6.816 -0.3820 -0.2762  0.0949
  986loPI   C3B15775  11.078   3.353   7.225  0.1368 -0.3356  0.1506
  986loPI   C4B15776  11.063   3.411   7.638 -0.1722  0.0951 -0.1519
  987loPI    C115777   8.927   6.664   5.255 -0.0694 -0.1214  0.1295
  987loPI    C215778   8.820   7.039   5.165  0.0068 -0.1651 -0.1515
  987loPI    C315779   8.571   6.736   5.087 -0.0031 -0.1858 -0.0405
  987loPI   PO415780   9.067   6.635   5.561 -0.0097 -0.1946  0.4350
  987loPI   GL115781   9.427   6.745   5.781 -0.1352  0.1353 -0.2969
  987loPI   GL215782   9.413   7.027   5.784  0.0306  0.1624 -0.0794
  987loPI   C1A15783   9.473   6.583   6.114 -0.1168 -0.2882  0.0315
  987loPI   C2A15784   9.532   6.773   6.579 -0.0603  0.0939 -0.2976
  987loPI   C3A15785   9.586   6.774   6.992  0.1171 -0.0690 -0.1580
  987loPI   C4A15786   9.624   6.848   7.417 -0.1644 -0.1245 -0.0739
  987loPI   C5A15787   9.543   6.873   7.821  0.2514 -0.1273  0.1198
  987loPI   C6A15788   9.181   6.704   8.064 -0.2720 -0.2646 -0.2503
  987loPI   C1B15789   9.465   7.100   6.219  0.2478 -0.2671  0.1363
  987loPI   C2B15790   9.475   7.232   6.674 -0.2228  0.0590  0.2439
  987loPI   C3B15791   9.517   7.306   7.150 -0.1679 -0.0788  0.3003
  987loPI   C4B15792   9.497   7.487   7.462  0.0088  0.1493  0.0153
  988loPI    C115793  11.623   8.366   5.298 -0.3596 -0.2765  0.1356
  988loPI    C215794  11.679   8.136   4.975  0.0994  0.2133 -0.1505
  988loPI    C315795  11.359   8.374   4.998 -0.0942 -0.0473 -0.0977
  988loPI   PO415796  11.762   8.154   5.497  0.0291 -0.1920  0.0466
  988loPI   GL115797  11.660   8.188   5.949 -0.0566  0.3307 -0.0821
  988loPI   GL215798  11.433   8.407   6.001  0.0727 -0.3254  0.1001
  988loPI   C1A15799  11.990   8.161   6.376 -0.1506 -0.0677  0.1451
  988loPI   C2A15800  11.994   8.404   6.710 -0.1555  0.3841 -0.0130
  988loPI   C3A15801  12.106   8.362   7.089  0.1585  0.1977 -0.4110
  988loPI   C4A15802  12.038   8.427   7.513 -0.0959 -0.1189  0.1303
  988loPI   C5A15803  12.099   8.351   8.023  0.3942 -0.3271  0.2630
  988loPI   C6A15804  12.156   8.397   8.397 -0.0297 -0.0642  0.1933
  988loPI   C1B15805  11.555   8.457   6.391  0.3130  0.0686 -0.0134
  988loPI   C2B15806  11.547   8.547   6.909  0.0865 -0.0418  0.1903
  988loPI   C3B15807  11.579   8.591   7.307 -0.0326  0.0048 -0.0638
  988loPI   C4B15808  11.670   8.500   7.740  0.0962 -0.1045 -0.1478
  989loPI    C115809  15.000  13.823   5.478  0.0252 -0.1200 -0.1673
  989loPI    C215810  14.803  13.794   5.131  0.0879  0.0760 -0.2203
  989loPI    C315811  14.983  14.137   5.231  0.2951 -0.0613 -0.1143
  989loPI   PO415812  14.888  13.607   5.674 -0.0128  0.2194  0.1784
  989loPI   GL115813  14.582  13.599   5.948  0.0680  0.1658 -0.1257
  989loPI   GL215814  14.862  13.460   6.171  0.0013 -0.0215  0.2742
  989loPI   C1A15815  14.422  13.258   6.175  0.0507  0.0121  0.2199
  989loPI   C2A15816  14.561  13.089   6.550  0.4694 -0.0348 -0.1311
  989loPI   C3A15817  14.424  13.119   6.977  0.1601  0.1576 -0.0534
  989loPI   C4A15818  14.472  13.190   7.357  0.2511  0.0397 -0.0948
  989loPI   C5A15819  14.391  13.277   7.819 -0.4796  0.0332  0.1283
  989loPI   C6A15820  13.955  13.333   8.131  0.0356 -0.0137 -0.1227
  989loPI   C1B15821  14.945  13.456   6.698  0.1091 -0.2863 -0.0282
  989loPI   C2B15822  14.903  13.428   7.107  0.1424  0.1304 -0.0047
  989loPI   C3B15823  14.821  13.580   7.500  0.1201 -0.2934 -0.1854
  989loPI   C4B15824  14.842  13.533   7.986 -0.0627 -0.1567 -0.5572
  990loPI    C115825  10.751   5.512   5.332  0.2372 -0.4090 -0.0723
  990loPI    C215826  10.972   5.510   4.999  0.0966  0.2712 -0.1855
  990loPI    C315827  10.578   5.442   4.979  0.1506 -0.0894 -0.0967
  990loPI   PO415828  10.880   5.431   5.565 -0.1842  0.0584 -0.3196
  990loPI   GL115829  10.898   5.348   5.983  0.0755 -0.1656 -0.0605
  990loPI   GL215830  10.730   5.092   5.974 -0.2220 -0.0584 -0.2208
  990loPI   C1A15831  10.735   5.404   6.353 -0.2334  0.2248  0.2651
  990loPI   C2A15832  10.639   5.321   6.734  0.1134 -0.1842 -0.2943
  990loPI   C3A15833  10.788   5.452   7.102  0.2411 -0.1042  0.0686
  990loPI   C4A15834  10.767   5.566   7.599 -0.0415  0.3853  0.0324
  990loPI   C5A15835  11.058   5.668   8.045 -0.0631  0.3880  0.1600
  990loPI   C6A15836  11.098   5.723   8.403  0.2753 -0.1785 -0.2124
  990loPI   C1B15837  10.833   4.886   6.397 -0.0522 -0.2392 -0.0295
  990loPI   C2B15838  10.678   4.771   6.780  0.0297  0.0869 -0.1536
  990loPI   C3B15839  10.774   4.897   7.142 -0.3532 -0.1043 -0.0374
  990loPI   C4B15840  10.836   4.987   7.544  0.1319 -0.3287 -0.1786
  991loPI    C115841   5.892  14.277   5.537 -0.3053 -0.0869 -0.2105
  991loPI    C215842   6.184  14.003   5.520 -0.1722  0.0372  0.0259
  991loPI    C315843   6.163  14.291   5.243  0.0819  0.1753  0.1457
  991loPI   PO415844   5.961  14.344   5.845 -0.3247  0.1403 -0.2555
  991loPI   GL115845   5.788  14.516   6.213  0.1001 -0.2988 -0.1163
  991loPI   GL215846   5.651  14.687   6.436  0.0165  0.3720 -0.0583
  991loPI   C1A15847   6.078  14.447   6.510  0.0065 -0.0778  0.1687
  991loPI   C2A15848   6.109  14.457   6.915  0.1416  0.2177 -0.0003
  991loPI   C3A15849   6.140  14.402   7.396  0.0210 -0.1164 -0.0398
  991loPI   C4A15850   6.149  14.517   7.844 -0.0841  0.2120  0.0493
  991loPI   C5A15851   6.166  14.517   8.315  0.1341  0.0386  0.0003
  991loPI   C6A15852   6.278  14.287   8.721  0.2288 -0.1685  0.0174
  991loPI   C1B15853   5.678  14.701   6.941  0.1468  0.0477  0.1039
  991loPI   C2B15854   5.627  14.678   7.391 -0.0489  0.0970 -0.0510
  991loPI   C3B15855   5.562  14.736   7.867 -0.3035  0.3690  0.1121
  991loPI   C4B15856   5.634  14.652   8.335  0.2413  0.3284  0.1068
  992loPI    C115857  16.070   4.064   5.205  0.1160  0.0841 -0.0120
  992loPI    C215858  16.359   3.843   5.038  0.0238  0.1312 -0.2371
  992loPI    C315859  16.298   4.219   4.915  0.0391  0.2111 -0.0052
  992loPI   PO415860  15.982   3.839   5.399  0.2473 -0.0904 -0.0553
  992loPI   GL115861  15.866   3.968   5.740  0.0544 -0.2048 -0.1201
  992loPI   GL215862  15.730   3.747   5.965 -0.2195  0.1584 -0.1995
  992loPI   C1A15863  15.870   4.313   6.152 -0.2535  0.1968  0.0682
  992loPI   C2A15864  15.815   4.257   6.589 -0.2276  0.2052  0.2336
  992loPI   C3A15865  15.816   4.397   6.988 -0.2234 -0.2341  0.0726
  992loPI   C4A15866  15.776   4.290   7.393  0.0051 -0.0660 -0.1349
  992loPI   C5A15867  15.894   4.320   7.816  0.0683 -0.1821  0.0112
  992loPI   C6A15868  15.742   4.265   8.234  0.2108 -0.1969 -0.0022
  992loPI   C1B15869  15.884   3.718   6.291 -0.1125 -0.2216  0.0784
  992loPI   C2B15870  15.852   3.815   6.802  0.1505 -0.2476 -0.0195
  992loPI   C3B15871  15.883   3.850   7.135  0.0447  0.0756 -0.0734
  992loPI   C4B15872  16.017   3.631   7.508 -0.0936  0.0063  0.1443
  993loPI    C115873  16.987  17.435   5.242  0.1132 -0.1267 -0.2685
  993loPI    C215874  17.252  17.636   5.020 -0.1420  0.3869 -0.1246
  993loPI    C315875  16.916  17.497   4.853 -0.0500  0.2336 -0.1852
  993loPI   PO415876  17.141  17.319   5.403 -0.4532 -0.1232 -0.0041
  993loPI   GL115877  17.249  17.300   5.808  0.0526  0.3468 -0.2268
  993loPI   GL215878  17.020  17.423   5.895 -0.3598  0.0692  0.3896
  993loPI   C1A15879  17.377  17.263   6.216 -0.0053  0.0298 -0.1917
  993loPI   C2A15880  17.397  17.205   6.624 -0.2223 -0.1156  0.1776
  993loPI   C3A15881  17.432  17.291   7.107 -0.4404  0.2329  0.1569
  993loPI   C4A15882  17.447  17.343   7.562 -0.0879  0.0127  0.1696
  993loPI   C5A15883  17.188  17.248   8.020 -0.1142  0.0630 -0.0044
  993loPI   C6A15884  16.847  17.113   8.198  0.1759 -0.0451 -0.1201
  993loPI   C1B15885  16.939  17.351   6.331 -0.1764 -0.0690 -0.1175
  993loPI   C2B15886  16.859  17.493   6.822 -0.1281 -0.2512 -0.0558
  993loPI   C3B15887  16.978  17.458   7.282  0.0387 -0.3820  0.0687
  993loPI   C4B15888  16.816  17.473   7.722  0.1038  0.3428 -0.0176
  994loPI    C115889   5.271   5.605   5.402 -0.1698  0.0003 -0.1069
  994loPI    C215890   5.547   5.502   5.132 -0.0377  0.3020 -0.0905
  994loPI    C315891   5.284   5.792   5.049 -0.3942 -0.0251 -0.1304
  994loPI   PO415892   5.493   5.551   5.619 -0.2543 -0.0323  0.0770
  994loPI   GL115893   5.666   5.446   5.898  0.0152  0.3207 -0.0342
  994loPI   GL215894   5.997   5.377   5.957  0.1932  0.0536 -0.1664
  994loPI   C1A15895   5.645   5.532   6.290  0.0762 -0.0797 -0.0733
  994loPI   C2A15896   5.718   5.548   6.692  0.2312  0.1652 -0.2068
  994loPI   C3A15897   5.784   5.480   7.140  0.0949 -0.0105  0.2798
  994loPI   C4A15898   5.773   5.346   7.552 -0.2032 -0.1279 -0.3084
  994loPI   C5A15899   5.910   5.161   7.960 -0.2264  0.1358  0.2947
  994loPI   C6A15900   6.023   5.081   8.491 -0.1617  0.0308 -0.1080
  994loPI   C1B15901   6.203   5.291   6.256 -0.1849  0.2260 -0.1357
  994loPI   C2B15902   6.217   5.211   6.702 -0.3125 -0.1978 -0.0596
  994loPI   C3B15903   6.252   5.247   7.169  0.0331 -0.3194  0.0921
  994loPI   C4B15904   6.273   5.285   7.627 -0.0078  0.0234 -0.0583
  995loPI    C115905   6.094   4.596   5.116 -0.3924  0.1955 -0.0381
  995loPI    C215906   6.154   4.914   4.880  0.0098  0.1429 -0.0139
  995loPI    C315907   6.270   4.550   4.759  0.0182  0.0827  0.1718
  995loPI   PO415908   6.342   4.573   5.324  0.2593 -0.0371 -0.0346
  995loPI   GL115909   6.143   4.570   5.716 -0.0037 -0.1195  0.1214
  995loPI   GL215910   6.254   4.848   5.952  0.0955  0.2947 -0.2387
  995loPI   C1A15911   6.297   4.353   6.035 -0.0553  0.1404 -0.0223
  995loPI   C2A15912   6.346   4.243   6.435  0.0993  0.1770 -0.1895
  995loPI   C3A15913   6.404   4.291   6.842  0.0893 -0.1258  0.1030
  995loPI   C4A15914   6.373   4.124   7.160  0.1819  0.0304  0.1812
  995loPI   C5A15915   6.445   4.061   7.565 -0.2721  0.0966 -0.1302
  995loPI   C6A15916   6.411   3.809   7.987 -0.0953  0.3114  0.0057
  995loPI   C1B15917   6.262   4.787   6.437 -0.2252 -0.0266 -0.3264
  995loPI   C2B15918   6.207   4.761   6.906 -0.0248  0.0249  0.2465
  995loPI   C3B15919   6.299   4.616   7.332  0.1195  0.5105 -0.1185
  995loPI   C4B15920   6.301   4.513   7.800  0.1700  0.1718  0.0675
  996loPI    C115921  12.907  14.057   5.177 -0.0439  0.3565 -0.1522
  996loPI    C215922  13.099  14.177   4.848 -0.0796  0.0725 -0.2793
  996loPI    C315923  13.099  13.790   4.949 -0.0844  0.1553  0.0460
  996loPI   PO415924  13.026  14.163   5.468 -0.0281 -0.0930  0.1672
  996loPI   GL115925  12.926  14.153   5.900 -0.0417 -0.2210 -0.0992
  996loPI   GL215926  13.240  14.066   6.068  0.0770  0.0761  0.3277
  996loPI   C1A15927  12.888  14.172   6.358  0.2258 -0.2189 -0.1930
  996loPI   C2A15928  12.972  14.175   6.799 -0.0087  0.1706 -0.2920
  996loPI   C3A15929  12.957  14.231   7.234  0.0617  0.1910  0.1076
  996loPI   C4A15930  12.912  14.261   7.628 -0.3479 -0.2565  0.0132
  996loPI   C5A15931  12.492  14.453   7.859  0.1270  0.2555  0.1148
  996loPI   C6A15932  12.364  14.425   8.322  0.2300  0.0423 -0.2923
  996loPI   C1B15933  13.296  13.941   6.457  0.1035  0.2533  0.2894
  996loPI   C2B15934  13.393  13.899   6.783 -0.0569  0.1524  0.0043
  996loPI   C3B15935  13.407  14.033   7.147  0.0890  0.2497 -0.0564
  996loPI   C4B15936  13.360  14.077   7.628  0.2370 -0.2637  0.0556
  997loPI    C115937   6.141   4.117   5.029 -0.0038  0.0815  0.0843
  997loPI    C215938   5.920   4.084   4.698 -0.2097 -0.2109  0.2466
  997loPI    C315939   6.164   3.786   4.805  0.4087  0.1778 -0.0252
  997loPI   PO415940   5.972   4.168   5.266  0.0199 -0.0320  0.0070
  997loPI   GL115941   6.036   4.028   5.711  0.1799  0.3466 -0.2190
  997loPI   GL215942   5.667   4.225   5.861  0.1495  0.0635  0.0693
  997loPI   C1A15943   6.311   3.856   5.961 -0.0619 -0.0379  0.2268
  997loPI   C2A15944   6.361   3.692   6.408 -0.1973  0.1750  0.2384
  997loPI   C3A15945   6.440   3.703   6.836  0.4060 -0.2436 -0.0549
  997loPI   C4A15946   6.453   3.668   7.263 -0.0853 -0.2759  0.0766
  997loPI   C5A15947   6.655   3.581   7.661  0.1641  0.0011  0.0409
  997loPI   C6A15948   6.999   3.495   7.920 -0.1352 -0.2436  0.2107
  997loPI   C1B15949   5.805   4.442   6.240  0.2088  0.1688 -0.0402
  997loPI   C2B15950   5.904   4.373   6.632  0.2255 -0.0244 -0.3188
  997loPI   C3B15951   5.944   4.350   7.016 -0.1917  0.2640  0.0096
  997loPI   C4B15952   5.984   4.229   7.444 -0.1738 -0.1149 -0.0505
  998loPI    C115953  11.353  15.315   5.295 -0.0215 -0.1602  0.0467
  998loPI    C215954  11.340  14.984   5.071  0.0984 -0.1192 -0.0219
  998loPI    C315955  11.692  15.152   5.160  0.0353  0.0210 -0.0337
  998loPI   PO415956  11.152  15.314   5.524  0.1250  0.0626  0.1639
  998loPI   GL115957  11.196  15.311   5.947  0.1254 -0.4484  0.0322
  998loPI   GL215958  11.395  15.176   6.088 -0.0061 -0.0392  0.0865
  998loPI   C1A15959  10.905  15.398   6.391 -0.0737 -0.3624 -0.1554
  998loPI   C2A15960  10.900  15.487   6.773  0.1758 -0.2302  0.0537
  998loPI   C3A15961  10.988  15.506   7.190  0.2346 -0.2556 -0.0995
  998loPI   C4A15962  10.922  15.487   7.664  0.1872  0.1526 -0.0406
  998loPI   C5A15963  10.890  15.469   8.101 -0.0511 -0.1680 -0.0603
  998loPI   C6A15964  10.886  15.303   8.494 -0.2495 -0.0081 -0.0193
  998loPI   C1B15965  11.404  15.280   6.470 -0.3547  0.2198  0.5101
  998loPI   C2B15966  11.310  15.236   6.915 -0.2071  0.0298  0.0282
  998loPI   C3B15967  11.396  15.208   7.356 -0.0441 -0.0108  0.1892
  998loPI   C4B15968  11.351  15.261   7.811 -0.0241 -0.2325  0.1846
  999loPI    C115969   6.103   2.423   5.246  0.1057 -0.4753 -0.2934
  999loPI    C215970   5.994   2.674   4.955 -0.0839  0.0180  0.1850
  999loPI    C315971   6.328   2.456   4.917 -0.1964 -0.0629 -0.4670
  999loPI   PO415972   6.109   2.603   5.452  0.0745  0.1662  0.1121
  999loPI   GL115973   6.191   2.922   5.756  0.1753 -0.0054 -0.2595
  999loPI   GL215974   6.523   3.118   5.723 -0.2690 -0.3226 -0.0786
  999loPI   C1A15975   6.049   2.829   6.208  0.1297  0.0515 -0.0284
  999loPI   C2A15976   6.086   2.780   6.633 -0.0045  0.0953  0.1510
  999loPI   C3A15977   6.114   2.759   7.094 -0.1235 -0.3664 -0.3326
  999loPI   C4A15978   6.178   2.842   7.542  0.0872  0.1635  0.1165
  999loPI   C5A15979   6.200   2.688   7.934  0.1545 -0.2302 -0.1315
  999loPI   C6A15980   6.487   2.840   8.321  0.0054  0.0671  0.2224
  999loPI   C1B15981   6.482   3.098   6.144  0.1001  0.2474  0.0574
  999loPI   C2B15982   6.544   3.198   6.536  0.1588 -0.1913 -0.1165
  999loPI   C3B15983   6.499   3.110   6.903  0.3782 -0.2841  0.1700
  999loPI   C4B15984   6.538   3.187   7.364  0.0616  0.0927 -0.3803
 1000loPI    C115985   9.975  16.192   5.502 -0.0793 -0.0507  0.0353
 1000loPI    C215986   9.951  16.058   5.126  0.1367 -0.0880  0.0333
 1000loPI    C315987  10.234  16.322   5.226 -0.2500  0.3340  0.0493
 1000loPI   PO415988  10.027  16.040   5.600 -0.0041  0.1530  0.2912
 1000loPI   GL115989  10.285  15.845   5.935 -0.1157 -0.0675 -0.1129
 1000loPI   GL215990  10.460  15.682   5.973 -0.2574 -0.3498 -0.2750
 1000loPI   C1A15991  10.309  16.161   6.215  0.5777  0.0891  0.1230
 1000loPI   C2A15992  10.413  16.192   6.620 -0.1194 -0.0642  0.1387
 1000loPI   C3A15993  10.433  16.274   7.051 -0.1663 -0.0323 -0.0604
 1000loPI   C4A15994  10.473  16.233   7.422 -0.0890 -0.1245  0.3054
 1000loPI   C5A15995  10.372  16.079   7.881 -0.1143 -0.0202 -0.3792
 1000loPI   C6A15996   9.986  16.179   8.077  0.0045 -0.1082  0.2693
 1000loPI   C1B15997  10.408  15.690   6.444  0.1827 -0.0164 -0.0663
 1000loPI   C2B15998  10.443  15.675   6.842  0.1760 -0.1243 -0.2304
 1000loPI   C3B15999  10.525  15.740   7.252  0.2473  0.5169 -0.0154
 1000loPI   C4B16000  10.428  15.616   7.730 -0.0449  0.2992 -0.2467
 1001loPI    C116001  14.139  15.449   5.488  0.0097 -0.0819  0.3426
 1001loPI    C216002  14.470  15.645   5.380 -0.1179 -0.0434  0.0107
 1001loPI    C316003  14.384  15.293   5.213 -0.2250 -0.0723  0.1257
 1001loPI   PO416004  14.207  15.464   5.777  0.0531 -0.0578 -0.4016
 1001loPI   GL116005  14.089  15.510   6.236  0.2925  0.0803  0.4222
 1001loPI   GL216006  13.783  15.379   6.373 -0.2112  0.3067 -0.0842
 1001loPI   C1A16007  14.112  15.692   6.661 -0.0770  0.1027 -0.1204
 1001loPI   C2A16008  14.016  15.675   7.153  0.1011 -0.0425 -0.1558
 1001loPI   C3A16009  14.022  15.717   7.643  0.1004 -0.2199 -0.3853
 1001loPI   C4A16010  14.421  15.988   7.900 -0.5394 -0.3051  0.4128
 1001loPI   C5A16011  14.838  16.351   8.082 -0.1007  0.0382  0.0751
 1001loPI   C6A16012  15.268  16.600   8.176 -0.0067  0.0824  0.4185
 1001loPI   C1B16013  13.709  15.367   6.782 -0.1195  0.0600 -0.0911
 1001loPI   C2B16014  13.593  15.393   7.201 -0.3981 -0.0883  0.2860
 1001loPI   C3B16015  13.653  15.383   7.569  0.1830 -0.0405  0.1263
 1001loPI   C4B16016  13.549  15.567   7.901 -0.0420 -0.1649  0.0796
 1002loPI    C116017  12.624  15.269   5.239 -0.0887 -0.1104  0.0361
 1002loPI    C216018  12.960  15.410   5.073 -0.3029  0.4582  0.0638
 1002loPI    C316019  12.733  15.148   4.874  0.2171 -0.0388  0.1008
 1002loPI   PO416020  12.651  15.251   5.556 -0.0228 -0.0298 -0.0033
 1002loPI   GL116021  12.639  14.947   5.916  0.1066 -0.0914  0.2155
 1002loPI   GL216022  12.880  15.140   5.961  0.0399 -0.1773 -0.2056
 1002loPI   C1A16023  12.757  14.704   6.302 -0.0162  0.0683  0.0103
 1002loPI   C2A16024  12.870  14.740   6.641  0.0936 -0.0400 -0.1466
 1002loPI   C3A16025  12.909  14.753   7.054 -0.1293 -0.2846 -0.1860
 1002loPI   C4A16026  12.847  14.743   7.487 -0.0451  0.1675 -0.1830
 1002loPI   C5A16027  12.901  14.806   7.955 -0.1361 -0.2798 -0.0410
 1002loPI   C6A16028  12.748  14.883   8.365 -0.0605 -0.1630  0.3267
 1002loPI   C1B16029  12.818  15.248   6.412 -0.0880  0.3347  0.0821
 1002loPI   C2B16030  12.731  15.229   6.833  0.1866  0.1418 -0.4118
 1002loPI   C3B16031  12.778  15.220   7.275 -0.1520 -0.1277 -0.0323
 1002loPI   C4B16032  12.816  15.249   7.722  0.0204 -0.1002 -0.2256
 1003loPI    C116033   9.526  13.524   5.481  0.0923  0.0869 -0.0852
 1003loPI    C216034   9.167  13.457   5.317 -0.0794  0.1548  0.2535
 1003loPI    C316035   9.474  13.571   5.087 -0.1994 -0.1778 -0.0823
 1003loPI   PO416036   9.602  13.330   5.653 -0.1701 -0.0185 -0.0823
 1003loPI   GL116037   9.544  13.234   6.134 -0.0624 -0.1386  0.1534
 1003loPI   GL216038   9.409  13.530   6.249 -0.1395  0.1614 -0.1579
 1003loPI   C1A16039   9.379  13.045   6.516  0.1418  0.1302  0.0093
 1003loPI   C2A16040   9.462  13.168   6.882  0.2611 -0.1210 -0.1419
 1003loPI   C3A16041   9.442  13.184   7.349 -0.0471  0.0642  0.1507
 1003loPI   C4A16042   9.410  13.195   7.747  0.1588  0.2026 -0.2185
 1003loPI   C5A16043   9.432  13.225   8.208  0.1024  0.2690  0.4191
 1003loPI   C6A16044   9.715  13.194   8.596  0.0991 -0.4555  0.3957
 1003loPI   C1B16045   9.359  13.585   6.583 -0.0088 -0.4778  0.1033
 1003loPI   C2B16046   9.325  13.628   6.958  0.1694 -0.1959 -0.1226
 1003loPI   C3B16047   9.390  13.730   7.394 -0.1377  0.2246  0.0074
 1003loPI   C4B16048   9.303  13.761   7.882 -0.0861  0.2581 -0.1434
 1004loPI    C116049  13.438  13.884   5.648  0.0716  0.2041  0.0072
 1004loPI    C216050  13.401  13.621   5.349  0.0152  0.1791  0.0358
 1004loPI    C316051  13.443  14.011   5.268 -0.2567  0.2029 -0.0002
 1004loPI   PO416052  13.628  13.886   5.800 -0.1844  0.1830 -0.1359
 1004loPI   GL116053  13.774  13.995   6.181 -0.2212 -0.1361  0.0092
 1004loPI   GL216054  13.650  14.283   6.284 -0.0119  0.1258 -0.2318
 1004loPI   C1A16055  13.863  13.804   6.609  0.2236 -0.1523 -0.1384
 1004loPI   C2A16056  13.905  13.864   7.082 -0.0725 -0.1676  0.1869
 1004loPI   C3A16057  13.807  13.893   7.508 -0.0869  0.2597  0.0928
 1004loPI   C4A16058  13.801  13.949   7.916 -0.1848 -0.0463 -0.3125
 1004loPI   C5A16059  13.751  13.800   8.297 -0.1644 -0.0748  0.1289
 1004loPI   C6A16060  13.526  13.741   8.649 -0.1129 -0.1099  0.2129
 1004loPI   C1B16061  13.808  14.308   6.799  0.0176  0.0524  0.0067
 1004loPI   C2B16062  13.776  14.396   7.378  0.1535  0.1960 -0.0994
 1004loPI   C3B16063  13.855  14.403   7.742  0.1223 -0.1618 -0.1284
 1004loPI   C4B16064  13.745  14.347   8.194 -0.0282  0.1238 -0.0824
 1005loPI    C116065   7.568   7.781   5.269  0.0608  0.0354  0.2297
 1005loPI    C216066   7.488   8.148   5.132 -0.1995 -0.0287  0.2049
 1005loPI    C316067   7.242   7.845   5.047  0.0132 -0.2102  0.2264
 1005loPI   PO416068   7.523   7.763   5.552 -0.0684  0.1167  0.1012
 1005loPI   GL116069   7.347   7.930   6.038  0.0822  0.0515  0.1396
 1005loPI   GL216070   7.214   7.759   6.289  0.2121 -0.1986 -0.0219
 1005loPI   C1A16071   7.588   8.111   6.299  0.1300  0.1858  0.1901
 1005loPI   C2A16072   7.622   8.024   6.780 -0.2094 -0.0282  0.4765
 1005loPI   C3A16073   7.638   8.065   7.201  0.1246 -0.2831  0.2316
 1005loPI   C4A16074   7.625   8.034   7.647  0.1300 -0.1435 -0.1587
 1005loPI   C5A16075   7.552   8.151   8.018  0.2620  0.1022 -0.0630
 1005loPI   C6A16076   7.565   7.872   8.447 -0.1203 -0.1494 -0.0348
 1005loPI   C1B16077   7.231   7.764   6.795  0.0961 -0.3209  0.0981
 1005loPI   C2B16078   7.261   7.703   7.286  0.1210 -0.0550 -0.1026
 1005loPI   C3B16079   7.253   7.769   7.771  0.1539 -0.3415  0.2302
 1005loPI   C4B16080   7.212   7.605   8.243 -0.4339  0.2724  0.1010
 1006loPI    C116081   0.381   7.331   5.507  0.0751  0.0464 -0.1078
 1006loPI    C216082   0.332   7.095   5.189  0.2611 -0.1782  0.0265
 1006loPI    C316083   0.521   7.445   5.150  0.0027 -0.0561 -0.1693
 1006loPI   PO416084   0.406   7.106   5.783  0.0992 -0.0860  0.2384
 1006loPI   GL116085   0.533   7.064   6.187  0.2281  0.1407  0.3395
 1006loPI   GL216086   0.319   6.795   6.340  0.1518 -0.1206  0.0184
 1006loPI   C1A16087   0.703   7.160   6.617 -0.1629  0.1864  0.0158
 1006loPI   C2A16088   0.582   7.142   7.041  0.1159 -0.1492  0.1236
 1006loPI   C3A16089   0.534   7.083   7.465 -0.1341 -0.2505 -0.1382
 1006loPI   C4A16090   0.403   7.091   7.890 -0.0525 -0.2181 -0.0274
 1006loPI   C5A16091   0.476   7.269   8.343 -0.5253  0.2236  0.1108
 1006loPI   C6A16092   0.320   7.345   8.665 -0.1998  0.0430  0.1384
 1006loPI   C1B16093   0.252   6.811   6.751 -0.0161 -0.2156  0.2116
 1006loPI   C2B16094   0.202   6.817   7.207  0.0450 -0.2417 -0.0278
 1006loPI   C3B16095   0.217   6.723   7.643 -0.5887 -0.0719  0.1929
 1006loPI   C4B16096   0.010   6.758   7.990  0.1877 -0.1136 -0.0097
 1007loPI    C116097   5.812   5.938   5.085 -0.0212 -0.1758 -0.0144
 1007loPI    C216098   6.069   5.919   4.779 -0.0179 -0.1605 -0.0126
 1007loPI    C316099   5.703   5.762   4.743 -0.2051  0.3024 -0.2109
 1007loPI   PO416100   6.025   5.905   5.327 -0.0128  0.0424  0.3174
 1007loPI   GL116101   6.229   5.867   5.725  0.1303  0.1607 -0.0042
 1007loPI   GL216102   6.515   5.774   5.874  0.4374 -0.0597  0.1347
 1007loPI   C1A16103   5.933   5.856   6.032 -0.1086 -0.0941 -0.1045
 1007loPI   C2A16104   6.189   5.770   6.427  0.1389  0.3233 -0.1527
 1007loPI   C3A16105   6.156   5.765   6.907  0.0572  0.0741  0.1709
 1007loPI   C4A16106   6.205   5.711   7.351 -0.1640 -0.0004 -0.1182
 1007loPI   C5A16107   6.337   5.720   7.855  0.0078  0.0329 -0.1629
 1007loPI   C6A16108   6.690   5.584   8.005 -0.0125 -0.3572 -0.2498
 1007loPI   C1B16109   6.645   5.552   6.226 -0.0739  0.1520  0.0658
 1007loPI   C2B16110   6.612   5.562   6.749 -0.2961  0.3783  0.1088
 1007loPI   C3B16111   6.686   5.455   7.149  0.1137 -0.0571  0.4447
 1007loPI   C4B16112   6.688   5.632   7.507 -0.0418  0.0425 -0.0812
 1008loPI    C116113   3.656   5.829   5.278 -0.0848  0.0482 -0.0875
 1008loPI    C216114   3.783   5.629   4.955 -0.1166 -0.2071  0.0557
 1008loPI    C316115   3.450   5.850   4.935 -0.1645 -0.2891 -0.0636
 1008loPI   PO416116   3.575   5.676   5.518  0.1810  0.0228 -0.2725
 1008loPI   GL116117   3.493   5.575   5.945 -0.3084 -0.2191 -0.2417
 1008loPI   GL216118   3.653   5.789   6.119 -0.1896 -0.2283  0.1079
 1008loPI   C1A16119   3.514   5.312   6.415  0.0200  0.1424 -0.3152
 1008loPI   C2A16120   3.459   5.386   6.818  0.0782  0.2955  0.3457
 1008loPI   C3A16121   3.461   5.374   7.255 -0.2240 -0.0997  0.1322
 1008loPI   C4A16122   3.443   5.323   7.665 -0.1193 -0.2400 -0.0492
 1008loPI   C5A16123   3.712   5.213   8.055 -0.1388  0.2605  0.0607
 1008loPI   C6A16124   4.098   5.254   8.287  0.1325  0.0725  0.1988
 1008loPI   C1B16125   3.889   5.681   6.493 -0.2270 -0.1023  0.1438
 1008loPI   C2B16126   3.951   5.757   6.864 -0.0288  0.0998  0.0474
 1008loPI   C3B16127   3.977   5.618   7.356 -0.1415 -0.2129  0.2106
 1008loPI   C4B16128   3.990   5.625   7.819 -0.3528  0.1390 -0.0978
 1009loPI    C116129   0.567   6.078   5.449  0.1081 -0.0976  0.0257
 1009loPI    C216130   0.227   6.002   5.253  0.0719 -0.0842  0.0830
 1009loPI    C316131   0.501   6.244   5.091  0.0675 -0.1190  0.0231
 1009loPI   PO416132   0.503   6.222   5.767 -0.0928 -0.1937  0.2083
 1009loPI   GL116133   0.348   6.166   6.083 -0.0442  0.1097  0.1603
 1009loPI   GL216134   0.427   5.830   6.189 -0.1022 -0.1042 -0.0441
 1009loPI   C1A16135   0.268   6.248   6.543 -0.2913 -0.1193 -0.0972
 1009loPI   C2A16136   0.278   6.176   6.935 -0.1251  0.4726 -0.1614
 1009loPI   C3A16137   0.254   6.318   7.326  0.1336  0.1071  0.5298
 1009loPI   C4A16138   0.343   6.217   7.784  0.0872 -0.0835  0.0564
 1009loPI   C5A16139   0.283   6.299   8.251  0.1847 -0.1171 -0.0223
 1009loPI   C6A16140   0.458   6.388   8.653 -0.0465 -0.2380 -0.1074
 1009loPI   C1B16141   0.290   5.742   6.549 -0.0757  0.1216  0.1887
 1009loPI   C2B16142   0.352   5.723   6.889  0.0605 -0.0769  0.1493
 1009loPI   C3B16143   0.297   5.751   7.236 -0.2957 -0.0147 -0.2231
 1009loPI   C4B16144   0.277   5.689   7.741 -0.0095 -0.3112  0.2160
 1010loPI    C116145   3.048   3.875   5.570  0.0114 -0.2189  0.0297
 1010loPI    C216146   3.126   3.583   5.308  0.1519 -0.1224 -0.0372
 1010loPI    C316147   3.161   3.965   5.197 -0.0907 -0.0784  0.0319
 1010loPI   PO416148   2.970   3.767   5.790  0.1430 -0.1245 -0.1457
 1010loPI   GL116149   2.871   4.047   6.150  0.0605 -0.1875  0.2033
 1010loPI   GL216150   2.792   4.231   6.372  0.2019 -0.0324  0.0290
 1010loPI   C1A16151   2.805   3.768   6.524  0.0040 -0.2426  0.1005
 1010loPI   C2A16152   2.883   3.767   7.012  0.0638 -0.3521 -0.0033
 1010loPI   C3A16153   2.743   3.785   7.454 -0.0161  0.3999  0.0897
 1010loPI   C4A16154   2.797   3.655   7.838 -0.1034  0.2451  0.1228
 1010loPI   C5A16155   2.931   3.635   8.230 -0.2999 -0.1747  0.1655
 1010loPI   C6A16156   2.870   3.643   8.585 -0.0527 -0.2221  0.0116
 1010loPI   C1B16157   2.788   4.229   6.823  0.0403 -0.2604 -0.0638
 1010loPI   C2B16158   2.744   4.247   7.262  0.0909  0.1034  0.0223
 1010loPI   C3B16159   2.732   4.242   7.734  0.2566 -0.4407 -0.0135
 1010loPI   C4B16160   2.757   4.429   8.134 -0.1993  0.1943  0.1955
 1011loPI    C116161   3.048   1.691   5.596  0.1374 -0.0803  0.0346
 1011loPI    C216162   3.169   1.825   5.238 -0.1107  0.0634  0.0026
 1011loPI    C316163   2.783   1.851   5.342 -0.0976 -0.2792  0.1506
 1011loPI   PO416164   3.238   1.784   5.713 -0.4530 -0.0383 -0.2237
 1011loPI   GL116165   3.011   1.876   6.089 -0.0128 -0.1297 -0.0807
 1011loPI   GL216166   3.083   1.650   6.347  0.0982 -0.0152 -0.3693
 1011loPI   C1A16167   2.999   2.103   6.529  0.0578  0.2302 -0.0476
 1011loPI   C2A16168   3.057   2.159   6.915  0.2826 -0.0566 -0.0575
 1011loPI   C3A16169   3.099   2.262   7.322  0.2154 -0.0717  0.0080
 1011loPI   C4A16170   3.121   2.160   7.726  0.0220  0.0633  0.0137
 1011loPI   C5A16171   3.113   2.194   8.226  0.0321 -0.1374 -0.1355
 1011loPI   C6A16172   3.105   2.092   8.589 -0.0508 -0.0653 -0.0597
 1011loPI   C1B16173   3.085   1.628   6.752 -0.0311  0.1358 -0.1100
 1011loPI   C2B16174   3.093   1.686   7.172 -0.1311  0.2178 -0.1310
 1011loPI   C3B16175   3.183   1.593   7.662  0.1967 -0.1593  0.1165
 1011loPI   C4B16176   3.208   1.644   8.046  0.1898  0.1441  0.0482
 1012loPI    C116177   3.054  17.185   5.309 -0.2724 -0.1024 -0.1184
 1012loPI    C216178   3.345  17.287   5.055 -0.1208  0.2024  0.1693
 1012loPI    C316179   2.964  17.291   4.934 -0.0339  0.1153 -0.1167
 1012loPI   PO416180   3.073  17.371   5.487 -0.0357  0.0129 -0.0650
 1012loPI   GL116181   3.119  17.553   5.925  0.1287  0.1944  0.2069
 1012loPI   GL216182   3.391  17.424   5.851  0.0184 -0.2644  0.1814
 1012loPI   C1A16183   2.962  17.737   6.326  0.0580 -0.3178  0.1949
 1012loPI   C2A16184   2.903  17.812   6.684 -0.2395 -0.1992 -0.0811
 1012loPI   C3A16185   2.973  17.778   7.112  0.1924  0.1604 -0.1093
 1012loPI   C4A16186   2.895  17.846   7.485  0.1540 -0.0107  0.0411
 1012loPI   C5A16187   2.891  17.836   7.943 -0.0741  0.0521  0.1186
 1012loPI   C6A16188   2.940  17.868   8.337  0.1589 -0.0111  0.1320
 1012loPI   C1B16189   3.404  17.574   6.336 -0.0730 -0.0846  0.3182
 1012loPI   C2B16190   3.389  17.650   6.780  0.0237  0.1861  0.0433
 1012loPI   C3B16191   3.491  17.566   7.154  0.1213  0.1577 -0.0663
 1012loPI   C4B16192   3.490  17.627   7.609  0.0288 -0.0618 -0.2800
 1013loPI    C116193   1.100   6.197   5.572  0.0774  0.1313  0.1787
 1013loPI    C216194   0.868   6.482   5.412  0.1950  0.2021  0.1332
 1013loPI    C316195   1.015   6.190   5.181  0.0881  0.1131  0.1768
 1013loPI   PO416196   1.051   6.279   5.872  0.0331 -0.3935 -0.2882
 1013loPI   GL116197   0.755   6.317   6.261 -0.0205  0.1692  0.1503
 1013loPI   GL216198   0.870   6.047   6.290  0.1751  0.2142  0.1700
 1013loPI   C1A16199   0.676   6.534   6.646  0.1722  0.0262  0.2884
 1013loPI   C2A16200   0.706   6.551   7.037  0.1163 -0.0978  0.1741
 1013loPI   C3A16201   0.666   6.584   7.475  0.1384  0.2350  0.4681
 1013loPI   C4A16202   0.662   6.585   7.948  0.2071 -0.0765 -0.3003
 1013loPI   C5A16203   0.443   6.807   8.284  0.0273  0.0691  0.0923
 1013loPI   C6A16204   0.441   6.879   8.739  0.0354  0.1276  0.0764
 1013loPI   C1B16205   0.733   6.019   6.744 -0.3477  0.0827  0.2245
 1013loPI   C2B16206   0.728   6.135   7.215  0.1530  0.0048  0.1158
 1013loPI   C3B16207   0.740   6.026   7.607 -0.0099  0.0151  0.0080
 1013loPI   C4B16208   0.609   5.934   8.067  0.2899 -0.0724 -0.1541
 1014loPI    C116209   4.436   3.770   5.270 -0.0033 -0.0572 -0.0530
 1014loPI    C216210   4.065   3.812   5.415 -0.0197  0.1705 -0.1578
 1014loPI    C316211   4.142   3.901   5.032  0.0954 -0.1003 -0.2001
 1014loPI   PO416212   4.489   3.582   5.514  0.0885 -0.3309 -0.1095
 1014loPI   GL116213   4.406   3.578   5.981 -0.1029  0.0601  0.4942
 1014loPI   GL216214   4.082   3.648   5.965 -0.1176  0.0825 -0.3241
 1014loPI   C1A16215   4.584   3.496   6.384 -0.0706  0.3265 -0.0958
 1014loPI   C2A16216   4.697   3.424   6.781 -0.0542 -0.2929 -0.2157
 1014loPI   C3A16217   4.618   3.397   7.151 -0.1171 -0.2329 -0.1615
 1014loPI   C4A16218   4.621   3.424   7.528 -0.0749 -0.1511  0.2081
 1014loPI   C5A16219   4.689   3.388   8.032 -0.1961  0.0148 -0.1293
 1014loPI   C6A16220   4.692   3.144   8.427 -0.0189 -0.2078 -0.0961
 1014loPI   C1B16221   4.136   3.711   6.401  0.1296  0.2393  0.2266
 1014loPI   C2B16222   4.211   3.672   6.840 -0.1337  0.1146  0.0965
 1014loPI   C3B16223   4.232   3.663   7.326  0.0329 -0.5121  0.0920
 1014loPI   C4B16224   4.138   3.621   7.783  0.2761  0.0791  0.1872
 1015loPI    C116225  12.391   6.510   5.120 -0.0408  0.0871  0.0622
 1015loPI    C216226  12.420   6.844   4.902 -0.2244  0.0710  0.0114
 1015loPI    C316227  12.365   6.492   4.721  0.2855 -0.0334  0.0429
 1015loPI   PO416228  12.243   6.571   5.333 -0.0426  0.2058 -0.0035
 1015loPI   GL116229  12.241   6.425   5.757 -0.3815 -0.0223  0.0127
 1015loPI   GL216230  12.262   6.730   5.947 -0.0870 -0.4643 -0.0021
 1015loPI   C1A16231  11.869   6.418   5.999  0.2642 -0.2355  0.2376
 1015loPI   C2A16232  11.914   6.300   6.417 -0.1966  0.0112 -0.0176
 1015loPI   C3A16233  11.897   6.361   6.836 -0.2172  0.0058  0.0879
 1015loPI   C4A16234  11.891   6.550   7.286  0.2618 -0.3427  0.0849
 1015loPI   C5A16235  11.891   6.512   7.722  0.3158 -0.2377  0.1697
 1015loPI   C6A16236  11.527   6.544   7.995 -0.1389  0.4045  0.1214
 1015loPI   C1B16237  12.291   6.683   6.304 -0.0072  0.0171  0.0098
 1015loPI   C2B16238  12.254   6.651   6.664  0.0812 -0.1202 -0.4371
 1015loPI   C3B16239  12.347   6.797   7.116 -0.2811  0.0863 -0.0112
 1015loPI   C4B16240  12.304   6.871   7.475 -0.2148 -0.1506 -0.1671
 1016loPI    C116241  10.376  12.520   5.342  0.1622 -0.0521 -0.0056
 1016loPI    C216242  10.211  12.575   4.982  0.1732 -0.0681 -0.0131
 1016loPI    C316243  10.609  12.588   5.024  0.1615  0.1574  0.0373
 1016loPI   PO416244  10.329  12.756   5.570 -0.2346  0.0645  0.0593
 1016loPI   GL116245  10.265  12.739   6.017  0.0176 -0.0424 -0.2355
 1016loPI   GL216246  10.264  12.416   6.171  0.0724  0.1144  0.2759
 1016loPI   C1A16247  10.435  12.797   6.463 -0.0398  0.1151 -0.1644
 1016loPI   C2A16248  10.404  12.776   6.865 -0.1567 -0.0687 -0.0605
 1016loPI   C3A16249  10.426  12.794   7.280  0.0186 -0.0037  0.1286
 1016loPI   C4A16250  10.381  12.737   7.717 -0.2500  0.2044 -0.2857
 1016loPI   C5A16251  10.435  12.892   8.055 -0.0940 -0.1511  0.0161
 1016loPI   C6A16252  10.456  12.605   8.379 -0.1227  0.0393 -0.0147
 1016loPI   C1B16253  10.098  12.445   6.690 -0.1005  0.0159 -0.1799
 1016loPI   C2B16254   9.960  12.445   7.130  0.1784  0.2843  0.1368
 1016loPI   C3B16255   9.958  12.494   7.639  0.4043  0.0970 -0.2324
 1016loPI   C4B16256   9.915  12.476   8.047  0.0204 -0.0401 -0.2351
 1017loPI    C116257   4.567  16.938   5.207 -0.2864 -0.0890  0.0102
 1017loPI    C216258   4.651  16.817   4.835 -0.1523  0.0864 -0.0179
 1017loPI    C316259   4.804  17.159   4.973 -0.1778  0.0076  0.2094
 1017loPI   PO416260   4.596  16.757   5.340  0.2046 -0.1727 -0.1101
 1017loPI   GL116261   4.556  16.787   5.744  0.5398 -0.0955 -0.0064
 1017loPI   GL216262   4.804  16.995   6.024  0.3644 -0.3050 -0.1261
 1017loPI   C1A16263   4.465  16.685   6.220  0.0709 -0.1547  0.3481
 1017loPI   C2A16264   4.413  16.769   6.639  0.1908 -0.1014 -0.1327
 1017loPI   C3A16265   4.370  16.651   6.973 -0.0354 -0.2346 -0.2690
 1017loPI   C4A16266   4.509  16.645   7.367  0.1880  0.0664  0.0589
 1017loPI   C5A16267   4.424  16.683   7.861  0.0006 -0.0994 -0.0487
 1017loPI   C6A16268   4.003  16.713   8.094 -0.1531  0.1499  0.0342
 1017loPI   C1B16269   4.849  17.012   6.488  0.1288  0.0085 -0.0613
 1017loPI   C2B16270   4.811  17.004   6.921 -0.3384  0.1710 -0.1426
 1017loPI   C3B16271   4.890  16.936   7.263  0.1142 -0.2161 -0.1685
 1017loPI   C4B16272   4.916  17.021   7.759  0.1410 -0.0915 -0.3084
 1018loPI    C116273  16.946  12.930   5.469  0.1036  0.3786  0.2024
 1018loPI    C216274  17.268  13.007   5.244 -0.0962  0.0141 -0.2237
 1018loPI    C316275  16.967  13.269   5.259 -0.0552  0.0679 -0.3345
 1018loPI   PO416276  17.034  12.896   5.688 -0.0914 -0.0775 -0.0570
 1018loPI   GL116277  16.939  13.128   5.958  0.6529 -0.0349  0.3256
 1018loPI   GL216278  16.621  13.184   6.047 -0.1852  0.1512 -0.2503
 1018loPI   C1A16279  17.078  12.976   6.403  0.0547 -0.1928  0.1315
 1018loPI   C2A16280  17.128  12.965   6.707 -0.0521 -0.1222  0.1049
 1018loPI   C3A16281  17.155  12.865   7.133  0.0987 -0.0619  0.0797
 1018loPI   C4A16282  17.168  13.044   7.445 -0.0148  0.2589 -0.0053
 1018loPI   C5A16283  17.045  12.941   7.865  0.0206 -0.3317 -0.1605
 1018loPI   C6A16284  16.705  12.965   8.206  0.0469  0.1727 -0.1809
 1018loPI   C1B16285  16.663  13.114   6.481  0.0921  0.2187 -0.1576
 1018loPI   C2B16286  16.717  13.074   6.901 -0.3246 -0.0279 -0.2430
 1018loPI   C3B16287  16.723  13.184   7.330  0.0553  0.0606 -0.0066
 1018loPI   C4B16288  16.684  13.250   7.747  0.1314  0.2373  0.0356
 1019loPI    C116289  15.975   6.929   5.276  0.0074  0.1326  0.1582
 1019loPI    C216290  16.233   7.229   5.215 -0.0576  0.1286 -0.1517
 1019loPI    C316291  16.235   6.910   4.973  0.0132 -0.1266  0.1773
 1019loPI   PO416292  15.948   7.007   5.587  0.1511  0.0270  0.1579
 1019loPI   GL116293  15.966   6.807   5.886 -0.0888 -0.3873  0.0616
 1019loPI   GL216294  15.622   6.643   5.630 -0.4039  0.0502  0.0594
 1019loPI   C1A16295  15.992   6.606   6.218  0.5521  0.0355 -0.0593
 1019loPI   C2A16296  16.013   6.654   6.658 -0.1084  0.1750  0.0101
 1019loPI   C3A16297  15.888   6.610   6.982  0.0204 -0.2676  0.0973
 1019loPI   C4A16298  15.828   6.727   7.445 -0.1348 -0.3299  0.1920
 1019loPI   C5A16299  16.039   6.686   7.840  0.1551 -0.0319  0.1135
 1019loPI   C6A16300  15.894   6.571   8.142  0.0099  0.1073  0.0546
 1019loPI   C1B16301  15.451   6.784   6.022 -0.0581 -0.0192  0.2974
 1019loPI   C2B16302  15.466   6.853   6.448 -0.2184  0.0942 -0.1302
 1019loPI   C3B16303  15.416   6.896   6.860  0.0867 -0.0556 -0.1300
 1019loPI   C4B16304  15.403   6.943   7.217 -0.1235  0.0876  0.1618
 1020loPI    C116305   7.629   2.188   5.290  0.3974 -0.0559 -0.2232
 1020loPI    C216306   7.586   1.932   4.986 -0.2536 -0.0393 -0.1589
 1020loPI    C316307   7.464   2.311   4.947 -0.0553  0.0448  0.0230
 1020loPI   PO416308   7.521   2.183   5.438  0.0972  0.1266 -0.4689
 1020loPI   GL116309   7.496   2.357   5.822  0.1630 -0.0953  0.3072
 1020loPI   GL216310   7.135   2.529   5.881  0.1005  0.0798 -0.3269
 1020loPI   C1A16311   7.551   2.304   6.261 -0.2902  0.1466  0.4981
 1020loPI   C2A16312   7.496   2.306   6.730  0.3171  0.2380 -0.0875
 1020loPI   C3A16313   7.541   2.293   7.136 -0.3238 -0.0955 -0.2346
 1020loPI   C4A16314   7.609   2.207   7.555 -0.1576  0.2428 -0.0987
 1020loPI   C5A16315   7.449   2.290   7.984  0.0576 -0.2695  0.2049
 1020loPI   C6A16316   7.023   2.318   8.174  0.0421  0.3807 -0.1564
 1020loPI   C1B16317   6.991   2.415   6.254 -0.0744  0.1000  0.0804
 1020loPI   C2B16318   7.040   2.477   6.680  0.0142  0.2648  0.1300
 1020loPI   C3B16319   7.046   2.467   7.107  0.0142 -0.1359 -0.0425
 1020loPI   C4B16320   7.167   2.435   7.572  0.5630  0.1743  0.1054
 1021loPI    C116321   0.896  11.276   5.709 -0.1191  0.1299 -0.2029
 1021loPI    C216322   1.119  11.120   5.416 -0.1125  0.0147 -0.1372
 1021loPI    C316323   0.741  11.228   5.343 -0.1297 -0.0692 -0.1733
 1021loPI   PO416324   0.910  11.169   5.924 -0.1136 -0.2219 -0.1959
 1021loPI   GL116325   0.648  10.990   6.281  0.2956 -0.1211 -0.1510
 1021loPI   GL216326   0.366  11.095   6.379  0.1802  0.0553 -0.0381
 1021loPI   C1A16327   0.938  10.906   6.628  0.1934 -0.1244 -0.0156
 1021loPI   C2A16328   0.868  10.848   7.014 -0.2155  0.1711 -0.0125
 1021loPI   C3A16329   0.864  10.879   7.430  0.1440  0.1715 -0.0137
 1021loPI   C4A16330   1.084  10.889   7.838  0.0179  0.3488  0.2875
 1021loPI   C5A16331   0.942  10.986   8.244  0.1786  0.0290 -0.0387
 1021loPI   C6A16332   0.725  11.073   8.625  0.0355 -0.3157 -0.2820
 1021loPI   C1B16333   0.390  11.012   6.823 -0.1868  0.0326 -0.0694
 1021loPI   C2B16334   0.403  11.064   7.230 -0.0443 -0.0641  0.1710
 1021loPI   C3B16335   0.437  11.080   7.625 -0.0918 -0.2168 -0.0154
 1021loPI   C4B16336   0.500  11.068   8.041  0.2434  0.0146  0.2130
 1022loPI    C116337   3.059  13.352   5.781  0.1836  0.1860  0.0052
 1022loPI    C216338   3.187  13.000   5.921  0.0183  0.2370  0.2921
 1022loPI    C316339   3.361  13.162   5.600  0.0030 -0.1719  0.0707
 1022loPI   PO416340   2.953  13.387   6.133 -0.0626  0.1771 -0.0524
 1022loPI   GL116341   2.716  13.456   6.479 -0.0907 -0.2490 -0.0251
 1022loPI   GL216342   2.502  13.249   6.524  0.3713  0.2019 -0.0779
 1022loPI   C1A16343   2.804  13.670   6.908 -0.0875 -0.0354 -0.3595
 1022loPI   C2A16344   2.887  13.687   7.282 -0.1358  0.1219  0.0124
 1022loPI   C3A16345   3.125  13.641   7.657 -0.0089  0.0356  0.2537
 1022loPI   C4A16346   3.383  13.420   8.109  0.2409  0.0197 -0.3801
 1022loPI   C5A16347   3.827  13.236   8.463  0.0929 -0.0984 -0.0694
 1022loPI   C6A16348   4.002  13.242   8.907 -0.0905 -0.3300  0.0189
 1022loPI   C1B16349   2.710  13.163   6.907  0.0464 -0.1057  0.0419
 1022loPI   C2B16350   3.043  13.151   7.332  0.1257  0.1269  0.0165
 1022loPI   C3B16351   3.326  12.967   7.669 -0.3635  0.1971  0.0586
 1022loPI   C4B16352   3.316  12.635   7.996 -0.1049  0.1570  0.0402
 1023loPI    C116353   2.701   9.032   6.048  0.0434  0.3822  0.1965
 1023loPI    C216354   2.829   9.367   5.870  0.3414  0.0819 -0.1725
 1023loPI    C316355   2.842   9.019   5.673 -0.2009 -0.1115  0.1144
 1023loPI   PO416356   2.636   9.057   6.295  0.0833  0.2192  0.0587
 1023loPI   GL116357   2.644   8.887   6.763 -0.0495  0.0111  0.0914
 1023loPI   GL216358   2.581   8.566   6.665 -0.2214  0.0828 -0.2731
 1023loPI   C1A16359   2.495   9.129   7.232  0.0711  0.1000  0.4017
 1023loPI   C2A16360   2.599   9.441   7.433 -0.2426  0.0691  0.1626
 1023loPI   C3A16361   2.582   9.612   7.825 -0.4537  0.0368  0.3923
 1023loPI   C4A16362   2.714   9.984   8.028 -0.1305 -0.1031 -0.0639
 1023loPI   C5A16363   2.945  10.360   7.962 -0.0877  0.1094  0.1067
 1023loPI   C6A16364   3.304  10.564   7.839  0.0318 -0.2048  0.4492
 1023loPI   C1B16365   2.487   8.583   7.168 -0.0567 -0.3011  0.2017
 1023loPI   C2B16366   2.170   8.327   7.395  0.0888 -0.2622  0.1127
 1023loPI   C3B16367   2.117   8.377   7.854  0.2315  0.2408 -0.1628
 1023loPI   C4B16368   2.154   8.796   8.014  0.0223  0.0700 -0.1113
 1024loPI    C116369  13.042   8.804   5.304 -0.0908  0.0921  0.1360
 1024loPI    C216370  12.717   8.907   5.095 -0.1145 -0.1192  0.0655
 1024loPI    C316371  13.053   8.804   4.905 -0.0208  0.0484  0.1378
 1024loPI   PO416372  13.049   8.923   5.492  0.0255 -0.3974 -0.1018
 1024loPI   GL116373  12.783   9.061   5.870  0.1103 -0.1571  0.1908
 1024loPI   GL216374  12.903   9.287   6.033 -0.3457 -0.0347 -0.0342
 1024loPI   C1A16375  12.778   8.893   6.295  0.0826  0.1589  0.1910
 1024loPI   C2A16376  12.803   8.986   6.679 -0.1672 -0.1866 -0.2286
 1024loPI   C3A16377  12.728   9.123   7.156  0.0457 -0.0061  0.2824
 1024loPI   C4A16378  12.795   9.017   7.556 -0.1391 -0.0384 -0.2509
 1024loPI   C5A16379  12.821   9.091   7.876 -0.0280 -0.2231 -0.0835
 1024loPI   C6A16380  12.574   9.200   8.259 -0.1250 -0.0211  0.1994
 1024loPI   C1B16381  12.706   9.422   6.314  0.1862  0.6020  0.1785
 1024loPI   C2B16382  12.740   9.499   6.762 -0.0726  0.2009  0.2821
 1024loPI   C3B16383  12.667   9.601   7.084 -0.3382 -0.0835 -0.0543
 1024loPI   C4B16384  12.739   9.572   7.469 -0.0603 -0.0229  0.0120
 1025loPI    C116385   8.581   4.223   5.517 -0.1592  0.0235  0.2796
 1025loPI    C216386   8.553   3.824   5.534  0.3627 -0.0196  0.2901
 1025loPI    C316387   8.838   3.996   5.311 -0.1110  0.3613 -0.0449
 1025loPI   PO416388   8.481   4.355   5.752 -0.0240 -0.4071  0.0395
 1025loPI   GL116389   8.659   4.576   6.094  0.0593 -0.0007  0.3678
 1025loPI   GL216390   8.743   4.182   6.140  0.0302 -0.0115  0.0947
 1025loPI   C1A16391   8.546   4.728   6.586  0.1514 -0.0796 -0.4593
 1025loPI   C2A16392   8.578   4.751   6.964  0.0837 -0.0729  0.0484
 1025loPI   C3A16393   8.609   4.864   7.383  0.0069  0.1719 -0.0715
 1025loPI   C4A16394   8.596   4.901   7.783 -0.2580  0.1992  0.1689
 1025loPI   C5A16395   8.540   4.807   8.138  0.3797 -0.0381 -0.2664
 1025loPI   C6A16396   8.876   4.610   8.321  0.0565 -0.0570  0.4706
 1025loPI   C1B16397   8.569   4.215   6.651  0.0269 -0.1236 -0.1385
 1025loPI   C2B16398   8.686   4.288   7.070  0.0612  0.0271 -0.1128
 1025loPI   C3B16399   8.680   4.314   7.510  0.0538  0.0521 -0.0882
 1025loPI   C4B16400   8.603   4.349   7.921 -0.1290 -0.0676 -0.0803
 1026loPI    C116401   0.477   9.531   5.514  0.1066 -0.2241 -0.0714
 1026loPI    C216402   0.118   9.591   5.349  0.0666 -0.0203  0.0851
 1026loPI    C316403   0.440   9.547   5.116  0.0026  0.2040 -0.0488
 1026loPI   PO416404   0.435   9.387   5.821 -0.1402  0.1964  0.2301
 1026loPI   GL116405   0.605   9.511   6.236 -0.2828  0.0835  0.0447
 1026loPI   GL216406   0.285   9.589   6.234  0.0494  0.1481  0.0520
 1026loPI   C1A16407   0.628   9.465   6.682 -0.0178 -0.3195  0.1856
 1026loPI   C2A16408   0.754   9.589   7.148 -0.1777  0.0525  0.0512
 1026loPI   C3A16409   0.653   9.446   7.698 -0.3158  0.0224 -0.1259
 1026loPI   C4A16410   0.637   9.430   8.124 -0.0974  0.0847 -0.0896
 1026loPI   C5A16411   0.895   9.049   8.287  0.1898 -0.0260 -0.0634
 1026loPI   C6A16412   1.132   8.689   8.345 -0.0320  0.0673 -0.1223
 1026loPI   C1B16413   0.096   9.622   6.633 -0.3630 -0.3230  0.1039
 1026loPI   C2B16414   0.188   9.662   6.960 -0.3070  0.0125  0.0672
 1026loPI   C3B16415   0.125   9.653   7.364  0.0506 -0.0388  0.3828
 1026loPI   C4B16416   0.144   9.622   7.762  0.1690 -0.1711 -0.1599
 1027loPI    C116417   7.637  15.585   5.332  0.0151  0.3134 -0.1725
 1027loPI    C216418   7.948  15.584   5.080  0.1056 -0.1313 -0.0679
 1027loPI    C316419   7.632  15.348   5.009  0.0066 -0.0472  0.0862
 1027loPI   PO416420   7.803  15.574   5.589 -0.0262 -0.0346 -0.1738
 1027loPI   GL116421   8.123  15.509   6.010  0.1720  0.0321 -0.1580
 1027loPI   GL216422   7.721  15.702   6.248  0.0305 -0.3007 -0.3300
 1027loPI   C1A16423   8.155  15.483   6.406 -0.1293 -0.3550  0.1721
 1027loPI   C2A16424   8.194  15.560   6.871 -0.1722 -0.0119  0.0570
 1027loPI   C3A16425   8.211  15.614   7.326  0.2145 -0.1088 -0.2519
 1027loPI   C4A16426   8.180  15.806   7.755  0.1014 -0.0979 -0.0543
 1027loPI   C5A16427   8.079  15.709   8.252  0.0417  0.2029  0.3682
 1027loPI   C6A16428   8.298  15.462   8.561 -0.1781 -0.3159  0.2899
 1027loPI   C1B16429   7.765  15.770   6.726 -0.0067 -0.1141  0.1966
 1027loPI   C2B16430   7.683  15.887   7.107 -0.2157 -0.0618  0.0746
 1027loPI   C3B16431   7.738  15.833   7.545  0.0503 -0.2697  0.1316
 1027loPI   C4B16432   7.752  15.937   7.947  0.0472  0.1820  0.0186
 1028loPI    C116433   1.592  15.584   5.605  0.0313  0.3869  0.0995
 1028loPI    C216434   1.831  15.590   5.284 -0.0971  0.0019 -0.0085
 1028loPI    C316435   1.470  15.760   5.267 -0.0057  0.2015  0.0150
 1028loPI   PO416436   1.687  15.646   5.770 -0.0599 -0.0809  0.1482
 1028loPI   GL116437   1.780  15.599   6.094 -0.0487  0.0081  0.1356
 1028loPI   GL216438   1.851  15.875   6.278 -0.2179  0.1304  0.1241
 1028loPI   C1A16439   1.525  15.430   6.461 -0.0229 -0.0867 -0.2621
 1028loPI   C2A16440   1.488  15.397   6.939  0.0962 -0.0951  0.5074
 1028loPI   C3A16441   1.520  15.507   7.328  0.2409  0.1082  0.3466
 1028loPI   C4A16442   1.505  15.409   7.730 -0.1224  0.0569 -0.1443
 1028loPI   C5A16443   1.358  15.650   8.062 -0.1306  0.1902 -0.1122
 1028loPI   C6A16444   1.268  15.993   8.375 -0.4411 -0.1843 -0.2843
 1028loPI   C1B16445   1.823  15.827   6.785  0.1575 -0.2290 -0.1043
 1028loPI   C2B16446   1.837  15.808   7.118  0.3036  0.0342 -0.1057
 1028loPI   C3B16447   1.916  15.765   7.561  0.0883  0.1623  0.0950
 1028loPI   C4B16448   1.939  15.902   8.018  0.0560  0.1756  0.1578
 1029loPI    C116449   0.807  17.463   5.338 -0.1515  0.0331 -0.1307
 1029loPI    C216450   0.646  17.582   4.992 -0.2532  0.0945 -0.0629
 1029loPI    C316451   0.914  17.285   4.996 -0.1604  0.1746 -0.2080
 1029loPI   PO416452   0.600  17.639   5.599 -0.0543 -0.1389  0.2706
 1029loPI   GL116453   0.440  17.803   5.927  0.3017  0.1537 -0.3025
 1029loPI   GL216454   0.169  17.849   6.121  0.2629  0.1665 -0.1058
 1029loPI   C1A16455   0.680  17.684   6.223 -0.0391  0.1989 -0.0451
 1029loPI   C2A16456   0.733  17.683   6.625 -0.1570 -0.0187  0.0737
 1029loPI   C3A16457   0.707  17.777   7.122 -0.1327 -0.1142  0.1927
 1029loPI   C4A16458   0.667  17.721   7.618 -0.2971  0.1182 -0.1941
 1029loPI   C5A16459   0.753  17.674   8.046  0.2864  0.1062  0.0337
 1029loPI   C6A16460   0.613  17.330   8.365 -0.1021  0.0909  0.2103
 1029loPI   C1B16461   0.264  17.868   6.519 -0.0861  0.1108  0.0665
 1029loPI   C2B16462   0.248  17.921   6.996  0.1173 -0.2956 -0.0499
 1029loPI   C3B16463   0.273  17.914   7.391  0.1037 -0.0308  0.0942
 1029loPI   C4B16464   0.306  17.856   7.844 -0.1979 -0.2014 -0.3260
 1030loPI    C116465   5.111  15.463   5.563 -0.0793 -0.2063 -0.1827
 1030loPI    C216466   5.155  15.133   5.785  0.0047 -0.1300 -0.0850
 1030loPI    C316467   5.393  15.195   5.469  0.1435 -0.0517  0.0341
 1030loPI   PO416468   5.129  15.677   5.792  0.2295  0.3594 -0.2081
 1030loPI   GL116469   5.167  15.707   6.223 -0.1336  0.1586  0.0112
 1030loPI   GL216470   4.893  15.811   6.243  0.0332  0.0123 -0.1112
 1030loPI   C1A16471   5.477  15.621   6.487  0.2498  0.1437  0.0943
 1030loPI   C2A16472   5.426  15.796   6.904 -0.0393 -0.1454  0.1618
 1030loPI   C3A16473   5.439  15.763   7.367 -0.0137  0.1246 -0.0962
 1030loPI   C4A16474   5.559  15.816   7.738 -0.3750 -0.1018 -0.1759
 1030loPI   C5A16475   5.854  16.011   7.966 -0.1721  0.2943  0.1040
 1030loPI   C6A16476   5.996  15.927   8.278  0.4616 -0.0926 -0.3810
 1030loPI   C1B16477   4.923  16.010   6.641 -0.0044  0.2077 -0.0738
 1030loPI   C2B16478   4.987  16.030   7.081  0.0389  0.3344  0.3458
 1030loPI   C3B16479   5.052  15.929   7.617  0.0399 -0.0821 -0.0226
 1030loPI   C4B16480   5.058  15.981   7.971 -0.0342  0.3121 -0.1536
 1031loPI    C116481   7.058   3.399   5.189 -0.0644 -0.0370 -0.0224
 1031loPI    C216482   7.360   3.140   5.150  0.0318  0.0780 -0.0452
 1031loPI    C316483   7.085   3.171   4.861  0.1533  0.1711 -0.1522
 1031loPI   PO416484   7.100   3.629   5.269 -0.0965  0.2708  0.3071
 1031loPI   GL116485   7.001   3.867   5.615  0.2447  0.2322  0.1395
 1031loPI   GL216486   6.704   3.564   5.562  0.2345  0.0174 -0.3529
 1031loPI   C1A16487   7.173   3.804   6.086  0.0664 -0.0874  0.0023
 1031loPI   C2A16488   7.311   3.816   6.440  0.0617 -0.0401 -0.1818
 1031loPI   C3A16489   7.336   3.799   6.828 -0.0408  0.1342  0.0487
 1031loPI   C4A16490   7.304   3.717   7.176  0.0412  0.2988 -0.0726
 1031loPI   C5A16491   7.397   3.699   7.605 -0.1654  0.1888  0.1338
 1031loPI   C6A16492   7.585   3.394   7.866  0.1354 -0.0273 -0.0658
 1031loPI   C1B16493   6.738   3.514   6.044 -0.0818 -0.2020  0.4315
 1031loPI   C2B16494   6.932   3.523   6.414  0.0606  0.2084 -0.1290
 1031loPI   C3B16495   6.883   3.437   6.949  0.4418  0.2702 -0.0641
 1031loPI   C4B16496   6.983   3.408   7.377 -0.0037 -0.1790 -0.1099
 1032loPI    C116497  13.897  13.863   5.346  0.0312  0.1111  0.0875
 1032loPI    C216498  14.161  13.736   5.074  0.0532  0.0296  0.1467
 1032loPI    C316499  14.112  14.128   5.136  0.0903  0.0471  0.0670
 1032loPI   PO416500  13.962  13.617   5.534  0.1043  0.0510 -0.0440
 1032loPI   GL116501  14.059  13.585   5.941  0.1027  0.0611 -0.2792
 1032loPI   GL216502  14.083  13.267   5.846 -0.1794 -0.0604  0.3115
 1032loPI   C1A16503  14.225  13.692   6.301 -0.0833  0.2670  0.3215
 1032loPI   C2A16504  14.345  13.588   6.760 -0.0224  0.1825 -0.1588
 1032loPI   C3A16505  14.376  13.656   7.201  0.1597  0.3153 -0.0550
 1032loPI   C4A16506  14.334  13.768   7.619 -0.4495 -0.2196  0.0460
 1032loPI   C5A16507  14.297  13.770   8.082 -0.0357 -0.0564  0.1994
 1032loPI   C6A16508  14.503  13.787   8.447 -0.1258 -0.2811 -0.2003
 1032loPI   C1B16509  13.954  13.267   6.274 -0.1228  0.1844  0.2033
 1032loPI   C2B16510  13.983  13.214   6.767  0.1554 -0.2395 -0.2258
 1032loPI   C3B16511  13.928  13.407   7.249  0.2196 -0.0166 -0.2533
 1032loPI   C4B16512  13.910  13.279   7.631  0.1801 -0.0280 -0.1980
 1033loPI    C116513  12.082  16.376   4.985 -0.0651  0.0119  0.1378
 1033loPI    C216514  12.279  16.673   4.804 -0.0719 -0.2050 -0.2345
 1033loPI    C316515  12.226  16.324   4.616 -0.1097 -0.4267  0.1768
 1033loPI   PO416516  12.017  16.483   5.270  0.0720  0.0302 -0.0474
 1033loPI   GL116517  12.016  16.403   5.743  0.0052  0.2343 -0.1488
 1033loPI   GL216518  11.794  16.169   5.907 -0.3418  0.1770  0.1576
 1033loPI   C1A16519  12.189  16.438   6.132  0.0974  0.0526  0.1076
 1033loPI   C2A16520  12.109  16.440   6.571  0.0197  0.2168  0.1085
 1033loPI   C3A16521  12.097  16.449   7.078 -0.0521 -0.1133  0.3740
 1033loPI   C4A16522  12.126  16.470   7.504 -0.0030  0.0504 -0.2210
 1033loPI   C5A16523  12.175  16.240   7.999  0.0202  0.0833  0.1254
 1033loPI   C6A16524  12.299  16.148   8.397 -0.0451  0.1582 -0.0245
 1033loPI   C1B16525  11.652  16.113   6.343  0.0694  0.1297  0.1715
 1033loPI   C2B16526  11.701  16.141   6.816 -0.0239 -0.0120 -0.2985
 1033loPI   C3B16527  11.655  16.169   7.240  0.1408 -0.2892  0.1902
 1033loPI   C4B16528  11.667  16.095   7.627  0.1190 -0.1234  0.0652
 1034loPI    C116529   1.010  16.710   5.297 -0.0315  0.0186 -0.0203
 1034loPI    C216530   1.226  16.850   4.991 -0.2501  0.2490 -0.0719
 1034loPI    C316531   1.011  16.515   4.948  0.0569  0.0436 -0.0343
 1034loPI   PO416532   0.924  16.873   5.397 -0.1313 -0.3490 -0.0921
 1034loPI   GL116533   1.110  17.179   5.791 -0.0896 -0.2381 -0.0768
 1034loPI   GL216534   1.066  17.538   5.823  0.1512 -0.1564 -0.0479
 1034loPI   C1A16535   0.858  17.200   6.110 -0.1336  0.0133  0.2590
 1034loPI   C2A16536   0.819  17.230   6.487  0.1135  0.1689  0.0441
 1034loPI   C3A16537   0.813  17.280   6.930 -0.0226  0.1960  0.1032
 1034loPI   C4A16538   0.772  17.255   7.367 -0.0447 -0.1272 -0.2085
 1034loPI   C5A16539   0.796  17.189   7.882 -0.1407 -0.1908 -0.0938
 1034loPI   C6A16540   0.794  16.837   8.118 -0.0327  0.1179  0.0191
 1034loPI   C1B16541   1.182  17.598   6.294 -0.0426  0.2063  0.1391
 1034loPI   C2B16542   1.258  17.560   6.717 -0.0182  0.4152 -0.1075
 1034loPI   C3B16543   1.190  17.543   7.155  0.0381 -0.4111 -0.2524
 1034loPI   C4B16544   1.111  17.497   7.699  0.0488  0.0371 -0.1256
 1035loPI    C116545   2.288   2.445   5.734 -0.1133 -0.0463  0.0756
 1035loPI    C216546   2.404   2.135   5.509  0.1429 -0.0897  0.2626
 1035loPI    C316547   2.232   2.453   5.338  0.2332 -0.1688  0.0204
 1035loPI   PO416548   2.213   2.278   6.006 -0.0721 -0.1154  0.0622
 1035loPI   GL116549   2.207   2.121   6.475 -0.0615 -0.0999  0.2884
 1035loPI   GL216550   2.504   1.951   6.313 -0.0357  0.0760 -0.2140
 1035loPI   C1A16551   2.157   2.062   6.866 -0.3375 -0.0756  0.1217
 1035loPI   C2A16552   2.121   2.088   7.259 -0.0059  0.1531 -0.0433
 1035loPI   C3A16553   2.169   1.990   7.678  0.0635  0.0574 -0.1013
 1035loPI   C4A16554   2.182   1.898   8.116 -0.4595  0.2199 -0.3336
 1035loPI   C5A16555   2.188   2.229   8.448  0.0830 -0.1852  0.1786
 1035loPI   C6A16556   2.002   2.292   8.914  0.1870  0.0538 -0.2101
 1035loPI   C1B16557   2.641   1.864   6.767  0.1205  0.0341  0.0730
 1035loPI   C2B16558   2.586   1.948   7.173 -0.1366 -0.0388  0.0825
 1035loPI   C3B16559   2.776   1.873   7.481 -0.1643  0.1405  0.0429
 1035loPI   C4B16560   2.778   1.834   7.942 -0.2417  0.1680  0.1051
 1036loPI    C116561  16.827   8.086   5.622 -0.0165 -0.0536 -0.0792
 1036loPI    C216562  16.492   8.147   5.413 -0.0520  0.1194  0.0258
 1036loPI    C316563  16.847   8.239   5.253 -0.0423 -0.1811 -0.1340
 1036loPI   PO416564  16.722   8.221   5.857 -0.0994 -0.2831 -0.0307
 1036loPI   GL116565  16.541   8.423   6.127  0.1804  0.2351  0.3589
 1036loPI   GL216566  16.448   8.767   6.056 -0.2720 -0.1966 -0.1259
 1036loPI   C1A16567  16.632   8.315   6.566 -0.2022 -0.0087 -0.1848
 1036loPI   C2A16568  16.543   8.301   7.052 -0.3891 -0.2600  0.1213
 1036loPI   C3A16569  16.587   8.395   7.497  0.2831  0.0136  0.1171
 1036loPI   C4A16570  16.558   8.341   7.888 -0.1963 -0.1867 -0.1209
 1036loPI   C5A16571  16.395   8.225   8.362 -0.0693  0.0691  0.1258
 1036loPI   C6A16572  16.566   7.851   8.575 -0.0150 -0.0900  0.3208
 1036loPI   C1B16573  16.453   8.843   6.544  0.2605 -0.0954  0.1767
 1036loPI   C2B16574  16.454   8.859   7.015  0.1394 -0.0503  0.1128
 1036loPI   C3B16575  16.480   8.899   7.465  0.0025 -0.0457 -0.1487
 1036loPI   C4B16576  16.361   8.987   7.797 -0.1148 -0.2690  0.0328
 1037loPI    C116577  17.406   3.861   5.567  0.0284  0.1520 -0.3110
 1037loPI    C216578  17.211   3.907   5.221 -0.0171 -0.1404 -0.3269
 1037loPI    C316579  17.599   3.809   5.220 -0.0097 -0.1110 -0.2948
 1037loPI   PO416580  17.379   4.094   5.701  0.1871 -0.0938 -0.0220
 1037loPI   GL116581  17.556   4.150   6.145  0.0510  0.1066  0.0744
 1037loPI   GL216582  17.499   4.427   6.014 -0.1747  0.1003  0.0891
 1037loPI   C1A16583  17.559   3.981   6.590  0.0407  0.3256 -0.2205
 1037loPI   C2A16584  17.611   4.046   7.066  0.1144 -0.1506 -0.2653
 1037loPI   C3A16585  17.645   4.102   7.444 -0.1601  0.0912  0.2131
 1037loPI   C4A16586  17.617   3.829   7.778  0.4013  0.2253 -0.1999
 1037loPI   C5A16587  17.764   3.784   8.196  0.2464 -0.0816 -0.1627
 1037loPI   C6A16588  18.032   3.628   8.395 -0.0772  0.0601  0.0623
 1037loPI   C1B16589  17.590   4.611   6.414  0.4058 -0.3155 -0.1697
 1037loPI   C2B16590  17.512   4.465   6.889 -0.3037  0.0852  0.1044
 1037loPI   C3B16591  17.621   4.578   7.377 -0.0690  0.0719  0.2183
 1037loPI   C4B16592  17.530   4.612   7.816  0.0171 -0.0988  0.0908
 1038loPI    C116593  13.826   6.690   5.351  0.0350  0.0956 -0.1075
 1038loPI    C216594  13.633   6.340   5.366  0.1630  0.0302  0.0490
 1038loPI    C316595  13.470   6.651   5.174 -0.2162  0.0516  0.3909
 1038loPI   PO416596  13.926   6.662   5.562 -0.0170  0.0371  0.1058
 1038loPI   GL116597  13.809   6.530   6.038 -0.2300 -0.1932  0.0652
 1038loPI   GL216598  13.847   6.222   6.236  0.1716 -0.2330  0.0937
 1038loPI   C1A16599  13.621   6.578   6.435 -0.0342 -0.0328 -0.2221
 1038loPI   C2A16600  13.644   6.616   6.875 -0.0733 -0.0172 -0.0979
 1038loPI   C3A16601  13.626   6.745   7.306 -0.1070  0.0160  0.1228
 1038loPI   C4A16602  13.672   6.708   7.763 -0.0012 -0.0982 -0.0249
 1038loPI   C5A16603  13.849   6.770   8.109 -0.1598 -0.1355  0.0929
 1038loPI   C6A16604  14.297   6.747   8.286  0.3878 -0.0372 -0.1350
 1038loPI   C1B16605  13.672   6.049   6.607  0.1887 -0.1429 -0.1052
 1038loPI   C2B16606  13.768   6.082   7.068  0.1820 -0.1050 -0.2015
 1038loPI   C3B16607  13.797   6.077   7.511 -0.1737 -0.1401  0.1728
 1038loPI   C4B16608  13.720   6.211   7.941 -0.1608  0.0050  0.0061
 1039loPI    C116609   6.817   4.423   5.276  0.0796 -0.1683 -0.1376
 1039loPI    C216610   6.961   4.083   5.123  0.1980 -0.1479 -0.0733
 1039loPI    C316611   6.640   4.256   4.959  0.1955 -0.2390 -0.1659
 1039loPI   PO416612   6.816   4.352   5.599 -0.0459  0.3062 -0.0727
 1039loPI   GL116613   6.740   4.350   5.924  0.0264  0.0488  0.3031
 1039loPI   GL216614   6.741   4.589   6.099  0.0950  0.0441  0.1133
 1039loPI   C1A16615   6.774   4.012   6.261  0.1776  0.2287  0.0465
 1039loPI   C2A16616   6.845   3.948   6.677  0.1530 -0.2636  0.3974
 1039loPI   C3A16617   6.868   4.008   7.093 -0.2096 -0.1521  0.1700
 1039loPI   C4A16618   6.955   4.002   7.520 -0.1225 -0.2964 -0.1046
 1039loPI   C5A16619   6.944   3.983   8.009 -0.2652  0.0496 -0.0273
 1039loPI   C6A16620   6.857   3.682   8.461 -0.1621 -0.0779  0.2642
 1039loPI   C1B16621   6.742   4.544   6.536 -0.2116  0.0191  0.1022
 1039loPI   C2B16622   6.820   4.582   6.932  0.5832  0.2440  0.1452
 1039loPI   C3B16623   6.730   4.437   7.320 -0.0711 -0.2387 -0.2379
 1039loPI   C4B16624   6.788   4.479   7.734  0.1715 -0.1636  0.0158
 1040loPI    C116625   4.986   6.041   5.315 -0.0129  0.1368  0.0053
 1040loPI    C216626   4.760   5.711   5.317 -0.0391  0.1547  0.0257
 1040loPI    C316627   4.620   6.048   5.155 -0.1468  0.2488  0.3088
 1040loPI   PO416628   5.113   5.987   5.658  0.1360  0.0451 -0.0100
 1040loPI   GL116629   5.231   6.127   5.929  0.0261 -0.1372  0.0182
 1040loPI   GL216630   5.076   6.203   6.167  0.0420  0.1558 -0.0130
 1040loPI   C1A16631   5.528   6.026   6.249 -0.0066  0.1424 -0.1365
 1040loPI   C2A16632   5.806   5.995   6.616 -0.0215 -0.2177 -0.0282
 1040loPI   C3A16633   5.655   5.946   7.037 -0.3185 -0.2107  0.0230
 1040loPI   C4A16634   5.712   5.878   7.456 -0.2527 -0.0242  0.2863
 1040loPI   C5A16635   5.883   5.765   7.830  0.2314  0.0324 -0.3420
 1040loPI   C6A16636   6.030   5.584   8.196  0.1955  0.4136 -0.0131
 1040loPI   C1B16637   5.188   6.196   6.535  0.0219 -0.0501 -0.0702
 1040loPI   C2B16638   5.221   6.112   6.948  0.1681 -0.0446 -0.0686
 1040loPI   C3B16639   5.204   6.086   7.348  0.0121  0.2457 -0.1215
 1040loPI   C4B16640   5.280   6.011   7.766  0.0421 -0.2474 -0.0752
 1041loPI    C116641   6.665  16.801   5.451 -0.0050  0.2413  0.1533
 1041loPI    C216642   6.938  16.907   5.178 -0.2232  0.0585 -0.1409
 1041loPI    C316643   6.901  16.523   5.286 -0.0797  0.1405  0.2148
 1041loPI   PO416644   6.753  16.937   5.610 -0.1309 -0.2089  0.1073
 1041loPI   GL116645   6.411  17.023   5.895  0.1681 -0.0033 -0.0037
 1041loPI   GL216646   6.272  17.328   5.954  0.1597  0.0667 -0.2383
 1041loPI   C1A16647   6.555  17.123   6.254  0.1953 -0.1042 -0.0800
 1041loPI   C2A16648   6.592  17.173   6.646  0.1200  0.3831 -0.0453
 1041loPI   C3A16649   6.554  17.220   7.043 -0.0231 -0.1715  0.1219
 1041loPI   C4A16650   6.552  17.273   7.427 -0.2900  0.2978  0.0509
 1041loPI   C5A16651   6.477  17.313   7.749 -0.0441 -0.2498  0.0841
 1041loPI   C6A16652   6.112  17.605   8.017  0.1037  0.0873  0.1802
 1041loPI   C1B16653   6.029  17.389   6.307 -0.0366 -0.0532 -0.2600
 1041loPI   C2B16654   6.050  17.289   6.667 -0.1913  0.3092 -0.0398
 1041loPI   C3B16655   6.092  17.375   7.125 -0.1073  0.1158 -0.0220
 1041loPI   C4B16656   6.075  17.433   7.512  0.3911  0.0775 -0.2268
 1042loPI    C116657   9.479   1.862   5.378  0.0698 -0.0977  0.0382
 1042loPI    C216658   9.215   1.597   5.237 -0.1769 -0.0662  0.4264
 1042loPI    C316659   9.206   1.976   5.109  0.0481 -0.1921  0.0199
 1042loPI   PO416660   9.486   1.839   5.663 -0.2002  0.0103 -0.1432
 1042loPI   GL116661   9.504   2.115   5.989 -0.2699  0.1851  0.2266
 1042loPI   GL216662   9.276   2.012   6.146  0.4360  0.0648 -0.2017
 1042loPI   C1A16663   9.686   2.289   6.318 -0.1064 -0.4449 -0.2197
 1042loPI   C2A16664   9.771   2.290   6.721 -0.3257 -0.3015  0.0151
 1042loPI   C3A16665   9.824   2.404   7.112  0.3492 -0.0002 -0.0325
 1042loPI   C4A16666   9.896   2.418   7.552 -0.3901  0.3916 -0.0356
 1042loPI   C5A16667   9.885   2.420   8.066  0.2557  0.2576  0.2239
 1042loPI   C6A16668  10.071   2.398   8.375  0.1067  0.5063 -0.3734
 1042loPI   C1B16669   9.318   2.012   6.608  0.2289 -0.3869  0.0889
 1042loPI   C2B16670   9.518   1.988   6.972  0.3422 -0.1079 -0.1393
 1042loPI   C3B16671   9.527   2.122   7.397 -0.0212 -0.3927 -0.1365
 1042loPI   C4B16672   9.460   2.175   7.872  0.2325 -0.0661  0.1087
 1043loPI    C116673  17.210   3.363   5.181 -0.1327 -0.3594 -0.2654
 1043loPI    C216674  17.563   3.372   4.993  0.0233  0.0368  0.0326
 1043loPI    C316675  17.259   3.594   4.858  0.0841  0.1900  0.1441
 1043loPI   PO416676  17.345   3.366   5.441 -0.0164 -0.0290 -0.4883
 1043loPI   GL116677  17.338   3.467   5.890 -0.1868 -0.1526  0.0118
 1043loPI   GL216678  17.701   3.456   6.013  0.2374 -0.0638  0.1038
 1043loPI   C1A16679  17.198   3.722   6.255 -0.1254  0.1286 -0.2348
 1043loPI   C2A16680  17.182   3.690   6.688  0.0175 -0.1286 -0.1066
 1043loPI   C3A16681  17.165   3.703   7.082  0.0938 -0.0684 -0.1756
 1043loPI   C4A16682  17.215   3.724   7.457  0.2050  0.1225 -0.1964
 1043loPI   C5A16683  17.212   3.638   8.037 -0.1587  0.3638 -0.4928
 1043loPI   C6A16684  17.085   3.259   8.247  0.2014  0.1364  0.1795
 1043loPI   C1B16685  17.580   3.473   6.459 -0.0328 -0.1494  0.3162
 1043loPI   C2B16686  17.623   3.574   6.937 -0.1892  0.0375 -0.0277
 1043loPI   C3B16687  17.683   3.553   7.437 -0.1426  0.1787  0.2164
 1043loPI   C4B16688  17.859   3.395   7.882 -0.3081  0.3012 -0.2562
 1044loPI    C116689  11.117   3.703   5.685 -0.0838  0.0146  0.0045
 1044loPI    C216690  11.250   4.061   5.804 -0.1323 -0.0046  0.1182
 1044loPI    C316691  11.052   4.026   5.458 -0.1944  0.0913  0.1438
 1044loPI   PO416692  11.312   3.505   5.643 -0.2526  0.1847 -0.2484
 1044loPI   GL116693  11.368   3.352   6.080  0.1820 -0.3368 -0.1468
 1044loPI   GL216694  11.518   3.135   6.272 -0.2733 -0.0513 -0.3874
 1044loPI   C1A16695  11.447   3.612   6.424  0.4206 -0.0521 -0.0086
 1044loPI   C2A16696  11.461   3.717   6.841  0.1662 -0.0573 -0.0214
 1044loPI   C3A16697  11.487   3.662   7.280 -0.3073  0.0132  0.0808
 1044loPI   C4A16698  11.495   3.808   7.740 -0.0864 -0.0147  0.0330
 1044loPI   C5A16699  11.540   3.912   8.201  0.1524 -0.0254 -0.2487
 1044loPI   C6A16700  11.125   3.940   8.498  0.0870 -0.1021 -0.2463
 1044loPI   C1B16701  11.499   3.161   6.632  0.0683  0.1004  0.1272
 1044loPI   C2B16702  11.552   3.155   7.121  0.1205  0.0909 -0.0836
 1044loPI   C3B16703  11.551   3.111   7.439  0.1595 -0.2870  0.1124
 1044loPI   C4B16704  11.503   3.322   7.860 -0.1894  0.2878 -0.1235
 1045loPI    C116705  11.819   6.971   5.299 -0.0461  0.0668 -0.1335
 1045loPI    C216706  11.881   6.731   4.985  0.0445 -0.0258 -0.0454
 1045loPI    C316707  11.674   7.070   4.940 -0.1734 -0.1703 -0.1494
 1045loPI   PO416708  11.776   6.823   5.466  0.1169 -0.2449 -0.0546
 1045loPI   GL116709  11.708   6.854   5.870  0.1386 -0.0888 -0.0074
 1045loPI   GL216710  11.482   7.063   5.981  0.1455  0.4688 -0.1711
 1045loPI   C1A16711  11.823   6.808   6.347  0.2864 -0.0961  0.1141
 1045loPI   C2A16712  11.800   6.978   6.725 -0.1415  0.2447 -0.1861
 1045loPI   C3A16713  11.757   7.006   7.219  0.1702 -0.0483  0.0785
 1045loPI   C4A16714  11.865   7.059   7.728 -0.1954  0.1354 -0.2745
 1045loPI   C5A16715  12.033   6.848   8.131  0.0017 -0.1915 -0.3724
 1045loPI   C6A16716  12.343   6.836   8.324  0.1571 -0.0464 -0.0680
 1045loPI   C1B16717  11.372   7.050   6.468 -0.1760  0.0314 -0.7043
 1045loPI   C2B16718  11.356   7.171   6.954 -0.0964 -0.2059  0.0630
 1045loPI   C3B16719  11.307   7.190   7.341 -0.0430  0.1499 -0.0776
 1045loPI   C4B16720  11.355   7.156   7.738 -0.1943 -0.2757  0.0217
 1046loPI    C116721   7.459   4.009   5.083  0.1087  0.1040  0.2344
 1046loPI    C216722   7.538   3.664   4.896 -0.1197  0.1542  0.0389
 1046loPI    C316723   7.495   4.001   4.684 -0.1254  0.2608  0.2077
 1046loPI   PO416724   7.610   3.967   5.339 -0.3886  0.1779  0.2583
 1046loPI   GL116725   7.699   4.107   5.762 -0.2159  0.0377 -0.1433
 1046loPI   GL216726   7.604   3.768   5.806  0.0699  0.1385  0.0411
 1046loPI   C1A16727   7.719   4.144   6.201  0.1909 -0.3745  0.2395
 1046loPI   C2A16728   7.693   4.131   6.613  0.0791  0.1760 -0.0210
 1046loPI   C3A16729   7.694   4.042   7.174 -0.2455  0.1309 -0.1755
 1046loPI   C4A16730   7.719   4.122   7.696  0.0789  0.0366  0.2454
 1046loPI   C5A16731   7.853   3.822   7.948  0.1409  0.1440 -0.0313
 1046loPI   C6A16732   8.011   3.920   8.252 -0.0920 -0.1957 -0.2800
 1046loPI   C1B16733   7.777   3.705   6.209 -0.1151 -0.0969 -0.0190
 1046loPI   C2B16734   7.825   3.656   6.642 -0.1682  0.0359  0.0372
 1046loPI   C3B16735   7.755   3.591   7.018 -0.0179  0.1794 -0.2369
 1046loPI   C4B16736   7.905   3.650   7.500  0.0628 -0.0867 -0.1685
 1047loPI    C116737  11.604   7.313   5.603  0.1719  0.1006 -0.1057
 1047loPI    C216738  11.503   7.428   5.234 -0.3417  0.2176  0.0622
 1047loPI    C316739  11.327   7.109   5.399  0.0202  0.0540  0.1425
 1047loPI   PO416740  11.867   7.364   5.664 -0.0525  0.1686  0.4875
 1047loPI   GL116741  12.012   7.283   6.047  0.2742  0.0182  0.2807
 1047loPI   GL216742  11.736   7.414   6.236 -0.5070  0.0527 -0.1017
 1047loPI   C1A16743  12.145   7.181   6.405 -0.2336 -0.0535 -0.1369
 1047loPI   C2A16744  12.239   7.144   6.785  0.3445 -0.0612  0.0933
 1047loPI   C3A16745  12.217   7.311   7.147 -0.1106 -0.4246  0.1354
 1047loPI   C4A16746  12.182   7.388   7.569  0.3085  0.0999  0.2057
 1047loPI   C5A16747  12.420   7.239   7.837  0.1449  0.0271  0.0106
 1047loPI   C6A16748  12.713   7.011   8.015  0.0551 -0.1044  0.2335
 1047loPI   C1B16749  11.762   7.481   6.645  0.1164 -0.1406  0.1533
 1047loPI   C2B16750  11.774   7.486   7.038 -0.0434  0.3463  0.2215
 1047loPI   C3B16751  11.691   7.531   7.437 -0.1090  0.0801  0.1937
 1047loPI   C4B16752  11.639   7.528   7.911 -0.0362 -0.2746  0.0196
 1048loPI    C116753  14.263  12.007   5.558 -0.1070  0.1666 -0.0146
 1048loPI    C216754  14.265  12.311   5.298  0.1068  0.1159 -0.0741
 1048loPI    C316755  14.371  11.944   5.178  0.0401  0.0572  0.0446
 1048loPI   PO416756  14.103  11.969   5.637 -0.3387 -0.1120  0.0928
 1048loPI   GL116757  13.983  11.992   6.006  0.2068 -0.0936 -0.1271
 1048loPI   GL216758  14.136  12.228   6.114  0.2046  0.1097  0.0175
 1048loPI   C1A16759  13.764  11.921   6.336 -0.4421 -0.1955 -0.1898
 1048loPI   C2A16760  13.781  11.894   6.747  0.1493  0.0886  0.2284
 1048loPI   C3A16761  13.626  12.013   7.163  0.0433  0.0976  0.3748
 1048loPI   C4A16762  13.663  12.117   7.630  0.2526  0.0430  0.0039
 1048loPI   C5A16763  13.633  12.143   8.095 -0.1309  0.0042 -0.0702
 1048loPI   C6A16764  13.585  12.413   8.386 -0.1042 -0.0873  0.3679
 1048loPI   C1B16765  14.127  12.184   6.572 -0.2185  0.0020  0.1424
 1048loPI   C2B16766  14.098  12.184   6.967 -0.0789 -0.1015  0.1434
 1048loPI   C3B16767  14.088  12.245   7.386 -0.1757  0.0089  0.3707
 1048loPI   C4B16768  14.059  12.307   7.816  0.1206 -0.0829 -0.0434
 1049loPI    C116769  17.326  10.158   5.792  0.1580  0.1819 -0.0476
 1049loPI    C216770  17.139   9.877   5.577  0.0294  0.0279  0.2583
 1049loPI    C316771  17.472   9.785   5.779  0.2188  0.2025  0.0317
 1049loPI   PO416772  17.042  10.268   5.914 -0.5372 -0.3119  0.5017
 1049loPI   GL116773  17.152  10.578   6.317 -0.0687 -0.1566  0.0259
 1049loPI   GL216774  17.238  10.237   6.375  0.1864  0.2604  0.1466
 1049loPI   C1A16775  17.145  10.523   6.755  0.0499  0.1297 -0.2900
 1049loPI   C2A16776  17.087  10.571   7.154  0.0862 -0.1703 -0.1209
 1049loPI   C3A16777  17.045  10.602   7.590  0.3216  0.2277 -0.1055
 1049loPI   C4A16778  17.029  10.597   8.075  0.2018 -0.0723 -0.0528
 1049loPI   C5A16779  17.253  10.793   8.392 -0.0033  0.0249 -0.0067
 1049loPI   C6A16780  17.325  11.221   8.526  0.2487  0.2626 -0.2171
 1049loPI   C1B16781  17.169  10.019   6.713  0.1967  0.0284 -0.0083
 1049loPI   C2B16782  17.142  10.012   7.172  0.1547 -0.3864  0.1541
 1049loPI   C3B16783  17.193  10.124   7.523  0.0026  0.1333  0.0576
 1049loPI   C4B16784  17.109  10.138   7.903 -0.1117 -0.0546  0.0395
 1050loPI    C116785   1.736   0.562   5.229  0.2105  0.2304 -0.0545
 1050loPI    C216786   2.004   0.266   5.196 -0.0658 -0.0228 -0.0772
 1050loPI    C316787   1.803   0.391   4.873 -0.0382  0.1071 -0.0446
 1050loPI   PO416788   1.731   0.737   5.445 -0.3995 -0.4251  0.0963
 1050loPI   GL116789   1.689   0.694   5.922  0.2653 -0.0707  0.0953
 1050loPI   GL216790   1.442   0.487   6.059  0.0789  0.0069  0.0254
 1050loPI   C1A16791   1.879   0.773   6.185 -0.1768 -0.0668  0.0249
 1050loPI   C2A16792   1.780   0.736   6.707 -0.2055 -0.0969  0.4088
 1050loPI   C3A16793   1.972   0.691   7.113 -0.0009  0.0993 -0.1039
 1050loPI   C4A16794   1.910   0.667   7.533 -0.1381 -0.0560 -0.5791
 1050loPI   C5A16795   1.905   0.729   7.913  0.0498 -0.0668 -0.1492
 1050loPI   C6A16796   2.019   0.919   8.330 -0.0218  0.2358  0.0434
 1050loPI   C1B16797   1.434   0.439   6.458  0.0513  0.0161  0.0993
 1050loPI   C2B16798   1.479   0.393   6.916  0.1234  0.0937  0.1164
 1050loPI   C3B16799   1.611   0.319   7.264 -0.0052  0.0683 -0.3477
 1050loPI   C4B16800   1.462   0.314   7.700 -0.3536  0.0907 -0.0708
 1051loPI    C116801  14.125  12.869   5.331 -0.0246  0.0231  0.1544
 1051loPI    C216802  13.925  13.210   5.271 -0.0651  0.0046  0.1825
 1051loPI    C316803  13.875  12.902   5.020  0.2052  0.1233 -0.0226
 1051loPI   PO416804  14.064  12.858   5.616 -0.1881 -0.1175 -0.0410
 1051loPI   GL116805  13.998  12.816   6.023 -0.1430  0.2000 -0.1226
 1051loPI   GL216806  13.786  12.612   6.111  0.2920  0.1067  0.4113
 1051loPI   C1A16807  14.134  12.796   6.376  0.3005  0.0690  0.0615
 1051loPI   C2A16808  14.055  12.707   6.794 -0.1070 -0.1101  0.0287
 1051loPI   C3A16809  14.026  12.865   7.309 -0.0112 -0.1772 -0.0332
 1051loPI   C4A16810  14.004  12.833   7.770  0.0530  0.1143  0.1507
 1051loPI   C5A16811  13.764  12.861   8.142 -0.1323  0.2109  0.0840
 1051loPI   C6A16812  13.757  13.043   8.548  0.2636 -0.0350  0.1209
 1051loPI   C1B16813  13.746  12.478   6.398 -0.0340  0.0283  0.5254
 1051loPI   C2B16814  13.606  12.409   6.763  0.1571  0.1045  0.0156
 1051loPI   C3B16815  13.558  12.494   7.244 -0.1348  0.2389 -0.0464
 1051loPI   C4B16816  13.610  12.624   7.627 -0.2079 -0.0363  0.0303
 1052loPI    C116817  10.960  14.259   5.486 -0.0705  0.0191  0.0284
 1052loPI    C216818  11.277  14.458   5.344 -0.1797  0.1503 -0.0337
 1052loPI    C316819  11.325  14.095   5.505  0.0113  0.1968  0.0176
 1052loPI   PO416820  10.846  14.413   5.720  0.3181  0.0441  0.0249
 1052loPI   GL116821  10.823  14.457   6.111 -0.2782  0.0394 -0.2854
 1052loPI   GL216822  10.560  14.578   6.304 -0.1785  0.2291  0.1582
 1052loPI   C1A16823  11.020  14.449   6.458  0.0461 -0.1130  0.1168
 1052loPI   C2A16824  10.984  14.497   6.906 -0.0656 -0.0537 -0.1692
 1052loPI   C3A16825  10.980  14.458   7.349 -0.0237 -0.0560  0.2300
 1052loPI   C4A16826  11.034  14.472   7.795  0.0787  0.0028  0.2225
 1052loPI   C5A16827  11.091  14.429   8.192 -0.1973 -0.0223 -0.3081
 1052loPI   C6A16828  10.898  14.326   8.624  0.0200  0.2761 -0.1064
 1052loPI   C1B16829  10.582  14.675   6.675 -0.3760  0.0116 -0.1873
 1052loPI   C2B16830  10.538  14.662   7.118  0.0068 -0.0087  0.1295
 1052loPI   C3B16831  10.545  14.633   7.524  0.3011 -0.0245  0.0545
 1052loPI   C4B16832  10.612  14.593   7.984  0.0637 -0.1055 -0.0026
 1053loPI    C116833  16.665   9.121   5.462 -0.0581  0.0895 -0.0588
 1053loPI    C216834  16.367   9.268   5.238 -0.1740 -0.1377 -0.0574
 1053loPI    C316835  16.713   9.164   5.067 -0.1046  0.0970 -0.0639
 1053loPI   PO416836  16.679   9.211   5.605  0.1296 -0.1343 -0.0931
 1053loPI   GL116837  16.630   9.256   5.993 -0.2764  0.0466  0.0440
 1053loPI   GL216838  16.385   9.264   6.132 -0.0628 -0.1624  0.1205
 1053loPI   C1A16839  16.838   9.122   6.349 -0.0265 -0.0237  0.2498
 1053loPI   C2A16840  16.880   9.185   6.767 -0.0027 -0.1222  0.0956
 1053loPI   C3A16841  16.884   9.249   7.167 -0.0211  0.0959 -0.0319
 1053loPI   C4A16842  16.863   9.269   7.608 -0.1000  0.0803  0.0959
 1053loPI   C5A16843  16.807   9.398   8.034  0.0402  0.0346  0.1149
 1053loPI   C6A16844  16.613   9.031   8.231 -0.2800  0.0692 -0.0841
 1053loPI   C1B16845  16.469   9.387   6.612  0.0773  0.1326  0.0213
 1053loPI   C2B16846  16.413   9.333   7.103  0.0355  0.1097  0.2070
 1053loPI   C3B16847  16.358   9.501   7.551  0.2001  0.0557 -0.2299
 1053loPI   C4B16848  16.311   9.503   7.987  0.2526 -0.0400  0.1596
 1054loPI    C116849   0.353  14.265   5.450 -0.1337  0.0524 -0.1092
 1054loPI    C216850   0.681  14.381   5.253 -0.1212 -0.0348 -0.1403
 1054loPI    C316851   0.333  14.566   5.188 -0.0750  0.0690 -0.0949
 1054loPI   PO416852   0.484  14.277   5.706  0.0428 -0.3382  0.2274
 1054loPI   GL116853   0.736  14.354   6.109  0.1823  0.0943  0.0689
 1054loPI   GL216854   0.519  14.184   6.186 -0.1236 -0.3441 -0.0390
 1054loPI   C1A16855   0.730  14.674   6.505  0.0452 -0.1182  0.0263
 1054loPI   C2A16856   0.774  14.833   6.902  0.1436 -0.0190  0.2842
 1054loPI   C3A16857   0.595  14.803   7.246 -0.0389 -0.0196 -0.0962
 1054loPI   C4A16858   0.677  14.886   7.625  0.0547 -0.0735 -0.2461
 1054loPI   C5A16859   0.748  14.793   8.080 -0.0288  0.0698  0.1301
 1054loPI   C6A16860   1.015  14.881   8.378  0.1581  0.1580  0.1355
 1054loPI   C1B16861   0.299  14.327   6.448 -0.4193 -0.2886 -0.2538
 1054loPI   C2B16862   0.362  14.464   6.800 -0.1473 -0.2007 -0.1969
 1054loPI   C3B16863   0.216  14.435   7.184  0.1102  0.0240  0.2388
 1054loPI   C4B16864   0.281  14.572   7.575  0.2607 -0.1315  0.4226
 1055loPI    C116865  15.711  16.124   5.322 -0.0659  0.2871  0.0286
 1055loPI    C216866  16.006  16.380   5.238  0.2988 -0.1638 -0.1101
 1055loPI    C316867  15.890  16.113   4.965 -0.3129  0.0667 -0.0924
 1055loPI   PO416868  15.789  16.058   5.632  0.2468 -0.3101 -0.2463
 1055loPI   GL116869  15.509  16.073   6.036 -0.0713 -0.0890 -0.1730
 1055loPI   GL216870  15.700  16.327   6.026  0.1062  0.0851 -0.2151
 1055loPI   C1A16871  15.385  16.194   6.409 -0.0189  0.1085 -0.0951
 1055loPI   C2A16872  15.296  16.161   6.886 -0.1342  0.3137 -0.1212
 1055loPI   C3A16873  15.356  16.191   7.347 -0.3051 -0.1082  0.1707
 1055loPI   C4A16874  15.262  16.168   7.821 -0.1220  0.1004  0.2296
 1055loPI   C5A16875  15.483  16.048   8.171 -0.0025 -0.0785  0.1478
 1055loPI   C6A16876  15.926  16.030   8.263 -0.0091 -0.0815 -0.2054
 1055loPI   C1B16877  15.798  16.445   6.484 -0.0465 -0.0751  0.0537
 1055loPI   C2B16878  15.785  16.440   6.986  0.2022  0.0450 -0.1248
 1055loPI   C3B16879  15.746  16.526   7.480 -0.0605 -0.0213  0.1947
 1055loPI   C4B16880  15.699  16.412   7.879 -0.5123  0.0867 -0.0591
 1056loPI    C116881   4.742   6.644   5.470 -0.3255 -0.1375 -0.1202
 1056loPI    C216882   4.474   6.753   5.194 -0.1808  0.0875 -0.1743
 1056loPI    C316883   4.599   7.018   5.467 -0.0381 -0.0250 -0.1292
 1056loPI   PO416884   4.718   6.410   5.615  0.3673  0.1197  0.0255
 1056loPI   GL116885   4.610   6.309   6.019  0.1422  0.2062 -0.0037
 1056loPI   GL216886   4.367   6.326   6.221 -0.1998 -0.1222 -0.1889
 1056loPI   C1A16887   4.763   6.449   6.457  0.3476  0.0562  0.1353
 1056loPI   C2A16888   4.682   6.416   6.871 -0.0423  0.2613 -0.1354
 1056loPI   C3A16889   4.721   6.336   7.217 -0.2149 -0.1920  0.1334
 1056loPI   C4A16890   4.770   6.233   7.635 -0.0911  0.1300 -0.3077
 1056loPI   C5A16891   4.850   6.208   8.053 -0.2989  0.4041 -0.1115
 1056loPI   C6A16892   5.196   6.176   8.367  0.0399  0.0250 -0.0078
 1056loPI   C1B16893   4.193   6.547   6.637  0.1348 -0.0397  0.3631
 1056loPI   C2B16894   4.210   6.548   7.091 -0.2495  0.2062  0.0072
 1056loPI   C3B16895   4.317   6.502   7.579 -0.0100  0.1790 -0.3029
 1056loPI   C4B16896   4.394   6.348   8.066  0.0808 -0.1373  0.1527
 1057loPI    C116897  17.566   4.838   5.609 -0.0366  0.3526 -0.0792
 1057loPI    C216898  17.339   4.556   5.440  0.2350 -0.0804  0.2586
 1057loPI    C316899  17.503   4.842   5.214 -0.2083 -0.0690 -0.0612
 1057loPI   PO416900  17.412   4.890   5.848 -0.1841 -0.1341 -0.1597
 1057loPI   GL116901  17.134   4.977   6.288  0.0638 -0.2597  0.0944
 1057loPI   GL216902  17.028   4.662   6.328 -0.0590 -0.0488 -0.0117
 1057loPI   C1A16903  17.069   5.246   6.588 -0.1729 -0.0193 -0.1324
 1057loPI   C2A16904  17.051   5.331   6.984 -0.0076 -0.2366 -0.1691
 1057loPI   C3A16905  17.100   5.382   7.403 -0.2190  0.0988  0.1802
 1057loPI   C4A16906  16.935   5.279   7.840 -0.0939  0.3031 -0.2047
 1057loPI   C5A16907  16.804   5.122   8.210 -0.0235  0.0061 -0.1118
 1057loPI   C6A16908  16.824   5.146   8.683 -0.1398  0.2302 -0.0737
 1057loPI   C1B16909  17.095   4.743   6.737  0.0910  0.0258  0.1355
 1057loPI   C2B16910  17.109   4.820   7.209 -0.1814 -0.1660 -0.0983
 1057loPI   C3B16911  17.152   4.773   7.593 -0.1038 -0.1671  0.0238
 1057loPI   C4B16912  16.900   4.601   7.983 -0.1545 -0.0941  0.0962
 1058loPI    C116913   7.388  12.796   5.668  0.1090  0.0949  0.1126
 1058loPI    C216914   7.081  13.005   5.518  0.1934  0.1273 -0.0165
 1058loPI    C316915   7.211  12.677   5.330  0.1254  0.0133  0.1326
 1058loPI   PO416916   7.364  12.775   5.827 -0.0285 -0.0383 -0.3550
 1058loPI   GL116917   7.533  12.491   6.128 -0.0885 -0.2406  0.2535
 1058loPI   GL216918   7.192  12.441   6.188 -0.3763 -0.0702 -0.0754
 1058loPI   C1A16919   7.665  12.796   6.482 -0.0651 -0.2083 -0.1294
 1058loPI   C2A16920   7.748  12.866   6.878 -0.0027  0.1157  0.2519
 1058loPI   C3A16921   7.669  12.879   7.327 -0.1942  0.2256 -0.0892
 1058loPI   C4A16922   7.717  12.929   7.751 -0.4849 -0.2024 -0.1710
 1058loPI   C5A16923   7.888  12.937   8.132  0.0588  0.0887 -0.1841
 1058loPI   C6A16924   8.229  12.708   8.313  0.0702  0.3139  0.4130
 1058loPI   C1B16925   7.273  12.505   6.647 -0.2567  0.1546 -0.1081
 1058loPI   C2B16926   7.305  12.494   6.999  0.0908  0.0567 -0.1086
 1058loPI   C3B16927   7.255  12.583   7.515  0.4451 -0.0082  0.0241
 1058loPI   C4B16928   7.287  12.766   7.948  0.0735  0.0247  0.0562
 1059loPI    C116929  14.410   3.711   5.030 -0.1176  0.1567  0.1012
 1059loPI    C216930  14.658   3.996   4.898  0.2890 -0.3405 -0.2517
 1059loPI    C316931  14.402   3.822   4.645  0.1561 -0.4015 -0.0766
 1059loPI   PO416932  14.276   3.810   5.296 -0.0091 -0.0103  0.0452
 1059loPI   GL116933  14.344   3.873   5.714 -0.1035 -0.1593  0.3065
 1059loPI   GL216934  14.055   3.849   5.975 -0.2298  0.2096 -0.1760
 1059loPI   C1A16935  14.546   3.793   6.163  0.0625  0.0915 -0.0314
 1059loPI   C2A16936  14.536   3.798   6.572  0.1953 -0.1386  0.3518
 1059loPI   C3A16937  14.549   3.917   7.032  0.0679  0.1627  0.0713
 1059loPI   C4A16938  14.575   3.866   7.469 -0.1287  0.0587 -0.3150
 1059loPI   C5A16939  14.518   3.800   7.999 -0.2815 -0.1543 -0.3571
 1059loPI   C6A16940  14.539   3.946   8.509 -0.0485 -0.0685  0.0030
 1059loPI   C1B16941  14.088   3.986   6.452  0.0381 -0.2475  0.1554
 1059loPI   C2B16942  14.113   4.013   6.900  0.1667  0.0799  0.0146
 1059loPI   C3B16943  14.090   4.002   7.333 -0.0187  0.3565 -0.1312
 1059loPI   C4B16944  14.162   4.073   7.715  0.1936  0.0748  0.2403
 1060loPI    C116945  17.446  14.720   5.566 -0.3814 -0.1131 -0.0539
 1060loPI    C216946  17.561  14.342   5.503 -0.2021 -0.0470 -0.1290
 1060loPI    C316947  17.340  14.533   5.229  0.2184  0.0999 -0.3744
 1060loPI   PO416948  17.546  14.713   5.844  0.1864 -0.1589 -0.1145
 1060loPI   GL116949  17.490  14.539   6.164  0.2698 -0.2100 -0.0121
 1060loPI   GL216950  17.563  14.269   6.102  0.2276 -0.0416  0.0389
 1060loPI   C1A16951  17.296  14.796   6.470 -0.3221 -0.2706  0.0569
 1060loPI   C2A16952  17.307  14.949   6.878 -0.1782 -0.0352 -0.0333
 1060loPI   C3A16953  17.319  14.873   7.276  0.1554  0.1091  0.1924
 1060loPI   C4A16954  17.397  14.975   7.632 -0.4934  0.2350  0.0735
 1060loPI   C5A16955  17.377  14.933   8.011 -0.0989 -0.0073 -0.2776
 1060loPI   C6A16956  17.489  15.150   8.426 -0.1801  0.2060 -0.1567
 1060loPI   C1B16957  17.451  14.287   6.534  0.1606 -0.3081 -0.0436
 1060loPI   C2B16958  17.432  14.290   6.946  0.0091  0.0864 -0.2495
 1060loPI   C3B16959  17.384  14.385   7.373  0.2674  0.0696  0.1190
 1060loPI   C4B16960  17.375  14.391   7.900  0.2283 -0.1179 -0.0132
 1061loPI    C116961  10.283   2.382   5.482 -0.0957  0.0869  0.0943
 1061loPI    C216962  10.018   2.407   5.184 -0.2295 -0.1455  0.1917
 1061loPI    C316963  10.400   2.320   5.104 -0.2682 -0.2237  0.0890
 1061loPI   PO416964  10.210   2.495   5.684 -0.3241 -0.0511  0.0731
 1061loPI   GL116965   9.895   2.611   6.043  0.3074 -0.3239 -0.0060
 1061loPI   GL216966  10.137   2.857   6.067 -0.3124  0.2606 -0.3815
 1061loPI   C1A16967  10.124   2.601   6.499  0.1278 -0.1239 -0.0081
 1061loPI   C2A16968  10.242   2.699   6.887  0.3784  0.4040  0.0429
 1061loPI   C3A16969  10.225   2.669   7.316 -0.0554  0.1689  0.1710
 1061loPI   C4A16970  10.300   2.850   7.729  0.2705  0.0257 -0.0851
 1061loPI   C5A16971  10.450   2.689   8.120  0.0213 -0.1721  0.0560
 1061loPI   C6A16972  10.675   2.825   8.501 -0.2290 -0.4540 -0.1803
 1061loPI   C1B16973  10.220   3.073   6.514  0.1497  0.1674 -0.1126
 1061loPI   C2B16974  10.134   3.239   6.930  0.1884  0.0520  0.0072
 1061loPI   C3B16975  10.175   3.160   7.321  0.1043  0.2130  0.4703
 1061loPI   C4B16976  10.156   3.308   7.647  0.0015 -0.1940 -0.0826
 1062loPI    C116977   3.232  11.193   5.607 -0.0504 -0.0078  0.1625
 1062loPI    C216978   2.952  11.427   5.444  0.0141 -0.0436 -0.0025
 1062loPI    C316979   3.339  11.504   5.379  0.0341 -0.2722 -0.1681
 1062loPI   PO416980   3.233  11.193   5.866 -0.1422  0.1948  0.1640
 1062loPI   GL116981   3.225  11.289   6.288 -0.2018  0.1979  0.2591
 1062loPI   GL216982   3.290  11.068   6.558 -0.1517 -0.1208  0.0121
 1062loPI   C1A16983   3.288  11.601   6.681  0.0079 -0.2326  0.1005
 1062loPI   C2A16984   3.288  11.637   7.160  0.1797 -0.0349 -0.0951
 1062loPI   C3A16985   2.995  11.731   7.500 -0.1252  0.1506  0.1904
 1062loPI   C4A16986   2.905  12.206   7.385  0.0201 -0.2738 -0.2039
 1062loPI   C5A16987   2.744  12.567   7.597 -0.0406  0.2478  0.1851
 1062loPI   C6A16988   2.414  12.705   7.439  0.0586  0.0909 -0.1947
 1062loPI   C1B16989   3.357  11.186   6.967 -0.1136  0.0161  0.1251
 1062loPI   C2B16990   3.222  11.190   7.470  0.1472 -0.0261  0.3597
 1062loPI   C3B16991   3.381  11.102   7.898  0.0054  0.0049  0.0582
 1062loPI   C4B16992   3.196  11.040   8.271 -0.0478  0.0013 -0.2709
 1063loPI    C116993   5.856   8.217   5.347  0.1140  0.0114 -0.0065
 1063loPI    C216994   5.744   8.016   5.020  0.0220  0.0313  0.0126
 1063loPI    C316995   5.941   8.362   4.984  0.0864 -0.0088 -0.0210
 1063loPI   PO416996   5.781   8.031   5.566  0.2834 -0.1665 -0.3773
 1063loPI   GL116997   5.765   8.060   6.012  0.4339 -0.1396 -0.0222
 1063loPI   GL216998   5.642   8.245   6.111 -0.3743 -0.2257  0.2039
 1063loPI   C1A16999   5.912   7.790   6.315 -0.0933 -0.0814 -0.0922
 1063loPI   C2A17000   5.939   7.823   6.812 -0.1341 -0.0768  0.0817
 1063loPI   C3A17001   5.923   7.791   7.208  0.0757  0.0554 -0.1017
 1063loPI   C4A17002   5.799   7.714   7.693 -0.0532  0.0321 -0.0708
 1063loPI   C5A17003   5.558   7.687   8.167 -0.0063 -0.1531  0.1963
 1063loPI   C6A17004   5.214   7.737   8.378  0.0175 -0.0071  0.1006
 1063loPI   C1B17005   5.558   8.079   6.552 -0.0763  0.2938  0.1940
 1063loPI   C2B17006   5.508   7.986   6.996 -0.0770 -0.1540 -0.0287
 1063loPI   C3B17007   5.466   7.958   7.392 -0.2188  0.1954  0.5556
 1063loPI   C4B17008   5.284   7.917   7.764 -0.0985 -0.2976  0.0839
 1064loPI    C117009   1.140   1.319   5.296 -0.0334 -0.0943  0.1759
 1064loPI    C217010   1.245   1.498   4.954 -0.1339 -0.0754  0.1548
 1064loPI    C317011   1.110   1.122   4.949 -0.0361 -0.1113  0.1858
 1064loPI   PO417012   1.054   1.454   5.377 -0.0000 -0.0700 -0.1944
 1064loPI   GL117013   1.111   1.508   5.816  0.0189  0.2167 -0.1638
 1064loPI   GL217014   0.842   1.703   5.969 -0.0054 -0.0263 -0.0688
 1064loPI   C1A17015   1.304   1.388   6.309 -0.1069 -0.3230  0.2876
 1064loPI   C2A17016   1.297   1.396   6.738 -0.1972 -0.0841 -0.2293
 1064loPI   C3A17017   1.370   1.460   7.187  0.0114  0.2043 -0.0897
 1064loPI   C4A17018   1.453   1.338   7.670  0.1900 -0.0578  0.0809
 1064loPI   C5A17019   1.589   1.162   8.105  0.3936  0.1207 -0.4173
 1064loPI   C6A17020   1.731   1.166   8.591  0.0324 -0.1330 -0.1243
 1064loPI   C1B17021   0.860   1.689   6.449  0.0434  0.2131  0.0648
 1064loPI   C2B17022   0.890   1.682   6.894 -0.0406 -0.0420  0.0820
 1064loPI   C3B17023   0.798   1.609   7.266 -0.0020  0.1841  0.1361
 1064loPI   C4B17024   0.991   1.565   7.605 -0.3792 -0.0853  0.0789
 1065loPI    C117025  14.988  12.707   5.454  0.0935  0.0512  0.0083
 1065loPI    C217026  14.605  12.716   5.338  0.0352  0.1440  0.2025
 1065loPI    C317027  14.845  13.027   5.262  0.0895  0.0605  0.0267
 1065loPI   PO417028  14.889  12.628   5.713  0.0110 -0.1343 -0.2676
 1065loPI   GL117029  14.871  12.809   6.070  0.4894  0.2658  0.2041
 1065loPI   GL217030  14.588  12.647   6.159  0.1457  0.0742 -0.2797
 1065loPI   C1A17031  14.999  12.837   6.497 -0.0905 -0.0330  0.1001
 1065loPI   C2A17032  14.896  13.000   6.894  0.0138 -0.5486  0.3551
 1065loPI   C3A17033  14.950  12.962   7.251  0.1853 -0.1325  0.1353
 1065loPI   C4A17034  14.838  12.984   7.709 -0.1537 -0.3316  0.2922
 1065loPI   C5A17035  14.946  12.856   8.201 -0.0741  0.0360 -0.0027
 1065loPI   C6A17036  14.735  12.488   8.406  0.3200  0.2760 -0.1444
 1065loPI   C1B17037  14.541  12.588   6.625  0.1362 -0.0177 -0.1791
 1065loPI   C2B17038  14.525  12.639   7.040 -0.0120 -0.0823 -0.1018
 1065loPI   C3B17039  14.431  12.682   7.492 -0.3447  0.0007 -0.3961
 1065loPI   C4B17040  14.483  12.738   7.954  0.1503 -0.0876  0.2570
 1066loPI    C117041   8.876   9.897   5.577  0.2441  0.0011  0.1018
 1066loPI    C217042   8.952  10.278   5.673  0.1641  0.0646 -0.0832
 1066loPI    C317043   8.882  10.177   5.292 -0.0145 -0.1020 -0.0082
 1066loPI   PO417044   9.033   9.800   5.737 -0.2013  0.1253  0.1108
 1066loPI   GL117045   9.175   9.941   6.175 -0.3739 -0.1810  0.2724
 1066loPI   GL217046   9.371  10.116   5.887 -0.3457  0.0159 -0.1197
 1066loPI   C1A17047   9.106   9.890   6.645 -0.0308  0.0115  0.2656
 1066loPI   C2A17048   9.085   9.969   7.036  0.0256 -0.0969  0.0304
 1066loPI   C3A17049   9.132   9.962   7.417 -0.0561 -0.0054 -0.0658
 1066loPI   C4A17050   9.107  10.044   7.845  0.2896  0.1689 -0.1202
 1066loPI   C5A17051   9.057  10.290   8.258  0.0045 -0.0515  0.0159
 1066loPI   C6A17052   8.833  10.712   8.371 -0.2031  0.3390  0.1852
 1066loPI   C1B17053   9.562  10.241   6.272  0.1446  0.1547  0.0610
 1066loPI   C2B17054   9.495  10.212   6.744  0.0509 -0.1696 -0.1895
 1066loPI   C3B17055   9.492  10.276   7.220  0.0044 -0.0157  0.1367
 1066loPI   C4B17056   9.427  10.375   7.664 -0.0188  0.2123  0.0133
 1067loPI    C117057  13.035   4.684   5.348 -0.0862 -0.0289  0.0105
 1067loPI    C217058  13.146   4.415   5.074  0.2591  0.0036  0.1137
 1067loPI    C317059  13.037   4.783   4.961  0.0800 -0.0839 -0.0034
 1067loPI   PO417060  13.173   4.779   5.506 -0.1046 -0.0821 -0.1109
 1067loPI   GL117061  13.358   4.619   5.907 -0.0559 -0.1832 -0.2621
 1067loPI   GL217062  13.115   4.839   6.032  0.3235 -0.1778  0.2740
 1067loPI   C1A17063  13.497   4.699   6.366  0.3066  0.3042 -0.0474
 1067loPI   C2A17064  13.499   4.666   6.779  0.0402 -0.2516 -0.1683
 1067loPI   C3A17065  13.514   4.772   7.223 -0.0695  0.0124 -0.2349
 1067loPI   C4A17066  13.535   4.731   7.649  0.0436 -0.0020 -0.0377
 1067loPI   C5A17067  13.525   4.938   8.075  0.4655  0.0276  0.0366
 1067loPI   C6A17068  13.408   4.712   8.467 -0.2411  0.0622 -0.1221
 1067loPI   C1B17069  13.040   4.933   6.421 -0.1218  0.0217 -0.3871
 1067loPI   C2B17070  13.013   4.890   6.832 -0.1289 -0.0265 -0.5159
 1067loPI   C3B17071  13.027   4.966   7.203 -0.1598  0.0614  0.0840
 1067loPI   C4B17072  13.113   5.012   7.660  0.0774  0.2729  0.2657
 1068loPI    C117073  12.276   8.072   5.505  0.1012 -0.1136  0.1884
 1068loPI    C217074  12.139   8.448   5.508 -0.1134 -0.1909  0.3633
 1068loPI    C317075  12.178   8.252   5.161 -0.2535 -0.0974  0.2939
 1068loPI   PO417076  12.439   8.105   5.661  0.0802  0.3352 -0.3833
 1068loPI   GL117077  12.751   8.149   6.043 -0.0465  0.1225  0.4032
 1068loPI   GL217078  12.464   8.146   6.150 -0.0385 -0.0968 -0.0252
 1068loPI   C1A17079  12.868   8.359   6.327  0.3422 -0.2114  0.2438
 1068loPI   C2A17080  12.842   8.467   6.661  0.2601  0.1083  0.3697
 1068loPI   C3A17081  12.863   8.539   7.041  0.0442 -0.2557  0.0944
 1068loPI   C4A17082  12.974   8.514   7.426  0.3603 -0.1704  0.2203
 1068loPI   C5A17083  13.039   8.616   7.854 -0.1601 -0.0594 -0.1881
 1068loPI   C6A17084  12.961   8.273   8.132 -0.0541  0.0492  0.0193
 1068loPI   C1B17085  12.474   8.059   6.590  0.0910  0.0080  0.0455
 1068loPI   C2B17086  12.550   8.099   7.048  0.1090 -0.0551  0.1550
 1068loPI   C3B17087  12.591   8.130   7.497 -0.0448 -0.1940 -0.0848
 1068loPI   C4B17088  12.582   8.124   7.899 -0.1492  0.2301 -0.1467
 1069loPI    C117089  13.962   9.110   5.242 -0.0734 -0.2105 -0.0415
 1069loPI    C217090  14.345   9.063   5.138 -0.0159  0.2118 -0.0383
 1069loPI    C317091  14.063   9.087   4.856 -0.0287  0.0084 -0.0442
 1069loPI   PO417092  13.952   8.968   5.444  0.0340  0.1502 -0.0346
 1069loPI   GL117093  13.980   8.861   5.877  0.0449  0.2319  0.0814
 1069loPI   GL217094  13.767   8.961   5.930 -0.0173 -0.1363 -0.1521
 1069loPI   C1A17095  14.173   8.738   6.206 -0.4882 -0.2432 -0.0476
 1069loPI   C2A17096  14.176   8.725   6.685 -0.0237  0.0329 -0.0421
 1069loPI   C3A17097  14.213   8.896   7.104  0.1868 -0.2901  0.1724
 1069loPI   C4A17098  14.210   8.859   7.478  0.0183 -0.0913  0.0517
 1069loPI   C5A17099  14.233   8.911   7.973  0.0838  0.0134 -0.0895
 1069loPI   C6A17100  14.589   9.202   8.138 -0.1378 -0.0062  0.1638
 1069loPI   C1B17101  13.744   8.924   6.317 -0.2614 -0.0732 -0.4001
 1069loPI   C2B17102  13.771   8.998   6.738 -0.1128 -0.1637  0.3731
 1069loPI   C3B17103  13.735   9.133   7.157 -0.1502 -0.1441  0.1155
 1069loPI   C4B17104  13.792   9.087   7.655  0.0509  0.0890  0.1620
 1070loPI    C117105   9.304   5.060   5.256 -0.0779  0.1134  0.1229
 1070loPI    C217106   8.991   4.957   5.029 -0.0434 -0.0420  0.1448
 1070loPI    C317107   9.363   4.871   4.908 -0.0260 -0.1428  0.2683
 1070loPI   PO417108   9.248   4.898   5.524  0.3647 -0.1112 -0.1946
 1070loPI   GL117109   9.400   4.740   5.807  0.1192 -0.4435 -0.0641
 1070loPI   GL217110   9.190   4.557   5.981 -0.1850  0.1063 -0.0909
 1070loPI   C1A17111   9.507   4.949   6.149  0.0110 -0.1198 -0.2236
 1070loPI   C2A17112   9.402   4.884   6.588 -0.1442  0.0434 -0.0406
 1070loPI   C3A17113   9.374   4.927   6.970 -0.0738  0.2203  0.1465
 1070loPI   C4A17114   9.500   4.933   7.380  0.3567 -0.1551  0.1985
 1070loPI   C5A17115   9.608   4.728   7.778  0.3314  0.1504  0.0337
 1070loPI   C6A17116   9.391   4.449   8.111 -0.3467  0.0558 -0.2090
 1070loPI   C1B17117   9.026   4.495   6.410 -0.3352  0.0196  0.3764
 1070loPI   C2B17118   9.024   4.575   6.852  0.3390 -0.1936  0.1183
 1070loPI   C3B17119   9.025   4.655   7.297 -0.1692  0.2639 -0.0249
 1070loPI   C4B17120   8.997   4.578   7.778 -0.0120  0.3720 -0.0332
 1071loPI    C117121   3.278   8.290   6.125  0.0445 -0.2037 -0.1786
 1071loPI    C217122   3.515   8.347   5.807 -0.0718 -0.0151 -0.2338
 1071loPI    C317123   3.131   8.459   5.793 -0.0737  0.0105 -0.0204
 1071loPI   PO417124   3.466   8.081   6.281 -0.1383 -0.0467 -0.1592
 1071loPI   GL117125   3.808   7.948   6.477  0.3061 -0.0291  0.0277
 1071loPI   GL217126   4.156   7.986   6.470  0.2222 -0.2975  0.0858
 1071loPI   C1A17127   3.644   7.883   6.960  0.1057  0.1292 -0.1514
 1071loPI   C2A17128   3.711   7.660   7.314 -0.4143  0.0611 -0.0335
 1071loPI   C3A17129   3.757   7.802   7.727 -0.0861  0.0105  0.1541
 1071loPI   C4A17130   3.742   7.934   8.103 -0.0708 -0.1403  0.6158
 1071loPI   C5A17131   3.599   7.824   8.427  0.0722 -0.0190  0.0517
 1071loPI   C6A17132   3.505   7.483   8.386  0.2196  0.0733  0.0045
 1071loPI   C1B17133   4.162   8.091   6.922  0.2264  0.3441 -0.1730
 1071loPI   C2B17134   3.990   8.088   7.388  0.2062 -0.1203  0.0651
 1071loPI   C3B17135   3.955   8.256   7.787 -0.0184  0.2094 -0.3849
 1071loPI   C4B17136   4.059   8.376   8.242 -0.0740 -0.0931  0.0809
 1072loPI    C117137   3.931  12.972   5.617 -0.1798 -0.1993 -0.0404
 1072loPI    C217138   4.309  12.847   5.658 -0.1613 -0.1013  0.0912
 1072loPI    C317139   4.101  12.749   5.331  0.0489  0.0251 -0.0835
 1072loPI   PO417140   3.716  13.058   5.928 -0.0645 -0.3987 -0.1473
 1072loPI   GL117141   3.475  13.265   6.226 -0.1310  0.3552  0.3352
 1072loPI   GL217142   3.433  13.599   6.274 -0.3451  0.1719  0.0108
 1072loPI   C1A17143   3.671  13.337   6.639  0.1234 -0.0096 -0.2393
 1072loPI   C2A17144   3.769  13.435   7.082 -0.1021 -0.2593 -0.0192
 1072loPI   C3A17145   4.005  13.364   7.409 -0.3728  0.2392  0.0613
 1072loPI   C4A17146   4.262  13.263   7.747 -0.0769 -0.1071 -0.0853
 1072loPI   C5A17147   4.584  13.200   7.826 -0.3314 -0.0036  0.2008
 1072loPI   C6A17148   4.846  12.980   8.148 -0.0475 -0.0170 -0.0640
 1072loPI   C1B17149   3.244  13.566   6.670 -0.1737 -0.1745 -0.3061
 1072loPI   C2B17150   3.330  13.546   7.104  0.2490 -0.1033 -0.2562
 1072loPI   C3B17151   3.563  13.448   7.519  0.2859  0.1485 -0.0122
 1072loPI   C4B17152   3.808  13.379   7.887  0.0115 -0.1141  0.1607
 1073loPI    C117153   2.110  11.615   5.792  0.2316 -0.2499  0.1497
 1073loPI    C217154   2.418  11.682   5.546 -0.0549  0.0126 -0.1460
 1073loPI    C317155   2.043  11.716   5.411 -0.2193 -0.4351  0.1738
 1073loPI   PO417156   2.107  11.492   6.057 -0.2573  0.0282 -0.2925
 1073loPI   GL117157   1.843  11.399   6.292 -0.0421 -0.0709  0.0346
 1073loPI   GL217158   1.827  11.556   6.506 -0.0875 -0.2604 -0.3155
 1073loPI   C1A17159   2.173  11.236   6.650 -0.2234  0.0080  0.2024
 1073loPI   C2A17160   2.330  11.408   6.995  0.0625 -0.2437 -0.0006
 1073loPI   C3A17161   2.454  11.120   7.372  0.0392 -0.1116 -0.0864
 1073loPI   C4A17162   2.423  11.088   7.807 -0.1012 -0.1683  0.0988
 1073loPI   C5A17163   2.399  10.963   8.230 -0.3056  0.0244 -0.0984
 1073loPI   C6A17164   2.799  10.973   8.662  0.1752  0.1602 -0.0426
 1073loPI   C1B17165   1.788  11.437   7.002  0.0068  0.0758  0.2357
 1073loPI   C2B17166   1.972  11.339   7.371  0.2818 -0.3747  0.0971
 1073loPI   C3B17167   1.937  11.502   7.765  0.2937  0.0827  0.2082
 1073loPI   C4B17168   1.696  11.708   8.091 -0.1372  0.4038  0.1287
 1074loPI    C117169   6.384   3.412   5.182 -0.0962 -0.0332 -0.0486
 1074loPI    C217170   6.621   3.702   5.041 -0.1583  0.0199 -0.0443
 1074loPI    C317171   6.560   3.371   4.825 -0.1755  0.0584 -0.0987
 1074loPI   PO417172   6.191   3.617   5.374  0.1820  0.1498 -0.0538
 1074loPI   GL117173   6.033   3.402   5.747 -0.0435  0.3834 -0.1306
 1074loPI   GL217174   5.867   3.594   5.947  0.0779 -0.0533  0.2749
 1074loPI   C1A17175   6.026   3.317   6.315  0.0420  0.3055  0.1328
 1074loPI   C2A17176   6.041   3.373   6.710 -0.0436 -0.2426 -0.0720
 1074loPI   C3A17177   6.093   3.294   7.133 -0.1876  0.2082 -0.1173
 1074loPI   C4A17178   6.205   3.333   7.680  0.1008  0.0726  0.1038
 1074loPI   C5A17179   6.003   3.490   8.010  0.1373  0.0083 -0.2828
 1074loPI   C6A17180   5.928   3.993   7.939  0.0919  0.2115  0.1394
 1074loPI   C1B17181   5.915   3.960   6.252 -0.0227 -0.4372 -0.2919
 1074loPI   C2B17182   5.981   3.861   6.727  0.1382 -0.1381 -0.0047
 1074loPI   C3B17183   5.959   3.793   7.139  0.1647 -0.1777  0.0406
 1074loPI   C4B17184   5.989   3.708   7.519 -0.0380 -0.4277  0.0820
 1075loPI    C117185   9.209  12.500   5.223 -0.1230  0.0647  0.1179
 1075loPI    C217186   9.003  12.315   4.934 -0.1590  0.0519  0.1517
 1075loPI    C317187   9.203  12.652   4.853  0.0041 -0.0650  0.0616
 1075loPI   PO417188   9.085  12.527   5.444  0.1430 -0.2463  0.2797
 1075loPI   GL117189   9.268  12.463   5.868 -0.0386 -0.3100 -0.1651
 1075loPI   GL217190   9.269  12.762   6.098  0.0821  0.1629  0.0110
 1075loPI   C1A17191   9.142  12.261   6.216 -0.0397 -0.0869 -0.1076
 1075loPI   C2A17192   9.119  12.223   6.698 -0.3041 -0.1062  0.0265
 1075loPI   C3A17193   9.151  12.282   7.151  0.0227 -0.0991  0.1439
 1075loPI   C4A17194   9.177  12.347   7.575  0.3726 -0.1592  0.4005
 1075loPI   C5A17195   9.140  12.387   7.979  0.0326  0.1915 -0.0044
 1075loPI   C6A17196   9.094  12.195   8.404 -0.1652  0.0816 -0.1541
 1075loPI   C1B17197   9.035  12.679   6.482  0.4368  0.0585 -0.1770
 1075loPI   C2B17198   9.067  12.758   6.917 -0.1562 -0.1801  0.3298
 1075loPI   C3B17199   9.077  12.761   7.355 -0.0425  0.0362 -0.1117
 1075loPI   C4B17200   9.063  12.835   7.784 -0.1941  0.1602  0.0722
 1076loPI    C117201   7.106   1.873   5.133  0.0835  0.1145 -0.0159
 1076loPI    C217202   7.250   1.517   5.019  0.0128  0.0085  0.2194
 1076loPI    C317203   7.141   1.786   4.744  0.1453 -0.1188  0.0399
 1076loPI   PO417204   6.977   1.833   5.307  0.0401  0.1043  0.0159
 1076loPI   GL117205   7.062   1.844   5.696  0.1365  0.1434 -0.1227
 1076loPI   GL217206   6.735   1.711   5.929 -0.2632 -0.3848  0.1001
 1076loPI   C1A17207   7.131   1.996   6.040  0.0081  0.0387  0.2034
 1076loPI   C2A17208   7.037   1.973   6.459 -0.0673 -0.0032  0.1838
 1076loPI   C3A17209   7.186   1.951   6.910  0.1921 -0.1416  0.3312
 1076loPI   C4A17210   7.159   2.048   7.293  0.0426  0.1006 -0.0906
 1076loPI   C5A17211   7.269   1.930   7.724 -0.1849 -0.0175 -0.0658
 1076loPI   C6A17212   7.642   1.757   7.820  0.0807  0.1440 -0.0434
 1076loPI   C1B17213   6.723   1.581   6.370 -0.1986  0.0036 -0.1903
 1076loPI   C2B17214   6.761   1.730   6.803  0.1441  0.1491  0.0244
 1076loPI   C3B17215   6.786   1.644   7.246  0.0418 -0.0762  0.0470
 1076loPI   C4B17216   6.885   1.601   7.687 -0.0661  0.2384 -0.2504
 1077loPI    C117217   4.331   6.639   5.804  0.0544  0.2064  0.3429
 1077loPI    C217218   4.039   6.894   5.705  0.0181  0.1211  0.2276
 1077loPI    C317219   3.965   6.592   5.958 -0.1362 -0.2139 -0.2042
 1077loPI   PO417220   4.530   6.769   5.924 -0.1982  0.4085 -0.0599
 1077loPI   GL117221   4.785   6.941   6.289  0.0838 -0.1500  0.0523
 1077loPI   GL217222   5.170   6.809   6.318  0.7155 -0.0844 -0.1598
 1077loPI   C1A17223   4.571   6.896   6.667 -0.0547  0.1517  0.0812
 1077loPI   C2A17224   4.631   6.868   7.124  0.0212 -0.0001  0.0003
 1077loPI   C3A17225   4.683   6.831   7.524  0.0694 -0.0380  0.0551
 1077loPI   C4A17226   4.773   6.690   8.003  0.2619  0.0741  0.0788
 1077loPI   C5A17227   4.725   6.480   8.451  0.2173  0.3688 -0.1622
 1077loPI   C6A17228   5.036   6.453   8.839 -0.0181  0.0669  0.1149
 1077loPI   C1B17229   5.117   6.704   6.700 -0.5766  0.0669  0.2098
 1077loPI   C2B17230   5.140   6.595   7.129  0.1332 -0.1123 -0.0027
 1077loPI   C3B17231   5.171   6.535   7.596 -0.1325 -0.2001 -0.1113
 1077loPI   C4B17232   5.231   6.495   7.984  0.1601 -0.0495 -0.0583
 1078loPI    C117233  17.023   0.346   5.527 -0.1242 -0.3239  0.3741
 1078loPI    C217234  16.739   0.088   5.414 -0.0783 -0.1814 -0.0905
 1078loPI    C317235  17.054   0.154   5.177  0.0393  0.1120  0.1414
 1078loPI   PO417236  17.044   0.282   5.815 -0.0789 -0.1103  0.0835
 1078loPI   GL117237  17.097   0.342   6.151  0.0033 -0.2276 -0.0813
 1078loPI   GL217238  16.821   0.492   6.307 -0.0314  0.2743  0.2774
 1078loPI   C1A17239  17.332   0.267   6.521  0.0286 -0.0173  0.2554
 1078loPI   C2A17240  17.265   0.339   6.981  0.2161  0.1936 -0.4871
 1078loPI   C3A17241  17.307   0.320   7.488  0.1545  0.2369 -0.0072
 1078loPI   C4A17242  17.316   0.272   7.907 -0.0285 -0.0778  0.0367
 1078loPI   C5A17243  17.002   0.357   8.281  0.2194  0.0932  0.0576
 1078loPI   C6A17244  16.620   0.153   8.340  0.1283 -0.2243  0.1877
 1078loPI   C1B17245  16.818   0.506   6.756 -0.1276  0.2978  0.1544
 1078loPI   C2B17246  16.810   0.441   7.155  0.2425 -0.0770  0.0389
 1078loPI   C3B17247  16.796   0.451   7.497  0.2945 -0.1729  0.0017
 1078loPI   C4B17248  16.958   0.644   7.835  0.0200  0.0155 -0.1880
 1079loPI    C117249   8.204  16.329   5.337 -0.0511 -0.1079 -0.1891
 1079loPI    C217250   7.923  16.065   5.230 -0.1767 -0.0042 -0.1171
 1079loPI    C317251   8.223  16.151   4.979 -0.2953  0.0018 -0.2580
 1079loPI   PO417252   8.228  16.285   5.545 -0.1769  0.2715  0.1354
 1079loPI   GL117253   8.400  16.494   5.928 -0.0750  0.0302 -0.0247
 1079loPI   GL217254   8.078  16.602   6.085 -0.0559 -0.3119 -0.0907
 1079loPI   C1A17255   8.508  16.373   6.309  0.0003 -0.0671 -0.0091
 1079loPI   C2A17256   8.506  16.416   6.712 -0.0319  0.0524 -0.0956
 1079loPI   C3A17257   8.549  16.488   7.172 -0.0487 -0.3097 -0.0420
 1079loPI   C4A17258   8.475  16.476   7.585  0.1751 -0.1646  0.0483
 1079loPI   C5A17259   8.556  16.527   8.004 -0.0013  0.0004 -0.0524
 1079loPI   C6A17260   8.430  16.534   8.435  0.1535 -0.1491  0.1075
 1079loPI   C1B17261   7.957  16.519   6.468 -0.1702  0.2024 -0.0874
 1079loPI   C2B17262   8.087  16.637   6.941  0.0693 -0.0962 -0.1598
 1079loPI   C3B17263   8.141  16.750   7.374  0.1761  0.0226  0.2197
 1079loPI   C4B17264   8.179  16.816   7.814  0.2253 -0.0488 -0.3386
 1080loPI    C117265   5.667  16.654   5.220 -0.1168 -0.1072  0.1510
 1080loPI    C217266   6.030  16.614   5.057 -0.0748 -0.1979  0.2657
 1080loPI    C317267   5.718  16.714   4.828 -0.0192 -0.3386  0.1268
 1080loPI   PO417268   5.665  16.745   5.433 -0.1134 -0.2517 -0.2430
 1080loPI   GL117269   5.462  16.580   5.778  0.2283 -0.0914 -0.0055
 1080loPI   GL217270   5.335  16.839   5.856  0.0286  0.1209 -0.0202
 1080loPI   C1A17271   5.697  16.611   6.135  0.0841  0.2772 -0.4010
 1080loPI   C2A17272   5.678  16.563   6.567 -0.1251 -0.0666  0.0790
 1080loPI   C3A17273   5.777  16.604   6.973 -0.1185 -0.2171 -0.1274
 1080loPI   C4A17274   5.819  16.582   7.424  0.1062 -0.0963  0.0887
 1080loPI   C5A17275   5.823  16.572   7.848 -0.1693 -0.0664  0.0286
 1080loPI   C6A17276   5.771  16.784   8.232 -0.0861  0.1596 -0.3079
 1080loPI   C1B17277   5.258  16.754   6.323 -0.1350  0.0174  0.1673
 1080loPI   C2B17278   5.281  16.850   6.729  0.0323  0.0697 -0.0910
 1080loPI   C3B17279   5.342  16.763   7.197  0.0690 -0.0131  0.0871
 1080loPI   C4B17280   5.374  16.789   7.597 -0.0192  0.1065  0.0951
 1081loPI    C117281   5.532   0.425   5.488  0.1836 -0.2318  0.0210
 1081loPI    C217282   5.493   0.765   5.695  0.0088 -0.0446 -0.3117
 1081loPI    C317283   5.857   0.625   5.608  0.0854 -0.1439  0.1436
 1081loPI   PO417284   5.421   0.213   5.614  0.0119  0.3139 -0.1161
 1081loPI   GL117285   5.211   0.298   5.959  0.0178 -0.0379 -0.1779
 1081loPI   GL217286   5.001   0.280   6.179 -0.0397 -0.1271 -0.0468
 1081loPI   C1A17287   5.494   0.589   6.265 -0.4329  0.0797 -0.2872
 1081loPI   C2A17288   5.507   0.664   6.748  0.2491 -0.3361 -0.2314
 1081loPI   C3A17289   5.497   0.713   7.247 -0.0428  0.1293  0.1418
 1081loPI   C4A17290   5.565   0.805   7.650 -0.0461 -0.1690 -0.0749
 1081loPI   C5A17291   5.628   0.873   8.024 -0.4483  0.2702  0.1260
 1081loPI   C6A17292   5.776   1.021   8.405  0.0945  0.0745 -0.1014
 1081loPI   C1B17293   5.121   0.268   6.524 -0.2281 -0.1649  0.2827
 1081loPI   C2B17294   5.110   0.346   6.931  0.2879  0.0529 -0.1516
 1081loPI   C3B17295   5.156   0.353   7.373  0.0472 -0.0364  0.1519
 1081loPI   C4B17296   5.129   0.212   7.811 -0.2811 -0.3555 -0.1986
 1082loPI    C117297   9.177   5.527   5.005 -0.2258 -0.0122  0.2302
 1082loPI    C217298   8.791   5.431   4.957 -0.1378 -0.2731  0.0152
 1082loPI    C317299   9.035   5.442   4.641 -0.0376  0.2189  0.1009
 1082loPI   PO417300   9.143   5.620   5.231 -0.0203 -0.2334 -0.1464
 1082loPI   GL117301   8.981   5.633   5.682 -0.2263 -0.1120  0.1180
 1082loPI   GL217302   9.210   5.808   5.873  0.0463  0.3291  0.1376
 1082loPI   C1A17303   8.813   5.554   6.167  0.0124  0.0950 -0.0041
 1082loPI   C2A17304   8.837   5.580   6.577 -0.0961 -0.2688 -0.0660
 1082loPI   C3A17305   8.835   5.554   6.973  0.1282  0.0768  0.0996
 1082loPI   C4A17306   8.871   5.671   7.463 -0.1355  0.0776  0.3015
 1082loPI   C5A17307   9.030   5.642   7.848 -0.2723 -0.0416 -0.0775
 1082loPI   C6A17308   9.273   5.496   8.235 -0.2079  0.2541  0.1773
 1082loPI   C1B17309   9.201   5.812   6.284  0.1113  0.1735 -0.2500
 1082loPI   C2B17310   9.319   5.889   6.681 -0.1885  0.3631 -0.2053
 1082loPI   C3B17311   9.340   5.925   7.158 -0.0884 -0.3784  0.1191
 1082loPI   C4B17312   9.294   6.016   7.610  0.1655 -0.1324 -0.0781
 1083loPI    C117313   9.330  17.791   5.472 -0.1203 -0.0786  0.0392
 1083loPI    C217314   9.114  18.056   5.265 -0.0065  0.0721  0.1112
 1083loPI    C317315   9.424  17.873   5.092 -0.0298  0.0535  0.0891
 1083loPI   PO417316   9.418  17.896   5.737  0.1506  0.1551  0.1367
 1083loPI   GL117317   9.593  17.996   6.027  0.1584 -0.3624  0.1002
 1083loPI   GL217318   9.827  18.094   6.048  0.2605  0.0194 -0.0219
 1083loPI   C1A17319   9.595  17.856   6.491  0.4458 -0.0061  0.1494
 1083loPI   C2A17320   9.658  17.944   6.914 -0.1560  0.0520  0.0313
 1083loPI   C3A17321   9.764  17.968   7.351  0.1588 -0.0332  0.0432
 1083loPI   C4A17322   9.898  18.057   7.752  0.1438 -0.0703  0.0571
 1083loPI   C5A17323  10.149  18.203   8.086  0.0993  0.3060  0.3327
 1083loPI   C6A17324  10.026  18.245   8.492  0.2460 -0.1876 -0.0130
 1083loPI   C1B17325   9.950  18.280   6.444  0.1658 -0.0104 -0.0699
 1083loPI   C2B17326  10.074  18.325   6.829 -0.2247 -0.1648 -0.3066
 1083loPI   C3B17327  10.206  18.272   7.199  0.1161 -0.0075  0.2014
 1083loPI   C4B17328  10.212  18.340   7.537 -0.2718 -0.0975  0.0660
 1084loPI    C117329   6.010   1.662   5.304  0.2334 -0.0119  0.1031
 1084loPI    C217330   6.162   1.970   5.099  0.0130  0.0808  0.0761
 1084loPI    C317331   5.895   1.727   4.926 -0.0803  0.0854  0.2123
 1084loPI   PO417332   5.956   1.636   5.615  0.0166  0.2538  0.1854
 1084loPI   GL117333   5.938   1.828   6.007  0.0411 -0.3250  0.1305
 1084loPI   GL217334   6.183   1.845   6.097  0.1536 -0.2342 -0.4338
 1084loPI   C1A17335   5.781   1.921   6.417  0.1524  0.0416  0.0880
 1084loPI   C2A17336   5.734   1.945   6.854  0.2058  0.2760  0.1455
 1084loPI   C3A17337   5.761   2.007   7.274 -0.0898 -0.0018  0.0238
 1084loPI   C4A17338   5.808   2.031   7.610 -0.5602  0.2701 -0.1017
 1084loPI   C5A17339   5.629   1.840   8.046 -0.0420 -0.1330 -0.0576
 1084loPI   C6A17340   5.574   1.913   8.494  0.2984  0.2011  0.0033
 1084loPI   C1B17341   6.229   1.809   6.503 -0.0876 -0.3986  0.0999
 1084loPI   C2B17342   6.259   1.859   6.943  0.0523 -0.0134 -0.3158
 1084loPI   C3B17343   6.341   1.789   7.366  0.2578 -0.3224  0.2670
 1084loPI   C4B17344   6.398   1.722   7.793  0.2394  0.0629 -0.2487
 1085loPI    C117345  12.843   0.778   5.304  0.3849  0.2891  0.1622
 1085loPI    C217346  12.902   1.105   5.082  0.3457  0.1212 -0.1005
 1085loPI    C317347  13.062   0.756   4.970 -0.0332 -0.0580 -0.1009
 1085loPI   PO417348  12.867   0.838   5.519  0.0568 -0.2027 -0.3512
 1085loPI   GL117349  13.186   0.893   5.919 -0.0302  0.0601  0.4177
 1085loPI   GL217350  13.109   0.576   5.880 -0.0951 -0.0452  0.1796
 1085loPI   C1A17351  13.159   0.919   6.310 -0.0735  0.0187  0.1432
 1085loPI   C2A17352  13.139   0.951   6.724 -0.1280  0.1691 -0.0194
 1085loPI   C3A17353  13.159   0.986   7.093  0.0760  0.0478 -0.2553
 1085loPI   C4A17354  13.215   0.970   7.490  0.0442  0.1263  0.4390
 1085loPI   C5A17355  13.037   0.814   7.828  0.1884 -0.1278 -0.4843
 1085loPI   C6A17356  13.044   0.553   8.138 -0.1447 -0.5384 -0.2384
 1085loPI   C1B17357  13.316   0.371   6.232  0.0707 -0.0562 -0.0147
 1085loPI   C2B17358  13.245   0.396   6.676  0.0275  0.1917  0.0597
 1085loPI   C3B17359  13.197   0.559   7.090 -0.1019  0.2293 -0.1505
 1085loPI   C4B17360  13.237   0.428   7.518 -0.0024 -0.2649  0.0894
 1086loPI    C117361   5.490   7.027   5.764 -0.0058  0.3546  0.0755
 1086loPI    C217362   5.858   6.870   5.782 -0.1810 -0.0820 -0.0267
 1086loPI    C317363   5.730   7.042   5.444 -0.1249 -0.0678 -0.0408
 1086loPI   PO417364   5.476   7.101   6.012  0.1662 -0.0719  0.2807
 1086loPI   GL117365   5.666   6.999   6.270  0.1568 -0.1317 -0.0250
 1086loPI   GL217366   5.980   6.859   6.331 -0.0173 -0.1689  0.2333
 1086loPI   C1A17367   5.515   7.016   6.700  0.2248  0.2349  0.0602
 1086loPI   C2A17368   5.615   6.956   7.115 -0.0147  0.3535  0.1903
 1086loPI   C3A17369   5.553   6.833   7.508 -0.1238  0.0291  0.4204
 1086loPI   C4A17370   5.608   6.736   7.973 -0.0324 -0.0920  0.0185
 1086loPI   C5A17371   5.830   6.929   8.229  0.0799  0.0899 -0.3615
 1086loPI   C6A17372   6.240   6.815   8.440 -0.0166  0.0131 -0.1254
 1086loPI   C1B17373   6.045   6.800   6.777  0.1073 -0.1300  0.0616
 1086loPI   C2B17374   6.021   6.695   7.214  0.0357 -0.1508  0.1456
 1086loPI   C3B17375   5.996   6.696   7.644 -0.1118  0.0923 -0.3910
 1086loPI   C4B17376   6.142   6.546   8.037  0.0706 -0.1387 -0.1775
 1087loPI    C117377   5.315   7.831   5.479 -0.1063 -0.0299  0.1180
 1087loPI    C217378   5.344   8.172   5.273 -0.0304 -0.0628  0.0739
 1087loPI    C317379   5.134   7.866   5.124  0.1754 -0.1501 -0.0401
 1087loPI   PO417380   5.284   7.892   5.749  0.0866 -0.0622 -0.0907
 1087loPI   GL117381   5.423   7.677   6.157  0.0628 -0.2679  0.1299
 1087loPI   GL217382   5.171   7.917   6.259 -0.0412 -0.2279 -0.2535
 1087loPI   C1A17383   5.541   7.493   6.537  0.3642  0.0290 -0.1261
 1087loPI   C2A17384   5.485   7.433   6.897 -0.0653 -0.2864  0.1866
 1087loPI   C3A17385   5.535   7.441   7.345  0.1123 -0.0358  0.3904
 1087loPI   C4A17386   5.385   7.421   7.756 -0.0404  0.0995 -0.0305
 1087loPI   C5A17387   5.430   7.214   8.185 -0.0805 -0.4864  0.2928
 1087loPI   C6A17388   5.535   7.345   8.530  0.1046  0.1473 -0.2992
 1087loPI   C1B17389   5.138   7.730   6.730  0.2393 -0.1761  0.2253
 1087loPI   C2B17390   5.126   7.647   7.122 -0.1906 -0.0864 -0.2376
 1087loPI   C3B17391   4.960   7.597   7.509  0.0185  0.2504  0.0020
 1087loPI   C4B17392   4.944   7.561   7.995 -0.1415 -0.1215  0.0615
 1088loPI    C117393  11.509   0.562   5.644 -0.0129  0.0123  0.2215
 1088loPI    C217394  11.791   0.662   5.379  0.0497 -0.2325  0.1925
 1088loPI    C317395  11.436   0.846   5.372  0.0858 -0.1670  0.0041
 1088loPI   PO417396  11.707   0.567   5.886 -0.1559  0.0981 -0.0218
 1088loPI   GL117397  11.846   0.746   6.172  0.1206  0.2875 -0.3801
 1088loPI   GL217398  11.667   1.001   6.323 -0.2974 -0.0237 -0.1852
 1088loPI   C1A17399  11.894   0.474   6.501  0.0963  0.0892 -0.0431
 1088loPI   C2A17400  11.896   0.577   6.940  0.1194  0.2797 -0.3391
 1088loPI   C3A17401  11.885   0.619   7.303 -0.3388 -0.1526  0.5199
 1088loPI   C4A17402  11.930   0.688   7.753  0.2968 -0.0330  0.3124
 1088loPI   C5A17403  12.192   0.613   7.984  0.1653  0.0600  0.2482
 1088loPI   C6A17404  12.631   0.493   7.810  0.0341  0.1380 -0.2310
 1088loPI   C1B17405  11.792   1.075   6.665  0.0661  0.1614 -0.1994
 1088loPI   C2B17406  11.767   1.110   7.076  0.0014 -0.0466  0.0647
 1088loPI   C3B17407  11.873   1.139   7.583  0.0737 -0.1015 -0.2506
 1088loPI   C4B17408  11.949   1.104   7.976 -0.1572  0.2726 -0.1276
 1089loPI    C117409   1.445   8.634   5.746  0.0139  0.0381 -0.1212
 1089loPI    C217410   1.132   8.741   5.521  0.0455 -0.2084 -0.2868
 1089loPI    C317411   1.270   8.366   5.506  0.1012 -0.2061  0.0830
 1089loPI   PO417412   1.423   8.670   6.000  0.0551  0.1888  0.1303
 1089loPI   GL117413   1.321   8.528   6.354 -0.1015  0.2489 -0.0798
 1089loPI   GL217414   0.946   8.549   6.414 -0.0248 -0.1735 -0.2133
 1089loPI   C1A17415   1.355   8.326   6.805 -0.0115 -0.2014  0.2444
 1089loPI   C2A17416   1.295   8.264   7.228  0.2370  0.0550 -0.2364
 1089loPI   C3A17417   1.292   8.303   7.645  0.1404  0.2350 -0.0012
 1089loPI   C4A17418   1.195   8.251   7.998 -0.0600 -0.1118  0.2822
 1089loPI   C5A17419   0.890   8.190   8.413 -0.0706  0.1889 -0.0528
 1089loPI   C6A17420   0.664   8.532   8.550  0.0351 -0.1302  0.2837
 1089loPI   C1B17421   0.835   8.578   6.834  0.0266  0.0937 -0.2509
 1089loPI   C2B17422   0.859   8.486   7.272  0.1672 -0.0411 -0.3479
 1089loPI   C3B17423   0.778   8.421   7.645  0.0991 -0.1275 -0.1160
 1089loPI   C4B17424   0.767   8.570   8.038  0.0044  0.3000 -0.0473
 1090loPI    C117425  18.008  16.820   5.388 -0.0468 -0.0786  0.0126
 1090loPI    C217426  17.877  17.097   5.131  0.1179  0.0345  0.0491
 1090loPI    C317427  17.749  16.719   5.100 -0.0147  0.0886 -0.0758
 1090loPI   PO417428  18.049  16.876   5.584 -0.1982 -0.0489 -0.1812
 1090loPI   GL117429  17.896  16.881   5.956 -0.0709 -0.0925  0.0732
 1090loPI   GL217430  17.473  16.841   5.961 -0.1167  0.0209 -0.4186
 1090loPI   C1A17431  17.884  16.981   6.380  0.0219  0.1713  0.0598
 1090loPI   C2A17432  17.926  17.077   6.903 -0.1347 -0.1036  0.4567
 1090loPI   C3A17433  17.901  17.053   7.335 -0.1219 -0.2127  0.3887
 1090loPI   C4A17434  17.856  17.183   7.766 -0.1125 -0.1063 -0.0710
 1090loPI   C5A17435  17.748  16.919   8.103  0.0040 -0.1192 -0.0840
 1090loPI   C6A17436  17.763  16.566   8.318 -0.4123 -0.2902  0.0476
 1090loPI   C1B17437  17.455  16.742   6.395  0.0981  0.3306 -0.2040
 1090loPI   C2B17438  17.540  16.704   6.776 -0.0248 -0.3164 -0.3277
 1090loPI   C3B17439  17.565  16.718   7.186  0.2868 -0.0194  0.1479
 1090loPI   C4B17440  17.539  16.806   7.625  0.2164 -0.0984  0.0320
 1091loPI    C117441  12.843  12.364   5.168 -0.0031 -0.1619  0.3207
 1091loPI    C217442  12.447  12.316   5.146 -0.0514  0.2968  0.0408
 1091loPI    C317443  12.666  12.327   4.811  0.1921  0.1194  0.1906
 1091loPI   PO417444  12.776  12.311   5.471 -0.4054 -0.2852 -0.0328
 1091loPI   GL117445  12.805  12.013   5.853 -0.2309  0.2833  0.0751
 1091loPI   GL217446  12.847  11.788   6.095  0.3388 -0.0867 -0.1969
 1091loPI   C1A17447  12.805  12.288   6.291  0.0849 -0.2306  0.0926
 1091loPI   C2A17448  12.730  12.312   6.752 -0.0248 -0.0846  0.2794
 1091loPI   C3A17449  12.689  12.425   7.187 -0.0280  0.1199 -0.1602
 1091loPI   C4A17450  12.727  12.328   7.683  0.0890 -0.1668 -0.0765
 1091loPI   C5A17451  12.707  12.545   8.011  0.2956  0.0569 -0.3278
 1091loPI   C6A17452  12.904  12.887   8.137  0.0443 -0.0932 -0.0080
 1091loPI   C1B17453  12.846  11.804   6.575 -0.1990  0.4464  0.1403
 1091loPI   C2B17454  12.873  11.739   6.999  0.0613 -0.2484 -0.0840
 1091loPI   C3B17455  12.834  11.926   7.393 -0.0505 -0.1601  0.1496
 1091loPI   C4B17456  12.870  11.882   7.925 -0.1220  0.0128  0.1157
 1092loPI    C117457   8.097   3.840   5.323 -0.1637  0.1507 -0.1225
 1092loPI    C217458   8.080   3.522   5.081 -0.1574  0.0880 -0.0409
 1092loPI    C317459   7.957   3.879   4.950 -0.1216  0.0614 -0.1479
 1092loPI   PO417460   8.030   3.724   5.547 -0.1315  0.1467 -0.1462
 1092loPI   GL117461   8.246   3.655   5.869 -0.3254  0.2245  0.1472
 1092loPI   GL217462   8.237   3.989   5.957  0.0908  0.2314  0.1105
 1092loPI   C1A17463   8.204   3.476   6.271  0.0938  0.0507  0.0297
 1092loPI   C2A17464   8.227   3.368   6.694 -0.0491  0.1380  0.0272
 1092loPI   C3A17465   8.346   3.463   7.153  0.1194 -0.2093  0.0828
 1092loPI   C4A17466   8.375   3.458   7.603  0.0761  0.1268  0.3131
 1092loPI   C5A17467   8.575   3.621   8.074 -0.2240 -0.0191 -0.1490
 1092loPI   C6A17468   9.015   3.659   8.276  0.0637  0.1051 -0.2432
 1092loPI   C1B17469   8.162   3.951   6.420  0.3982 -0.1179  0.1208
 1092loPI   C2B17470   8.175   3.847   6.939 -0.1981 -0.3690  0.3918
 1092loPI   C3B17471   8.245   3.984   7.358 -0.0585  0.0675  0.3613
 1092loPI   C4B17472   8.337   3.956   7.784 -0.0010 -0.3484  0.1928
 1093loPI    C117473  12.502   0.393   5.288 -0.0613  0.2506 -0.0782
 1093loPI    C217474  12.430   0.220   4.935 -0.1132  0.1476 -0.0176
 1093loPI    C317475  12.127   0.361   5.155 -0.0921  0.1018  0.0411
 1093loPI   PO417476  12.608   0.219   5.411 -0.0494  0.0202  0.0700
 1093loPI   GL117477  12.751   0.097   5.812 -0.1007 -0.0124  0.0898
 1093loPI   GL217478  12.465   0.054   5.870 -0.1276 -0.1459  0.0425
 1093loPI   C1A17479  12.873   0.063   6.257  0.2883 -0.1771 -0.1000
 1093loPI   C2A17480  12.813   0.102   6.669  0.5816 -0.0188  0.1887
 1093loPI   C3A17481  12.821   0.188   7.057 -0.0171  0.2020  0.2421
 1093loPI   C4A17482  12.812   0.198   7.388  0.0951 -0.0129 -0.2555
 1093loPI   C5A17483  12.975   0.113   7.809  0.0334 -0.3009 -0.3736
 1093loPI   C6A17484  13.263  -0.185   7.999 -0.2344  0.0660  0.0818
 1093loPI   C1B17485  12.415   0.216   6.312 -0.2965 -0.0847  0.0108
 1093loPI   C2B17486  12.320   0.292   6.753  0.2167  0.4004 -0.2230
 1093loPI   C3B17487  12.349   0.353   7.138  0.1685 -0.0245 -0.1512
 1093loPI   C4B17488  12.321   0.474   7.439 -0.0679 -0.2347  0.1505
 1094loPI    C117489   1.707  10.002   5.574  0.2890 -0.0261  0.1557
 1094loPI    C217490   1.753  10.326   5.345 -0.0571 -0.1361 -0.0770
 1094loPI    C317491   1.917   9.978   5.235  0.2295 -0.0676  0.1217
 1094loPI   PO417492   1.439   9.982   5.713 -0.0544 -0.0953  0.2386
 1094loPI   GL117493   1.131  10.110   6.039  0.0301 -0.6191 -0.1019
 1094loPI   GL217494   1.306  10.189   6.213  0.2409  0.2378  0.0743
 1094loPI   C1A17495   1.029   9.863   6.439 -0.0160 -0.0606 -0.0121
 1094loPI   C2A17496   1.015   9.910   6.831  0.3472  0.1139  0.1509
 1094loPI   C3A17497   1.093   9.973   7.289  0.0177  0.1173  0.1669
 1094loPI   C4A17498   1.103   9.716   7.617  0.1352 -0.2106 -0.1890
 1094loPI   C5A17499   1.011   9.749   8.049 -0.0640 -0.0155 -0.2670
 1094loPI   C6A17500   1.327   9.647   8.357  0.1047 -0.0933  0.0014
 1094loPI   C1B17501   1.028  10.331   6.558 -0.0743 -0.0991 -0.1575
 1094loPI   C2B17502   0.902  10.316   6.992 -0.3937  0.0372 -0.2155
 1094loPI   C3B17503   0.908  10.409   7.407  0.0364  0.0650  0.0120
 1094loPI   C4B17504   1.131  10.198   7.822 -0.0341  0.1750  0.2103
 1095loPI    C117505  10.500  13.945   5.451  0.0823  0.1489  0.1463
 1095loPI    C217506  10.209  14.193   5.334 -0.0247 -0.0224  0.0451
 1095loPI    C317507  10.314  13.884   5.102  0.3645  0.1433 -0.0069
 1095loPI   PO417508  10.586  13.981   5.583 -0.1764 -0.2544  0.0339
 1095loPI   GL117509  10.681  13.989   6.033 -0.0524 -0.3514  0.3805
 1095loPI   GL217510  11.076  13.951   5.992 -0.2252 -0.1094 -0.1896
 1095loPI   C1A17511  10.590  14.108   6.462  0.1461 -0.0794  0.0699
 1095loPI   C2A17512  10.603  14.171   6.840  0.0252  0.1566  0.0414
 1095loPI   C3A17513  10.664  14.071   7.249 -0.0554 -0.2418  0.1885
 1095loPI   C4A17514  10.545  14.134   7.628 -0.2099 -0.1342 -0.2041
 1095loPI   C5A17515  10.650  14.083   8.100 -0.2741 -0.2223 -0.2010
 1095loPI   C6A17516  11.009  13.864   8.191 -0.1621 -0.1778  0.0302
 1095loPI   C1B17517  11.059  13.946   6.399 -0.0367  0.2329  0.0245
 1095loPI   C2B17518  11.097  14.051   6.787 -0.0768  0.2509 -0.1869
 1095loPI   C3B17519  11.135  13.933   7.251 -0.0495  0.0173 -0.3162
 1095loPI   C4B17520  10.975  14.017   7.711 -0.1491  0.2890  0.0178
 1096loPI    C117521   6.111  10.515   5.597  0.1149 -0.1980 -0.1373
 1096loPI    C217522   6.264  10.797   5.359 -0.3046 -0.0289 -0.2151
 1096loPI    C317523   6.132  10.454   5.203  0.1279 -0.2404 -0.1300
 1096loPI   PO417524   6.227  10.520   5.795  0.0193  0.1341  0.1611
 1096loPI   GL117525   6.119  10.566   6.253  0.0409  0.1980  0.3327
 1096loPI   GL217526   5.851  10.685   6.116  0.1446  0.1608 -0.1634
 1096loPI   C1A17527   6.193  10.617   6.704 -0.3219 -0.0857  0.2405
 1096loPI   C2A17528   6.178  10.627   7.111 -0.2839  0.1444 -0.1473
 1096loPI   C3A17529   6.164  10.576   7.546 -0.2785 -0.0736 -0.0568
 1096loPI   C4A17530   6.075  10.700   7.944  0.0635  0.0643 -0.1015
 1096loPI   C5A17531   5.999  10.884   8.284 -0.3348  0.0549 -0.2186
 1096loPI   C6A17532   5.995  10.737   8.745 -0.3379 -0.1838  0.1813
 1096loPI   C1B17533   5.712  10.745   6.550  0.1104 -0.0151  0.0228
 1096loPI   C2B17534   5.736  10.734   6.983  0.2672 -0.3081 -0.0082
 1096loPI   C3B17535   5.744  10.788   7.426 -0.1097  0.2603 -0.3528
 1096loPI   C4B17536   5.630  10.951   7.825 -0.1643  0.1275 -0.1747
 1097loPI    C117537   1.051  17.911   5.290 -0.0960 -0.0184  0.1274
 1097loPI    C217538   1.341  17.644   5.223  0.0876  0.1862  0.0944
 1097loPI    C317539   1.099  17.757   4.925 -0.1025 -0.0698  0.1482
 1097loPI   PO417540   1.038  17.901   5.543 -0.2919 -0.1332  0.4425
 1097loPI   GL117541   1.143  18.064   5.977 -0.2749  0.2882 -0.1052
 1097loPI   GL217542   1.535  17.980   6.157  0.0563 -0.0023 -0.3340
 1097loPI   C1A17543   1.063  18.069   6.427  0.1518 -0.0185 -0.0685
 1097loPI   C2A17544   1.053  18.083   6.884  0.1581  0.0153  0.1619
 1097loPI   C3A17545   1.190  18.061   7.247 -0.1299  0.0955  0.2687
 1097loPI   C4A17546   1.095  17.947   7.574  0.2240 -0.2707 -0.1070
 1097loPI   C5A17547   1.118  18.048   8.012  0.0691  0.2097 -0.1051
 1097loPI   C6A17548   1.427  18.272   8.252  0.1848 -0.1682  0.0396
 1097loPI   C1B17549   1.521  17.965   6.619 -0.3003 -0.2194 -0.0456
 1097loPI   C2B17550   1.623  17.876   6.993 -0.0963 -0.1522  0.5871
 1097loPI   C3B17551   1.583  17.810   7.464 -0.1496 -0.4094 -0.2062
 1097loPI   C4B17552   1.605  17.819   7.867  0.0019  0.0817  0.1477
 1098loPI    C117553   6.711  10.827   5.572  0.0028 -0.0161 -0.1003
 1098loPI    C217554   6.645  11.221   5.585 -0.0090 -0.0247  0.1880
 1098loPI    C317555   6.718  11.041   5.235  0.1113  0.2509  0.0683
 1098loPI   PO417556   6.782  10.877   5.917 -0.1309  0.4286 -0.0424
 1098loPI   GL117557   6.589  10.890   6.300  0.1477 -0.0854  0.0022
 1098loPI   GL217558   6.877  11.028   6.396  0.0545  0.2053 -0.3473
 1098loPI   C1A17559   6.662  10.928   6.789 -0.1188  0.0342 -0.0413
 1098loPI   C2A17560   6.576  10.913   7.242  0.1311 -0.1880 -0.1362
 1098loPI   C3A17561   6.487  10.908   7.598 -0.0238 -0.1009 -0.1306
 1098loPI   C4A17562   6.617  10.793   7.881  0.2956  0.2562  0.3123
 1098loPI   C5A17563   6.863  10.411   8.245 -0.0033  0.1402 -0.1006
 1098loPI   C6A17564   7.058  10.526   8.592 -0.2789  0.3609 -0.4965
 1098loPI   C1B17565   7.085  11.185   6.623  0.3202 -0.1528 -0.3473
 1098loPI   C2B17566   7.056  11.163   7.110  0.0423  0.0185  0.1411
 1098loPI   C3B17567   7.131  11.095   7.475  0.1213  0.0303 -0.1197
 1098loPI   C4B17568   7.159  11.055   7.882 -0.0452 -0.2572 -0.1271
 1099loPI    C117569   6.749  15.791   5.279 -0.0020  0.0218  0.0265
 1099loPI    C217570   6.906  16.102   5.081  0.0609  0.0332  0.0936
 1099loPI    C317571   6.537  15.973   4.993  0.0933  0.0298 -0.0396
 1099loPI   PO417572   6.776  15.794   5.532 -0.1221  0.1241 -0.0585
 1099loPI   GL117573   6.846  15.896   5.931 -0.1803 -0.1263  0.0375
 1099loPI   GL217574   6.648  15.995   6.088  0.0999  0.0979  0.1380
 1099loPI   C1A17575   7.095  15.921   6.261  0.0413 -0.1095  0.1571
 1099loPI   C2A17576   7.269  16.011   6.718  0.0443  0.3531  0.1117
 1099loPI   C3A17577   7.246  16.103   7.108  0.1812  0.1995  0.2955
 1099loPI   C4A17578   7.235  16.012   7.508  0.3147 -0.0744  0.3016
 1099loPI   C5A17579   7.213  15.912   7.955 -0.0134 -0.0416  0.0981
 1099loPI   C6A17580   7.357  15.649   8.240 -0.0595 -0.1200 -0.0803
 1099loPI   C1B17581   6.641  16.163   6.437  0.1408 -0.0176  0.2161
 1099loPI   C2B17582   6.759  16.098   6.892  0.2362  0.0534 -0.3893
 1099loPI   C3B17583   6.749  16.241   7.347  0.0860 -0.2658 -0.0322
 1099loPI   C4B17584   6.825  16.199   7.807 -0.0099  0.1607  0.1896
 1100loPI    C117585   5.123   8.979   5.811 -0.1536 -0.0876 -0.0782
 1100loPI    C217586   4.885   9.184   5.563 -0.1194 -0.0800 -0.1048
 1100loPI    C317587   5.243   9.057   5.437 -0.1432 -0.1620 -0.0904
 1100loPI   PO417588   5.050   9.014   6.103  0.1630 -0.2823 -0.3444
 1100loPI   GL117589   4.779   8.709   6.353  0.0633 -0.0569 -0.1187
 1100loPI   GL217590   4.502   8.803   6.319 -0.1725  0.1943 -0.3257
 1100loPI   C1A17591   4.916   8.760   6.767  0.1056 -0.0429  0.0848
 1100loPI   C2A17592   4.879   8.685   7.179 -0.2190 -0.0728  0.0446
 1100loPI   C3A17593   4.771   8.710   7.606  0.1221 -0.3117 -0.2130
 1100loPI   C4A17594   4.469   8.840   7.966  0.0491  0.1589 -0.1049
 1100loPI   C5A17595   4.308   8.796   8.423 -0.1632 -0.0854  0.1206
 1100loPI   C6A17596   4.102   8.603   8.690  0.2270 -0.0029 -0.1255
 1100loPI   C1B17597   4.406   8.831   6.843 -0.0476 -0.1315 -0.0158
 1100loPI   C2B17598   4.375   8.794   7.352 -0.0773 -0.0605 -0.3842
 1100loPI   C3B17599   4.284   9.201   7.656 -0.1110 -0.0076 -0.0341
 1100loPI   C4B17600   4.296   9.544   7.754 -0.1142 -0.0283 -0.1461
 1101loPI    C117601  11.640  15.970   5.003 -0.1981 -0.1539 -0.0061
 1101loPI    C217602  11.462  15.912   4.650 -0.0438  0.0765 -0.1243
 1101loPI    C317603  11.792  16.136   4.673 -0.0355  0.0388  0.1627
 1101loPI   PO417604  11.659  15.660   5.113 -0.4202  0.2773  0.0642
 1101loPI   GL117605  11.754  15.564   5.493 -0.3118 -0.1061  0.0801
 1101loPI   GL217606  11.714  15.307   5.657  0.4056  0.3107 -0.0505
 1101loPI   C1A17607  11.758  15.703   5.997  0.1935  0.2518 -0.2573
 1101loPI   C2A17608  11.841  15.570   6.378 -0.2440 -0.1408  0.1379
 1101loPI   C3A17609  11.775  15.622   6.861 -0.1418 -0.1841  0.2134
 1101loPI   C4A17610  11.780  15.508   7.316 -0.0773 -0.0991  0.2439
 1101loPI   C5A17611  11.714  15.566   7.738  0.0419  0.2523  0.0065
 1101loPI   C6A17612  11.821  15.829   8.047  0.1355  0.2913 -0.1778
 1101loPI   C1B17613  11.879  15.183   6.076  0.2060  0.0796  0.1449
 1101loPI   C2B17614  11.835  15.191   6.672  0.1055  0.1978 -0.3728
 1101loPI   C3B17615  11.865  15.038   7.120 -0.3068 -0.2788  0.1193
 1101loPI   C4B17616  11.879  15.051   7.591  0.1342 -0.1971 -0.1282
 1102loPI    C117617   8.535   4.757   5.278 -0.1127 -0.1135 -0.2209
 1102loPI    C217618   8.482   5.005   4.969  0.1601  0.1065 -0.0960
 1102loPI    C317619   8.540   4.615   4.904 -0.1318  0.0938 -0.3014
 1102loPI   PO417620   8.309   4.744   5.423 -0.1474 -0.1030  0.1126
 1102loPI   GL117621   8.309   4.861   5.776  0.1598  0.0975 -0.1218
 1102loPI   GL217622   8.546   5.074   5.912 -0.0681  0.1555  0.0254
 1102loPI   C1A17623   8.077   4.934   6.148 -0.1846 -0.3571 -0.3525
 1102loPI   C2A17624   8.031   4.981   6.635  0.1275 -0.0855 -0.1220
 1102loPI   C3A17625   8.101   4.907   7.025  0.1268  0.3449  0.0981
 1102loPI   C4A17626   8.043   4.992   7.354  0.0598 -0.2519 -0.0334
 1102loPI   C5A17627   8.126   5.049   7.765  0.1783  0.0233 -0.0111
 1102loPI   C6A17628   8.006   4.987   8.269 -0.1107  0.1482 -0.1862
 1102loPI   C1B17629   8.468   5.164   6.324 -0.0834 -0.2340  0.1965
 1102loPI   C2B17630   8.434   5.275   6.684 -0.1968 -0.1551  0.2791
 1102loPI   C3B17631   8.449   5.268   7.097  0.0799 -0.1321 -0.2230
 1102loPI   C4B17632   8.472   5.376   7.529  0.2946  0.3176  0.2785
 1103loPI    C117633  12.547  16.496   5.324 -0.2550 -0.2880  0.0432
 1103loPI    C217634  12.433  16.112   5.330  0.0320 -0.3783 -0.0931
 1103loPI    C317635  12.543  16.283   4.986 -0.0576 -0.1829 -0.0265
 1103loPI   PO417636  12.443  16.595   5.559 -0.1788 -0.0466 -0.0498
 1103loPI   GL117637  12.598  16.417   5.895 -0.0028 -0.0050 -0.1407
 1103loPI   GL217638  12.615  16.778   5.988  0.2673  0.0541 -0.2391
 1103loPI   C1A17639  12.594  16.277   6.286  0.3506 -0.2498 -0.0330
 1103loPI   C2A17640  12.567  16.269   6.715 -0.2171  0.0938  0.1581
 1103loPI   C3A17641  12.611  16.270   7.199 -0.2472  0.0860 -0.2791
 1103loPI   C4A17642  12.591  16.327   7.672 -0.1359  0.0691  0.0062
 1103loPI   C5A17643  12.757  16.232   8.063  0.0990  0.1050  0.2487
 1103loPI   C6A17644  13.218  16.082   8.275  0.0482 -0.0399 -0.0677
 1103loPI   C1B17645  12.511  16.737   6.402  0.1785 -0.0191 -0.3045
 1103loPI   C2B17646  12.550  16.825   6.879 -0.1607  0.0887  0.1211
 1103loPI   C3B17647  12.537  16.779   7.330 -0.0418 -0.0223 -0.1400
 1103loPI   C4B17648  12.589  16.851   7.757 -0.0552 -0.1944 -0.0267
 1104loPI    C117649   3.631  14.843   5.948 -0.0962 -0.0262 -0.0038
 1104loPI    C217650   3.678  14.475   6.097 -0.1893 -0.0217  0.0370
 1104loPI    C317651   3.757  14.546   5.711  0.0670 -0.0302  0.0864
 1104loPI   PO417652   3.455  14.934   6.021  0.2593  0.0793  0.1270
 1104loPI   GL117653   3.392  14.935   6.404 -0.2530 -0.0894 -0.1560
 1104loPI   GL217654   3.087  14.814   6.490 -0.2304 -0.5410 -0.4469
 1104loPI   C1A17655   3.534  15.200   6.667 -0.0907  0.0846 -0.0875
 1104loPI   C2A17656   3.690  15.479   6.966 -0.0798 -0.0979  0.0549
 1104loPI   C3A17657   3.721  15.525   7.474 -0.1976 -0.2799  0.0640
 1104loPI   C4A17658   3.783  15.589   7.874 -0.1822 -0.1315  0.0362
 1104loPI   C5A17659   3.852  15.769   8.250 -0.2067  0.0029 -0.0195
 1104loPI   C6A17660   4.151  16.100   8.078 -0.0389  0.0227 -0.1968
 1104loPI   C1B17661   3.248  14.634   6.934 -0.4706  0.0240 -0.1340
 1104loPI   C2B17662   3.629  14.394   7.072 -0.0108 -0.0061  0.1968
 1104loPI   C3B17663   3.897  14.346   7.398  0.1321 -0.0054  0.0612
 1104loPI   C4B17664   4.013  14.249   7.854  0.1849  0.1553 -0.0528
 1105loPI    C117665   2.430  16.632   5.135  0.1943  0.2886  0.2634
 1105loPI    C217666   2.756  16.419   5.043 -0.0049  0.1071 -0.0426
 1105loPI    C317667   2.756  16.816   4.993  0.0869  0.0784 -0.2804
 1105loPI   PO417668   2.346  16.573   5.352 -0.2010  0.0435 -0.1231
 1105loPI   GL117669   2.557  16.569   5.822 -0.4630  0.1127  0.0304
 1105loPI   GL217670   2.436  16.437   6.080 -0.1594  0.1286 -0.0288
 1105loPI   C1A17671   2.673  16.856   6.219 -0.1192  0.1070 -0.3517
 1105loPI   C2A17672   2.558  17.025   6.638 -0.0846 -0.2524  0.1359
 1105loPI   C3A17673   2.697  16.964   7.041  0.2820  0.1060  0.2109
 1105loPI   C4A17674   2.581  16.934   7.416  0.1844  0.3753  0.3048
 1105loPI   C5A17675   2.643  16.961   7.835  0.0097 -0.0383 -0.0902
 1105loPI   C6A17676   2.917  17.031   8.131 -0.2132  0.0542  0.3421
 1105loPI   C1B17677   2.610  16.515   6.612 -0.0446  0.2210  0.0260
 1105loPI   C2B17678   2.537  16.521   7.076 -0.1000  0.0008  0.3333
 1105loPI   C3B17679   2.660  16.434   7.430  0.0327 -0.0139 -0.2059
 1105loPI   C4B17680   2.674  16.420   7.870  0.1827 -0.1801  0.2013
 1106loPI    C117681  13.861   8.451   5.355  0.1113 -0.0717 -0.0763
 1106loPI    C217682  14.181   8.277   5.190  0.0680 -0.1095 -0.1209
 1106loPI    C317683  14.045   8.624   5.044 -0.0044 -0.1718 -0.2017
 1106loPI   PO417684  13.987   8.441   5.627 -0.0111  0.1348  0.3052
 1106loPI   GL117685  14.032   8.298   6.044  0.0760  0.0144  0.2692
 1106loPI   GL217686  13.758   8.451   6.062 -0.0363 -0.0978  0.0630
 1106loPI   C1A17687  14.177   8.194   6.388 -0.0771  0.0156  0.1693
 1106loPI   C2A17688  14.350   8.251   6.835  0.1490  0.2968 -0.2461
 1106loPI   C3A17689  14.249   8.391   7.166 -0.4574  0.0367  0.1464
 1106loPI   C4A17690  14.227   8.358   7.533  0.0712  0.0253  0.0347
 1106loPI   C5A17691  14.284   8.369   7.952  0.0043  0.4565 -0.0101
 1106loPI   C6A17692  14.128   8.490   8.345  0.1592 -0.0441  0.2701
 1106loPI   C1B17693  13.777   8.426   6.520 -0.0560  0.1020 -0.1106
 1106loPI   C2B17694  13.800   8.523   6.919 -0.0110  0.0174  0.1881
 1106loPI   C3B17695  13.758   8.571   7.305  0.2731 -0.0461 -0.0914
 1106loPI   C4B17696  13.788   8.541   7.793  0.0540 -0.2012 -0.0792
 1107loPI    C117697   8.979   9.215   5.420  0.0685 -0.1620 -0.1497
 1107loPI    C217698   8.769   9.277   5.085 -0.1719  0.0575  0.0377
 1107loPI    C317699   9.130   9.444   5.128 -0.1334  0.0160 -0.1166
 1107loPI   PO417700   8.803   9.270   5.609  0.1223  0.0619  0.0419
 1107loPI   GL117701   8.692   9.302   6.070  0.0296 -0.0409  0.0397
 1107loPI   GL217702   8.403   9.195   6.287 -0.2304  0.0893  0.2983
 1107loPI   C1A17703   8.653   9.519   6.555 -0.5448 -0.1075  0.1038
 1107loPI   C2A17704   8.709   9.612   6.945 -0.1089 -0.1245  0.0316
 1107loPI   C3A17705   8.724   9.748   7.354  0.2959  0.1065  0.0584
 1107loPI   C4A17706   8.647   9.696   7.810 -0.1843 -0.0624 -0.0921
 1107loPI   C5A17707   8.665   9.941   8.165 -0.4337 -0.1147 -0.1218
 1107loPI   C6A17708   8.583  10.321   8.240  0.1601 -0.2643 -0.1267
 1107loPI   C1B17709   8.344   9.271   6.780  0.1660  0.2292  0.1138
 1107loPI   C2B17710   8.312   9.306   7.197  0.1805  0.0014  0.1549
 1107loPI   C3B17711   8.134   9.324   7.610 -0.1855  0.3451 -0.1747
 1107loPI   C4B17712   8.355   9.324   7.939 -0.1783 -0.0057  0.1340
 1108loPI    C117713  14.944   8.915   5.147  0.0183  0.0650 -0.0515
 1108loPI    C217714  15.005   9.171   4.846 -0.1025  0.0381 -0.0997
 1108loPI    C317715  14.960   8.781   4.770 -0.0557  0.0208 -0.0392
 1108loPI   PO417716  14.806   9.056   5.361 -0.2923 -0.3122 -0.0559
 1108loPI   GL117717  14.861   9.240   5.773 -0.0434  0.1165 -0.2184
 1108loPI   GL217718  14.625   8.982   5.993 -0.0442  0.0303 -0.1253
 1108loPI   C1A17719  14.957   9.385   6.246 -0.0111 -0.0643  0.4004
 1108loPI   C2A17720  14.943   9.381   6.588 -0.2028 -0.0668  0.1687
 1108loPI   C3A17721  15.060   9.454   7.038 -0.2067 -0.3300  0.0841
 1108loPI   C4A17722  15.025   9.496   7.467 -0.1977 -0.3422  0.1578
 1108loPI   C5A17723  15.048   9.476   7.839 -0.0899 -0.0008  0.0251
 1108loPI   C6A17724  15.118   9.442   8.298  0.0897  0.1297  0.0337
 1108loPI   C1B17725  14.620   9.019   6.468  0.1860 -0.5268 -0.4341
 1108loPI   C2B17726  14.625   9.126   6.900 -0.2554  0.2235 -0.0939
 1108loPI   C3B17727  14.649   9.128   7.243  0.1806  0.2691  0.1505
 1108loPI   C4B17728  14.610   9.255   7.635 -0.1700  0.1128  0.0874
 1109loPI    C117729   5.323  16.321   5.277 -0.1120 -0.0764  0.0055
 1109loPI    C217730   5.640  16.243   5.046  0.0075  0.0919  0.1105
 1109loPI    C317731   5.271  16.200   4.899  0.0809  0.0769 -0.0722
 1109loPI   PO417732   5.331  16.156   5.533  0.0466 -0.0933  0.4041
 1109loPI   GL117733   5.135  16.143   5.914  0.1105 -0.0249 -0.2935
 1109loPI   GL217734   5.546  16.015   5.971  0.1342  0.1220  0.2596
 1109loPI   C1A17735   5.253  16.181   6.388 -0.1821  0.0989  0.4811
 1109loPI   C2A17736   5.290  16.348   6.792 -0.1758  0.2929 -0.1703
 1109loPI   C3A17737   5.460  16.255   7.231 -0.1312 -0.0853 -0.0839
 1109loPI   C4A17738   5.471  16.266   7.678  0.0271 -0.1129  0.2290
 1109loPI   C5A17739   5.476  16.362   8.055 -0.0629 -0.3007  0.2376
 1109loPI   C6A17740   5.180  16.358   8.395  0.2030  0.0232  0.0747
 1109loPI   C1B17741   5.804  16.102   6.322 -0.1145 -0.0007  0.1025
 1109loPI   C2B17742   5.826  16.013   6.736  0.1982 -0.3275 -0.1024
 1109loPI   C3B17743   5.923  15.967   7.078 -0.0127 -0.0111  0.4616
 1109loPI   C4B17744   5.931  16.041   7.504  0.3400  0.0826 -0.2265
 1110loPI    C117745   3.428  15.171   5.568 -0.0832 -0.2710  0.0877
 1110loPI    C217746   3.773  14.976   5.513 -0.0152 -0.1677  0.1444
 1110loPI    C317747   3.491  14.969   5.229  0.1324 -0.0500 -0.0073
 1110loPI   PO417748   3.364  15.343   5.711  0.1378  0.3209  0.0364
 1110loPI   GL117749   3.044  15.499   6.050 -0.2269 -0.0100  0.0302
 1110loPI   GL217750   3.432  15.453   6.163 -0.0171  0.0233 -0.4026
 1110loPI   C1A17751   3.097  15.302   6.492  0.1612 -0.1114 -0.1181
 1110loPI   C2A17752   3.103  15.093   6.887 -0.0197 -0.0065 -0.1170
 1110loPI   C3A17753   3.323  15.181   7.298 -0.0595 -0.2023 -0.2340
 1110loPI   C4A17754   3.222  15.080   7.810 -0.2760 -0.0982  0.2591
 1110loPI   C5A17755   3.235  14.652   8.064  0.2563 -0.2189  0.0038
 1110loPI   C6A17756   3.376  14.284   8.001  0.2409  0.2402  0.1774
 1110loPI   C1B17757   3.825  15.614   6.470  0.1528 -0.0132  0.2371
 1110loPI   C2B17758   4.081  15.703   6.858  0.0698  0.1534 -0.1492
 1110loPI   C3B17759   4.093  15.816   7.237  0.3102 -0.0511 -0.3158
 1110loPI   C4B17760   4.040  15.893   7.610 -0.3770  0.1090 -0.2811
 1111loPI    C117761  12.993   5.619   5.348 -0.1703  0.4226  0.0779
 1111loPI    C217762  12.698   5.621   5.078 -0.0157 -0.2702 -0.1140
 1111loPI    C317763  13.079   5.621   4.957  0.0594 -0.1134  0.1174
 1111loPI   PO417764  12.774   5.650   5.570 -0.3280  0.0678  0.0927
 1111loPI   GL117765  12.535   5.712   5.810  0.0036 -0.0250  0.1359
 1111loPI   GL217766  12.282   5.607   5.952 -0.2425 -0.1085  0.2891
 1111loPI   C1A17767  12.372   6.103   6.147 -0.0320 -0.0658 -0.0678
 1111loPI   C2A17768  12.389   6.156   6.616  0.1820 -0.0575 -0.1588
 1111loPI   C3A17769  12.310   6.301   7.020 -0.1341  0.0444  0.2104
 1111loPI   C4A17770  12.385   6.352   7.350  0.0175  0.1167 -0.1471
 1111loPI   C5A17771  12.377   6.428   7.790  0.1526 -0.0003 -0.1275
 1111loPI   C6A17772  12.432   6.028   8.092  0.0896  0.2828  0.1326
 1111loPI   C1B17773  12.390   5.651   6.420 -0.0057  0.0881 -0.0838
 1111loPI   C2B17774  12.477   5.557   6.879 -0.0789 -0.2306 -0.0071
 1111loPI   C3B17775  12.496   5.761   7.313  0.0671 -0.2036  0.1560
 1111loPI   C4B17776  12.407   5.893   7.645  0.2780  0.1296  0.0899
 1112loPI    C117777   9.441   0.894   5.370 -0.0499 -0.1473 -0.0886
 1112loPI    C217778   9.789   0.926   5.176  0.0499  0.1595  0.1330
 1112loPI    C317779   9.517   1.218   5.148 -0.0629  0.0620  0.2061
 1112loPI   PO417780   9.520   0.843   5.617 -0.2624  0.0005 -0.1171
 1112loPI   GL117781   9.359   0.974   6.011  0.1514  0.0177  0.0778
 1112loPI   GL217782   9.685   1.112   6.028 -0.1979 -0.0863 -0.0824
 1112loPI   C1A17783   9.425   0.885   6.416 -0.0658 -0.0213 -0.2334
 1112loPI   C2A17784   9.619   0.972   6.788  0.1305 -0.2963 -0.2342
 1112loPI   C3A17785   9.625   1.072   7.186  0.0065  0.2750 -0.0804
 1112loPI   C4A17786   9.641   1.149   7.615 -0.0237 -0.2129  0.1534
 1112loPI   C5A17787   9.831   1.192   8.053  0.0745 -0.1225 -0.2274
 1112loPI   C6A17788  10.180   1.351   8.197 -0.2247 -0.2221  0.2611
 1112loPI   C1B17789   9.923   1.309   6.381 -0.1192  0.0241  0.0860
 1112loPI   C2B17790  10.029   1.272   6.839 -0.3846  0.0327  0.0310
 1112loPI   C3B17791  10.051   1.311   7.210  0.1080 -0.2343 -0.3199
 1112loPI   C4B17792  10.071   1.389   7.593 -0.2447 -0.1739  0.0255
 1113loPI    C117793  15.160  14.337   5.699 -0.0196 -0.0308 -0.0556
 1113loPI    C217794  15.422  14.134   5.475  0.0751  0.0300 -0.0007
 1113loPI    C317795  15.308  14.501   5.366  0.3301  0.1697  0.1913
 1113loPI   PO417796  15.246  14.386   5.914  0.0907 -0.0629  0.0786
 1113loPI   GL117797  15.319  14.347   6.280 -0.1096  0.2279 -0.0116
 1113loPI   GL217798  15.601  14.587   6.244 -0.0588 -0.0141 -0.3681
 1113loPI   C1A17799  15.208  14.174   6.649 -0.0035  0.3562 -0.0213
 1113loPI   C2A17800  15.211  14.163   7.019 -0.1104 -0.4254  0.2704
 1113loPI   C3A17801  15.184  14.299   7.406  0.0405  0.0285 -0.0213
 1113loPI   C4A17802  15.182  14.303   7.843 -0.3642 -0.0347  0.1146
 1113loPI   C5A17803  15.314  14.244   8.353 -0.1097 -0.1436 -0.3154
 1113loPI   C6A17804  15.556  14.104   8.699 -0.0176 -0.1730  0.3075
 1113loPI   C1B17805  15.584  14.578   6.691  0.0466  0.1272  0.2594
 1113loPI   C2B17806  15.616  14.619   7.188  0.1223 -0.1429 -0.2234
 1113loPI   C3B17807  15.546  14.594   7.550  0.0219  0.0269 -0.0176
 1113loPI   C4B17808  15.566  14.642   8.005  0.0174 -0.0778 -0.1221
 1114loPI    C117809  15.403  15.522   5.309 -0.0133 -0.2018  0.1267
 1114loPI    C217810  15.628  15.685   5.021  0.0437  0.0952  0.3343
 1114loPI    C317811  15.252  15.571   4.942  0.0884  0.0916  0.1214
 1114loPI   PO417812  15.402  15.720   5.520 -0.0093  0.0035  0.0203
 1114loPI   GL117813  15.523  15.553   5.918 -0.2899 -0.2035 -0.1137
 1114loPI   GL217814  15.189  15.435   5.911 -0.1516  0.0588 -0.0513
 1114loPI   C1A17815  15.445  15.627   6.343 -0.0668  0.2490  0.0801
 1114loPI   C2A17816  15.515  15.610   6.767  0.0947 -0.0811  0.0903
 1114loPI   C3A17817  15.417  15.564   7.252 -0.0383 -0.1944 -0.0838
 1114loPI   C4A17818  15.410  15.604   7.761  0.3834  0.2418 -0.1632
 1114loPI   C5A17819  15.230  15.451   8.114  0.1060 -0.1460  0.1848
 1114loPI   C6A17820  15.408  15.724   8.540  0.4330  0.0866 -0.1714
 1114loPI   C1B17821  15.060  15.298   6.382 -0.0163 -0.1032 -0.3327
 1114loPI   C2B17822  15.108  15.280   6.881 -0.0546 -0.0178 -0.0785
 1114loPI   C3B17823  15.010  15.278   7.201  0.2030  0.2318  0.2349
 1114loPI   C4B17824  14.993  15.301   7.631 -0.2657 -0.0624  0.2935
 1115loPI    C117825  12.742   6.740   5.345  0.3231  0.2923  0.2909
 1115loPI    C217826  13.111   6.888   5.380  0.4780 -0.0176  0.0217
 1115loPI    C317827  12.927   6.893   5.025  0.3152 -0.0767  0.1046
 1115loPI   PO417828  12.665   6.749   5.566 -0.0186  0.0041 -0.0001
 1115loPI   GL117829  12.935   6.703   5.867 -0.0526 -0.2623 -0.0641
 1115loPI   GL217830  12.832   6.589   6.032  0.1230  0.2198 -0.1207
 1115loPI   C1A17831  13.196   6.814   6.215  0.3255 -0.1942  0.0365
 1115loPI   C2A17832  13.202   6.718   6.653  0.1084 -0.0068 -0.0158
 1115loPI   C3A17833  13.223   6.870   7.040  0.0813 -0.2724  0.0780
 1115loPI   C4A17834  13.181   6.868   7.464  0.1115 -0.0090  0.0517
 1115loPI   C5A17835  13.309   6.929   7.975  0.1074  0.3247 -0.3094
 1115loPI   C6A17836  13.301   7.349   8.441 -0.0959  0.2978 -0.0706
 1115loPI   C1B17837  12.833   6.411   6.411  0.0680 -0.0290  0.0158
 1115loPI   C2B17838  12.762   6.480   6.814  0.0051 -0.1284 -0.2485
 1115loPI   C3B17839  12.839   6.512   7.183  0.0393  0.2574 -0.3711
 1115loPI   C4B17840  12.730   6.640   7.598 -0.1248 -0.0618  0.0615
 1116loPI    C117841  13.483   9.148   5.389  0.0314 -0.2429  0.0665
 1116loPI    C217842  13.185   9.291   5.164  0.1560 -0.0528  0.0209
 1116loPI    C317843  13.503   9.121   4.991  0.0998 -0.2064  0.0674
 1116loPI   PO417844  13.417   9.331   5.618  0.0026 -0.1864 -0.2649
 1116loPI   GL117845  13.418   9.670   5.901  0.1352  0.2456 -0.0172
 1116loPI   GL217846  13.655   9.435   6.040  0.0601 -0.1108 -0.0573
 1116loPI   C1A17847  13.238   9.644   6.287  0.0418  0.1192  0.0080
 1116loPI   C2A17848  13.079   9.792   6.597 -0.0339  0.2400  0.3776
 1116loPI   C3A17849  13.115   9.851   6.996  0.1791  0.2671  0.1431
 1116loPI   C4A17850  13.178   9.850   7.362  0.3020  0.1251 -0.5107
 1116loPI   C5A17851  13.165   9.784   7.863  0.0251 -0.0038  0.1502
 1116loPI   C6A17852  12.784   9.640   8.006 -0.1898  0.0055 -0.2511
 1116loPI   C1B17853  13.662   9.416   6.495 -0.2254  0.0478 -0.0148
 1116loPI   C2B17854  13.674   9.574   6.923  0.3010 -0.0840 -0.1224
 1116loPI   C3B17855  13.628   9.565   7.428 -0.3291  0.3163 -0.2681
 1116loPI   C4B17856  13.602   9.629   7.799 -0.1403 -0.1711  0.0398
 1117loPI    C117857   1.095  11.885   5.843 -0.1729  0.0414  0.0336
 1117loPI    C217858   0.924  11.803   5.490 -0.1099 -0.0780  0.0304
 1117loPI    C317859   1.153  12.128   5.531 -0.3427  0.0872  0.0367
 1117loPI   PO417860   0.989  11.698   6.011 -0.3457 -0.0499  0.3520
 1117loPI   GL117861   0.674  11.517   6.125  0.1435  0.1196  0.0074
 1117loPI   GL217862   0.437  11.620   6.302 -0.1079 -0.1776 -0.2362
 1117loPI   C1A17863   0.781  11.345   6.614 -0.0072  0.0922  0.1326
 1117loPI   C2A17864   0.795  11.410   7.006  0.0760  0.2878  0.1207
 1117loPI   C3A17865   0.894  11.381   7.443  0.3026 -0.1171  0.0318
 1117loPI   C4A17866   1.062  11.608   7.851 -0.0076 -0.0131  0.0247
 1117loPI   C5A17867   1.145  11.854   8.188 -0.1374 -0.0751  0.0999
 1117loPI   C6A17868   1.090  12.348   8.263 -0.1392  0.1897 -0.0810
 1117loPI   C1B17869   0.338  11.531   6.671  0.0413 -0.2968  0.2770
 1117loPI   C2B17870   0.209  11.551   7.001 -0.3653  0.1644 -0.0984
 1117loPI   C3B17871   0.379  11.605   7.429  0.2782  0.4109 -0.0022
 1117loPI   C4B17872   0.569  11.568   7.941  0.2550 -0.0359 -0.0512
 1118loPI    C117873   6.261  11.479   5.621  0.0547  0.1269 -0.0552
 1118loPI    C217874   6.008  11.634   5.352  0.0971  0.2556 -0.0215
 1118loPI    C317875   6.258  11.341   5.245  0.0568  0.2502 -0.1013
 1118loPI   PO417876   6.211  11.645   5.817 -0.1891  0.0354 -0.1555
 1118loPI   GL117877   6.189  11.580   6.201  0.1299  0.1056  0.0285
 1118loPI   GL217878   6.429  11.779   6.288  0.3018 -0.2082  0.3574
 1118loPI   C1A17879   6.437  11.310   6.571  0.3318 -0.2024  0.3137
 1118loPI   C2A17880   6.568  11.343   6.962  0.0660 -0.0212  0.1629
 1118loPI   C3A17881   6.551  11.374   7.413 -0.3239  0.1969 -0.1722
 1118loPI   C4A17882   6.520  11.381   7.893  0.2773  0.1396  0.1461
 1118loPI   C5A17883   6.457  11.105   8.264 -0.2953 -0.1283  0.1596
 1118loPI   C6A17884   6.321  11.228   8.652  0.0008  0.2928 -0.1402
 1118loPI   C1B17885   6.432  11.827   6.710 -0.1529  0.1333 -0.2024
 1118loPI   C2B17886   6.366  11.982   7.190  0.0344  0.1885  0.3296
 1118loPI   C3B17887   6.277  11.791   7.610  0.2949 -0.1374  0.0741
 1118loPI   C4B17888   6.098  11.588   7.879  0.1967 -0.0952 -0.0927
 1119loPI    C117889   4.386   1.937   5.428  0.0029 -0.0769 -0.0425
 1119loPI    C217890   4.064   2.140   5.304  0.0659  0.0319 -0.0297
 1119loPI    C317891   4.381   2.101   5.063  0.0977  0.0447  0.0102
 1119loPI   PO417892   4.491   2.068   5.665  0.0577 -0.1292  0.2542
 1119loPI   GL117893   4.803   2.133   5.850 -0.0938 -0.2855  0.1773
 1119loPI   GL217894   4.934   1.835   5.987  0.1523  0.3244 -0.3140
 1119loPI   C1A17895   4.916   2.238   6.295  0.0925  0.0826 -0.0595
 1119loPI   C2A17896   4.835   2.437   6.656 -0.0485  0.5931  0.5204
 1119loPI   C3A17897   4.776   2.433   7.147  0.1673  0.3840  0.2293
 1119loPI   C4A17898   4.789   2.387   7.568  0.1218  0.1317 -0.0156
 1119loPI   C5A17899   4.759   2.339   8.104 -0.1060  0.0611  0.1259
 1119loPI   C6A17900   4.788   2.570   8.353 -0.0995  0.0943  0.0918
 1119loPI   C1B17901   4.869   1.809   6.487  0.0494 -0.2974  0.2760
 1119loPI   C2B17902   4.850   1.917   6.929  0.1535 -0.1093  0.0971
 1119loPI   C3B17903   4.867   1.854   7.470  0.2051  0.1894  0.1907
 1119loPI   C4B17904   4.887   1.921   7.829  0.2248 -0.1288  0.0125
 1120loPI    C117905  10.587  10.689   5.495 -0.0756  0.0358  0.0093
 1120loPI    C217906  10.668  10.901   5.166  0.1872  0.0966  0.1106
 1120loPI    C317907  10.779  10.517   5.189 -0.1075  0.0026  0.0078
 1120loPI   PO417908  10.355  10.757   5.546  0.2686 -0.0104  0.0798
 1120loPI   GL117909  10.346  10.964   5.992  0.2311 -0.2832 -0.0323
 1120loPI   GL217910  10.631  11.231   6.112 -0.0090 -0.0160 -0.3501
 1120loPI   C1A17911  10.327  10.916   6.454 -0.1033 -0.2167 -0.0482
 1120loPI   C2A17912  10.324  10.937   6.904  0.3634  0.0974  0.1676
 1120loPI   C3A17913  10.261  10.979   7.330  0.0569 -0.3875  0.4467
 1120loPI   C4A17914  10.232  11.008   7.748 -0.1152  0.0456 -0.1568
 1120loPI   C5A17915  10.504  11.015   8.159 -0.0751  0.1229  0.3171
 1120loPI   C6A17916  10.629  11.357   8.306 -0.1048 -0.0136  0.1477
 1120loPI   C1B17917  10.733  11.243   6.587 -0.0892 -0.1405 -0.2354
 1120loPI   C2B17918  10.725  11.221   6.995 -0.3218 -0.1226  0.3291
 1120loPI   C3B17919  10.693  11.252   7.383  0.0699  0.2320 -0.0316
 1120loPI   C4B17920  10.686  11.331   7.781 -0.0016 -0.0494  0.0436
 1121loPI    C117921   3.514   0.895   5.151 -0.0723 -0.0725  0.0649
 1121loPI    C217922   3.539   0.702   4.801  0.4119 -0.0403  0.0754
 1121loPI    C317923   3.378   1.068   4.817  0.1392 -0.1518 -0.0646
 1121loPI   PO417924   3.422   0.811   5.359  0.0066  0.4517 -0.0440
 1121loPI   GL117925   3.424   0.631   5.824  0.0550 -0.0878  0.2711
 1121loPI   GL217926   3.605   0.840   6.021 -0.5252  0.1733  0.0262
 1121loPI   C1A17927   3.287   0.490   6.207 -0.2642  0.1650 -0.0756
 1121loPI   C2A17928   3.252   0.600   6.646  0.1106 -0.1134  0.0483
 1121loPI   C3A17929   3.301   0.701   7.041  0.2759 -0.1585 -0.2661
 1121loPI   C4A17930   3.188   0.656   7.451  0.0455  0.2866 -0.0250
 1121loPI   C5A17931   3.238   0.586   7.898 -0.1029  0.1407 -0.0190
 1121loPI   C6A17932   3.465   0.246   8.181  0.2115 -0.1445  0.2725
 1121loPI   C1B17933   3.620   0.933   6.417 -0.1604 -0.2138 -0.0640
 1121loPI   C2B17934   3.675   1.059   6.830 -0.1024 -0.0177  0.1862
 1121loPI   C3B17935   3.677   1.035   7.252 -0.0624 -0.3569  0.1533
 1121loPI   C4B17936   3.741   0.968   7.664 -0.4117 -0.2211 -0.1051
 1122loPI    C117937   6.425  14.464   5.629 -0.0219 -0.2732 -0.1311
 1122loPI    C217938   6.217  14.760   5.457  0.1793 -0.0448  0.0117
 1122loPI    C317939   6.529  14.598   5.266  0.0932 -0.1402 -0.0497
 1122loPI   PO417940   6.502  14.516   5.834 -0.3609  0.4119  0.2327
 1122loPI   GL117941   6.460  14.545   6.192  0.0515 -0.0814 -0.2490
 1122loPI   GL217942   6.496  14.217   6.224  0.1604  0.1017  0.4374
 1122loPI   C1A17943   6.496  14.780   6.539  0.2593 -0.1912 -0.0140
 1122loPI   C2A17944   6.522  14.713   7.027  0.1581  0.0269 -0.2497
 1122loPI   C3A17945   6.485  14.864   7.451 -0.0451  0.1660 -0.0186
 1122loPI   C4A17946   6.523  14.837   7.802 -0.0302  0.2344  0.2879
 1122loPI   C5A17947   6.595  14.827   8.228 -0.0511  0.0553 -0.1711
 1122loPI   C6A17948   6.666  15.138   8.514 -0.1179 -0.3285  0.0283
 1122loPI   C1B17949   6.596  14.318   6.716  0.1635  0.0001  0.0108
 1122loPI   C2B17950   6.607  14.231   7.176 -0.1418  0.0746 -0.2974
 1122loPI   C3B17951   6.638  14.350   7.639 -0.1899 -0.5769 -0.0024
 1122loPI   C4B17952   6.601  14.312   8.019 -0.3260 -0.4798 -0.2498
 1123loPI    C117953  10.354   9.169   5.260  0.2071 -0.3538 -0.1036
 1123loPI    C217954  10.077   9.026   5.010 -0.2354  0.2646  0.0099
 1123loPI    C317955  10.305   9.336   4.900  0.0120  0.1327  0.1407
 1123loPI   PO417956  10.294   9.068   5.510  0.1866 -0.1560  0.0255
 1123loPI   GL117957  10.022   8.982   5.923 -0.1397 -0.2645  0.1720
 1123loPI   GL217958   9.700   8.962   5.938 -0.1278 -0.0096  0.2719
 1123loPI   C1A17959  10.121   8.957   6.390 -0.2610  0.1285 -0.0162
 1123loPI   C2A17960  10.194   9.064   6.748 -0.1044 -0.1921  0.0251
 1123loPI   C3A17961  10.174   9.061   7.222  0.2200 -0.0304  0.0152
 1123loPI   C4A17962  10.190   9.157   7.730 -0.1436  0.1615  0.0333
 1123loPI   C5A17963  10.172   9.076   8.080  0.2216 -0.3303 -0.0307
 1123loPI   C6A17964  10.386   8.774   8.224 -0.0557 -0.0010  0.0422
 1123loPI   C1B17965   9.627   9.220   6.235  0.2410  0.0111 -0.1891
 1123loPI   C2B17966   9.680   9.211   6.713  0.0405 -0.3139 -0.0173
 1123loPI   C3B17967   9.670   9.274   7.120  0.3633  0.0353 -0.2962
 1123loPI   C4B17968   9.663   9.343   7.634  0.0193  0.2991 -0.1245
 1124loPI    C117969   6.684   9.314   5.560  0.1696 -0.1146 -0.1447
 1124loPI    C217970   6.289   9.305   5.493  0.1257 -0.1505  0.1087
 1124loPI    C317971   6.530   9.047   5.304  0.0081 -0.2402  0.0805
 1124loPI   PO417972   6.830   9.282   5.795 -0.0892 -0.0905 -0.1185
 1124loPI   GL117973   6.777   8.945   6.170 -0.0722  0.2321 -0.0675
 1124loPI   GL217974   6.954   8.779   6.265  0.0026 -0.0862  0.2040
 1124loPI   C1A17975   6.655   9.004   6.634 -0.0280 -0.1380  0.0524
 1124loPI   C2A17976   6.616   8.900   7.098 -0.0302 -0.2261 -0.1831
 1124loPI   C3A17977   6.564   8.852   7.504  0.0898 -0.0291 -0.4325
 1124loPI   C4A17978   6.585   8.942   7.946 -0.1258  0.2847  0.3056
 1124loPI   C5A17979   6.562   8.786   8.394 -0.4068  0.0477  0.1546
 1124loPI   C6A17980   6.292   8.839   8.784 -0.0199 -0.0425  0.0048
 1124loPI   C1B17981   7.027   8.736   6.754 -0.0460  0.2333 -0.1585
 1124loPI   C2B17982   7.107   8.709   7.229  0.0555 -0.1398 -0.0400
 1124loPI   C3B17983   7.063   8.753   7.656  0.1241 -0.0380 -0.2270
 1124loPI   C4B17984   7.166   8.783   8.127  0.0637  0.2145  0.3128
 1125loPI    C117985   9.791  16.621   5.227 -0.1148 -0.0577 -0.1516
 1125loPI    C217986   9.940  16.900   4.982 -0.0954  0.0524 -0.0155
 1125loPI    C317987   9.933  16.517   4.867  0.1774  0.0629 -0.0746
 1125loPI   PO417988   9.865  16.684   5.391 -0.0972  0.2422 -0.0428
 1125loPI   GL117989   9.780  16.585   5.850 -0.0485 -0.0331 -0.0984
 1125loPI   GL217990   9.862  16.293   5.993  0.0898 -0.1943 -0.1921
 1125loPI   C1A17991   9.691  16.899   6.209 -0.2900  0.0049 -0.0789
 1125loPI   C2A17992   9.843  16.821   6.664  0.1816 -0.0299  0.4273
 1125loPI   C3A17993   9.902  16.953   7.192  0.0010 -0.0722 -0.3681
 1125loPI   C4A17994   9.898  16.905   7.668 -0.0931 -0.0493  0.1316
 1125loPI   C5A17995  10.124  17.026   8.122  0.2644  0.2686  0.2715
 1125loPI   C6A17996  10.155  16.891   8.580 -0.1290 -0.4932  0.1015
 1125loPI   C1B17997   9.900  16.364   6.457 -0.1105 -0.1109  0.0316
 1125loPI   C2B17998   9.944  16.378   6.823 -0.2376 -0.0174 -0.0181
 1125loPI   C3B17999   9.902  16.479   7.279 -0.2427 -0.0619 -0.0874
 1125loPI   C4B18000   9.983  16.393   7.629 -0.2125  0.0319 -0.1780
 1126loPI    C118001  12.507  17.076   5.439  0.0889  0.0067 -0.0524
 1126loPI    C218002  12.639  17.313   5.145  0.2318  0.0109  0.0143
 1126loPI    C318003  12.536  16.935   5.066  0.1451  0.0505 -0.0647
 1126loPI   PO418004  12.592  17.129   5.655 -0.2148  0.1950  0.2006
 1126loPI   GL118005  12.353  17.218   6.121 -0.0702 -0.2368 -0.1746
 1126loPI   GL218006  12.113  16.964   6.190 -0.0811 -0.1618 -0.1844
 1126loPI   C1A18007  12.504  17.278   6.459 -0.0579  0.0484  0.5372
 1126loPI   C2A18008  12.497  17.346   6.975  0.0481  0.1729 -0.0076
 1126loPI   C3A18009  12.470  17.454   7.506 -0.0960  0.1330  0.0953
 1126loPI   C4A18010  12.415  17.318   7.906 -0.0123 -0.2716  0.2521
 1126loPI   C5A18011  12.016  17.612   8.169  0.0996  0.2623  0.3454
 1126loPI   C6A18012  11.778  17.898   8.406  0.3837  0.0222  0.3604
 1126loPI   C1B18013  12.103  16.972   6.679 -0.0106  0.0518 -0.4712
 1126loPI   C2B18014  12.083  16.980   7.125 -0.3452  0.1433  0.0424
 1126loPI   C3B18015  12.169  17.029   7.526 -0.1024 -0.1737  0.0069
 1126loPI   C4B18016  12.154  16.721   7.909 -0.1566  0.0462  0.0972
 1127loPI    C118017   2.551  13.778   5.999  0.1133 -0.1325  0.0265
 1127loPI    C218018   2.752  14.123   5.981 -0.1327  0.0014 -0.2219
 1127loPI    C318019   2.896  13.798   5.798  0.0258  0.0085 -0.1116
 1127loPI   PO418020   2.280  13.792   5.905 -0.3762  0.1595  0.2927
 1127loPI   GL118021   1.959  14.008   6.085 -0.0982  0.0123  0.0998
 1127loPI   GL218022   2.129  14.213   6.166 -0.0853 -0.0498  0.2148
 1127loPI   C1A18023   1.769  13.878   6.605 -0.1866  0.3161 -0.0096
 1127loPI   C2A18024   1.757  13.931   7.078  0.0120 -0.4331 -0.2642
 1127loPI   C3A18025   1.660  13.949   7.522 -0.2802  0.0732 -0.0806
 1127loPI   C4A18026   1.800  14.133   7.910  0.0777 -0.2101 -0.0270
 1127loPI   C5A18027   2.114  14.302   8.061  0.3025  0.0655 -0.0934
 1127loPI   C6A18028   2.468  14.040   8.116 -0.0844 -0.1761  0.2248
 1127loPI   C1B18029   2.170  14.281   6.613 -0.0218 -0.3326  0.0197
 1127loPI   C2B18030   2.157  14.303   7.003  0.0492  0.1222 -0.3696
 1127loPI   C3B18031   2.083  14.207   7.377  0.2051 -0.0055  0.3088
 1127loPI   C4B18032   2.153  13.938   7.596  0.1303 -0.2892  0.1672
 1128loPI    C118033   8.487   0.182   5.320 -0.0604  0.0676 -0.2649
 1128loPI    C218034   8.687  -0.082   5.096 -0.2277 -0.1989 -0.1064
 1128loPI    C318035   8.345   0.077   4.961 -0.0477  0.0601 -0.2677
 1128loPI   PO418036   8.446   0.087   5.505 -0.0338  0.0924 -0.4311
 1128loPI   GL118037   8.373   0.079   5.879  0.1065  0.0736 -0.0376
 1128loPI   GL218038   8.682  -0.064   6.037 -0.1017  0.2487  0.0586
 1128loPI   C1A18039   8.235   0.088   6.273  0.2761 -0.1381  0.1562
 1128loPI   C2A18040   8.260   0.015   6.749 -0.4185 -0.0668  0.0966
 1128loPI   C3A18041   8.319   0.075   7.198  0.0713  0.3588  0.1500
 1128loPI   C4A18042   8.393   0.128   7.576 -0.0031  0.1558  0.0216
 1128loPI   C5A18043   8.292  -0.065   8.015  0.1844  0.5097 -0.1392
 1128loPI   C6A18044   8.415  -0.172   8.368  0.2661  0.1264 -0.2580
 1128loPI   C1B18045   8.622  -0.200   6.462 -0.0516  0.0258  0.1887
 1128loPI   C2B18046   8.751  -0.301   6.738  0.0064  0.1540  0.1496
 1128loPI   C3B18047   8.822  -0.226   7.068  0.2522 -0.4579 -0.0956
 1128loPI   C4B18048   8.902  -0.116   7.548  0.2096 -0.2944  0.2931
 1129loPI    C118049   7.746  12.150   5.758  0.0554 -0.1395 -0.2015
 1129loPI    C218050   7.778  12.035   5.376 -0.1091 -0.0486 -0.2436
 1129loPI    C318051   7.634  12.398   5.464 -0.0588 -0.0641 -0.0955
 1129loPI   PO418052   7.929  12.135   5.898  0.2917  0.1101  0.0330
 1129loPI   GL118053   7.810  12.039   6.227 -0.1445  0.0574  0.1062
 1129loPI   GL218054   7.899  11.697   6.377 -0.0631  0.0194 -0.0627
 1129loPI   C1A18055   7.680  12.238   6.565 -0.2671 -0.1012  0.0149
 1129loPI   C2A18056   7.734  12.298   7.038  0.0272 -0.3613  0.0746
 1129loPI   C3A18057   7.643  12.364   7.484 -0.0261  0.0528  0.0073
 1129loPI   C4A18058   7.650  12.374   8.002  0.1774  0.0532 -0.0117
 1129loPI   C5A18059   7.768  12.571   8.443  0.1322 -0.2110 -0.0882
 1129loPI   C6A18060   7.826  12.701   8.921 -0.1146  0.0636  0.1335
 1129loPI   C1B18061   7.885  11.782   6.828 -0.2008 -0.2035  0.1647
 1129loPI   C2B18062   7.805  11.810   7.230  0.1066 -0.1888 -0.1806
 1129loPI   C3B18063   7.804  11.943   7.728  0.2126 -0.2498  0.0750
 1129loPI   C4B18064   7.690  11.721   8.103 -0.2213  0.1389 -0.0606
 1130loPI    C118065  11.533   3.961   5.377  0.0031 -0.3010  0.3329
 1130loPI    C218066  11.677   3.916   5.007 -0.0083  0.0402  0.2836
 1130loPI    C318067  11.307   3.791   5.095 -0.0318  0.0224  0.1607
 1130loPI   PO418068  11.671   3.884   5.514 -0.1531 -0.0057 -0.2916
 1130loPI   GL118069  11.635   3.792   5.938 -0.0293  0.1113  0.1263
 1130loPI   GL218070  11.871   4.047   6.219  0.1954  0.1021  0.1366
 1130loPI   C1A18071  11.333   4.076   6.249  0.0441 -0.0041 -0.1090
 1130loPI   C2A18072  11.374   4.176   6.751 -0.0763 -0.3183 -0.0929
 1130loPI   C3A18073  11.420   4.161   7.159 -0.0176 -0.2147  0.1179
 1130loPI   C4A18074  11.389   4.311   7.670 -0.1346  0.0881 -0.2385
 1130loPI   C5A18075  11.273   4.356   8.159 -0.1097 -0.1900 -0.1115
 1130loPI   C6A18076  11.411   4.672   8.510  0.2632 -0.1631 -0.0046
 1130loPI   C1B18077  11.876   4.005   6.647  0.2108 -0.0780  0.2216
 1130loPI   C2B18078  11.890   3.932   7.042  0.0984  0.1201 -0.1134
 1130loPI   C3B18079  11.849   4.072   7.484  0.0826  0.1277  0.0973
 1130loPI   C4B18080  11.894   4.098   7.858 -0.0902 -0.0952 -0.0080
 1131loPI    C118081   2.235   5.398   5.628 -0.2658 -0.2305 -0.0911
 1131loPI    C218082   2.618   5.391   5.513 -0.2282 -0.0813  0.0223
 1131loPI    C318083   2.327   5.379   5.239 -0.1398  0.2239 -0.0886
 1131loPI   PO418084   2.280   5.664   5.944  0.0302 -0.1779 -0.0300
 1131loPI   GL118085   2.576   5.672   6.292 -0.0558 -0.0861 -0.2938
 1131loPI   GL218086   2.225   5.558   6.462 -0.4630 -0.2957  0.1801
 1131loPI   C1A18087   2.569   5.821   6.700  0.0544  0.2066  0.0224
 1131loPI   C2A18088   2.555   5.792   7.088 -0.0074  0.1374  0.0926
 1131loPI   C3A18089   2.453   5.781   7.522  0.3177  0.1361 -0.1446
 1131loPI   C4A18090   2.633   5.804   7.927  0.1976 -0.0856  0.1240
 1131loPI   C5A18091   2.582   5.775   8.339 -0.2909  0.1442 -0.0862
 1131loPI   C6A18092   2.629   5.724   8.722  0.0372 -0.1657  0.2073
 1131loPI   C1B18093   2.199   5.544   6.850  0.5108 -0.0676 -0.3022
 1131loPI   C2B18094   2.112   5.448   7.179  0.0586 -0.2611 -0.2960
 1131loPI   C3B18095   2.136   5.426   7.611  0.1689  0.0016  0.0062
 1131loPI   C4B18096   2.110   5.510   7.949 -0.0704  0.0397  0.0275
 1132loPI    C118097  13.069   6.425   5.205  0.1445  0.2096  0.1064
 1132loPI    C218098  12.894   6.066   5.177  0.1520  0.1955  0.2360
 1132loPI    C318099  12.869   6.325   4.873  0.1505  0.0835  0.1402
 1132loPI   PO418100  13.143   6.404   5.474  0.0165 -0.0762 -0.2569
 1132loPI   GL118101  13.151   6.228   5.903 -0.1362 -0.1045 -0.0066
 1132loPI   GL218102  13.290   6.269   5.992  0.0465 -0.1692  0.1383
 1132loPI   C1A18103  12.900   5.931   6.246 -0.2360 -0.0719 -0.1537
 1132loPI   C2A18104  12.844   5.846   6.698 -0.1090  0.0679 -0.0009
 1132loPI   C3A18105  12.802   6.041   7.080  0.0186  0.2058 -0.0325
 1132loPI   C4A18106  12.848   6.139   7.511  0.1514 -0.3477 -0.1093
 1132loPI   C5A18107  12.944   6.021   7.860 -0.2003  0.1774  0.3175
 1132loPI   C6A18108  12.953   5.990   8.285 -0.0765  0.2306 -0.1444
 1132loPI   C1B18109  13.294   6.239   6.378  0.0495  0.0332 -0.2107
 1132loPI   C2B18110  13.268   6.301   6.857  0.2832  0.0544 -0.0205
 1132loPI   C3B18111  13.333   6.320   7.236  0.2602 -0.0017 -0.1046
 1132loPI   C4B18112  13.235   6.416   7.704 -0.0505 -0.0939  0.0728
 1133loPI    C118113   4.187   7.976   5.812  0.1330 -0.0935 -0.0318
 1133loPI    C218114   3.868   7.979   5.570  0.0497  0.2873  0.0765
 1133loPI    C318115   4.234   8.031   5.419  0.0497  0.0006 -0.0289
 1133loPI   PO418116   4.264   7.765   5.990  0.2175  0.2657 -0.0616
 1133loPI   GL118117   4.146   7.464   6.311 -0.1584  0.1098 -0.0012
 1133loPI   GL218118   3.877   7.471   6.425  0.2297  0.2372  0.2671
 1133loPI   C1A18119   4.203   7.540   6.741  0.0518  0.0303 -0.0540
 1133loPI   C2A18120   4.192   7.611   7.126  0.6371  0.2636 -0.1244
 1133loPI   C3A18121   4.084   7.450   7.603  0.0120  0.1512  0.1339
 1133loPI   C4A18122   4.140   7.411   8.078 -0.1184 -0.1119  0.0736
 1133loPI   C5A18123   4.175   7.742   8.354 -0.0010  0.2680 -0.1992
 1133loPI   C6A18124   3.992   7.947   8.631  0.0982 -0.3021 -0.0318
 1133loPI   C1B18125   3.685   7.363   6.837  0.1865  0.1156  0.0811
 1133loPI   C2B18126   3.689   7.192   7.223 -0.0943  0.2056  0.2199
 1133loPI   C3B18127   3.684   7.165   7.622 -0.1584 -0.0095  0.0174
 1133loPI   C4B18128   3.607   7.214   7.970 -0.4479  0.1595 -0.0112
 1134loPI    C118129  15.603  17.673   5.231 -0.0690 -0.0663 -0.2269
 1134loPI    C218130  15.765  17.612   4.871  0.0909 -0.0753 -0.1543
 1134loPI    C318131  15.581  17.312   5.061  0.1287 -0.1070 -0.1677
 1134loPI   PO418132  15.670  17.717   5.512  0.0666  0.1322 -0.2232
 1134loPI   GL118133  15.911  17.630   5.869  0.0895  0.1784 -0.1422
 1134loPI   GL218134  16.176  17.783   6.027 -0.1407 -0.3603  0.1146
 1134loPI   C1A18135  15.823  17.494   6.270  0.0213 -0.0736 -0.0298
 1134loPI   C2A18136  15.626  17.477   6.598  0.0000  0.2758  0.0218
 1134loPI   C3A18137  15.541  17.476   7.070 -0.0957  0.1193  0.3297
 1134loPI   C4A18138  15.518  17.559   7.427  0.1767  0.1151 -0.1301
 1134loPI   C5A18139  15.617  17.601   7.873 -0.2008 -0.0324 -0.1233
 1134loPI   C6A18140  15.663  17.616   8.293 -0.1191 -0.0023  0.0060
 1134loPI   C1B18141  16.079  17.893   6.428  0.0045 -0.2377  0.3717
 1134loPI   C2B18142  15.930  17.773   6.817  0.1895  0.0624  0.0861
 1134loPI   C3B18143  15.935  17.852   7.182 -0.1212 -0.1158 -0.1745
 1134loPI   C4B18144  15.898  17.835   7.571 -0.1523  0.1830 -0.0114
 1135loPI    C118145   7.208  11.858   5.450 -0.1323  0.1328  0.0454
 1135loPI    C218146   7.303  11.794   5.067 -0.2094  0.0609  0.0379
 1135loPI    C318147   7.262  12.168   5.203 -0.1472  0.0874 -0.0153
 1135loPI   PO418148   7.357  11.800   5.612  0.2241  0.1344 -0.0526
 1135loPI   GL118149   7.373  11.732   6.089  0.0538  0.0177 -0.3470
 1135loPI   GL218150   7.330  11.527   6.314  0.0054  0.1142 -0.1457
 1135loPI   C1A18151   7.238  12.013   6.482  0.1001  0.0597 -0.0564
 1135loPI   C2A18152   7.373  11.932   6.932  0.2592  0.2849 -0.1068
 1135loPI   C3A18153   7.322  12.004   7.326 -0.0473  0.2176  0.0846
 1135loPI   C4A18154   7.258  12.034   7.677  0.1935 -0.0429 -0.0889
 1135loPI   C5A18155   7.147  12.023   8.162  0.3383 -0.2662 -0.0136
 1135loPI   C6A18156   7.137  11.836   8.579  0.1683  0.0075  0.0103
 1135loPI   C1B18157   7.475  11.544   6.696 -0.0661  0.0631  0.0097
 1135loPI   C2B18158   7.509  11.470   7.112  0.0636 -0.1536  0.2161
 1135loPI   C3B18159   7.449  11.445   7.516 -0.0077  0.0505  0.0798
 1135loPI   C4B18160   7.196  11.546   7.885 -0.6177  0.0062 -0.3405
 1136loPI    C118161   7.447   5.782   5.105  0.0290  0.1718  0.0352
 1136loPI    C218162   7.175   5.491   5.069  0.1405  0.0604  0.0833
 1136loPI    C318163   7.200   5.778   4.791  0.0700 -0.0095  0.0044
 1136loPI   PO418164   7.423   5.872   5.403 -0.0331  0.1539  0.1246
 1136loPI   GL118165   7.435   5.761   5.793  0.0621  0.1895  0.1271
 1136loPI   GL218166   7.757   5.878   5.869  0.0357 -0.0197  0.2396
 1136loPI   C1A18167   7.565   5.652   6.295 -0.1539  0.1171 -0.2350
 1136loPI   C2A18168   7.513   5.626   6.707 -0.1595 -0.1908  0.3133
 1136loPI   C3A18169   7.558   5.655   7.152 -0.0086 -0.2251 -0.0685
 1136loPI   C4A18170   7.675   5.834   7.565  0.0484  0.0910 -0.0483
 1136loPI   C5A18171   7.522   5.713   7.960  0.2652  0.1175 -0.0702
 1136loPI   C6A18172   7.120   5.653   8.226 -0.0383  0.2591 -0.0862
 1136loPI   C1B18173   7.930   5.987   6.265  0.4061  0.1464 -0.0772
 1136loPI   C2B18174   7.897   5.968   6.691  0.0033 -0.3965  0.0453
 1136loPI   C3B18175   7.959   6.003   7.093 -0.1501 -0.3942  0.3086
 1136loPI   C4B18176   8.095   6.087   7.592 -0.2864 -0.1457  0.2775
 1137loPI    C118177   0.567   8.705   5.594 -0.2324 -0.0126 -0.0707
 1137loPI    C218178   0.729   8.344   5.533  0.0284  0.1151 -0.1503
 1137loPI    C318179   0.331   8.386   5.545 -0.0033 -0.1807 -0.0967
 1137loPI   PO418180   0.626   8.787   5.732  0.3336  0.0026 -0.0549
 1137loPI   GL118181   0.525   8.751   6.115 -0.6520  0.1263  0.0522
 1137loPI   GL218182   0.364   8.961   6.128  0.3085 -0.0586 -0.0262
 1137loPI   C1A18183   0.402   8.601   6.626  0.0121  0.0116 -0.0673
 1137loPI   C2A18184   0.361   8.746   7.032  0.2014  0.0298  0.0777
 1137loPI   C3A18185   0.391   8.596   7.436 -0.1767  0.2597  0.1116
 1137loPI   C4A18186   0.265   8.579   7.896 -0.1231  0.0026 -0.3166
 1137loPI   C5A18187   0.395   8.843   8.268 -0.3646  0.1990  0.1335
 1137loPI   C6A18188   0.521   9.106   8.629  0.0589 -0.1321 -0.0059
 1137loPI   C1B18189   0.285   9.149   6.576  0.0509 -0.0180  0.6624
 1137loPI   C2B18190   0.318   9.216   7.050  0.1751 -0.0130 -0.0589
 1137loPI   C3B18191   0.322   9.167   7.464 -0.3337 -0.0672  0.0299
 1137loPI   C4B18192   0.257   9.176   7.915 -0.0204  0.3507  0.0932
 1138loPI    C118193  16.954   5.033   5.701  0.0290 -0.0566 -0.0284
 1138loPI    C218194  16.702   5.142   5.410  0.0665  0.0139 -0.0347
 1138loPI    C318195  17.006   4.894   5.330 -0.0522 -0.1420 -0.0083
 1138loPI   PO418196  16.827   5.067   5.852 -0.2209 -0.2727  0.2191
 1138loPI   GL118197  16.640   4.851   6.109 -0.0836  0.0619  0.2889
 1138loPI   GL218198  16.427   4.817   5.888  0.0510 -0.0119 -0.0521
 1138loPI   C1A18199  16.530   4.958   6.507  0.1524  0.0112  0.2515
 1138loPI   C2A18200  16.581   4.936   6.854  0.3688  0.2709 -0.0684
 1138loPI   C3A18201  16.668   5.011   7.199  0.0280 -0.2003 -0.1844
 1138loPI   C4A18202  16.611   4.929   7.696  0.0564 -0.2893 -0.0148
 1138loPI   C5A18203  16.391   4.952   8.112 -0.2175  0.0596  0.3091
 1138loPI   C6A18204  16.051   5.177   8.204 -0.1222  0.0380 -0.0237
 1138loPI   C1B18205  16.217   4.647   6.250  0.0660  0.0289 -0.1047
 1138loPI   C2B18206  16.170   4.670   6.638  0.0310 -0.1746 -0.1739
 1138loPI   C3B18207  16.302   4.597   7.049 -0.1114  0.1459  0.0612
 1138loPI   C4B18208  16.203   4.691   7.523  0.3555 -0.1200  0.0273
 1139loPI    C118209  16.720   3.300   5.452 -0.0034 -0.0658  0.1386
 1139loPI    C218210  16.946   3.622   5.525  0.1077 -0.0563 -0.2264
 1139loPI    C318211  16.768   3.579   5.170 -0.2469 -0.1975 -0.0365
 1139loPI   PO418212  16.511   3.303   5.634  0.0919 -0.0489  0.1325
 1139loPI   GL118213  16.525   3.177   6.011  0.2056  0.1080  0.0500
 1139loPI   GL218214  16.783   3.426   6.031  0.1668 -0.0904 -0.3551
 1139loPI   C1A18215  16.486   3.102   6.402  0.1213 -0.1326 -0.1295
 1139loPI   C2A18216  16.538   3.003   6.759  0.0801 -0.2030  0.0791
 1139loPI   C3A18217  16.437   3.126   7.181 -0.0254 -0.0243  0.0715
 1139loPI   C4A18218  16.502   3.046   7.538  0.1244  0.2887 -0.1433
 1139loPI   C5A18219  16.514   3.201   7.954 -0.1648  0.0040  0.0859
 1139loPI   C6A18220  16.717   3.569   8.104  0.2163 -0.2466 -0.3587
 1139loPI   C1B18221  16.928   3.343   6.420  0.0495 -0.0725 -0.0170
 1139loPI   C2B18222  16.866   3.350   6.892 -0.2358  0.0868  0.2838
 1139loPI   C3B18223  16.859   3.369   7.312 -0.2955 -0.1994  0.1061
 1139loPI   C4B18224  16.942   3.371   7.693 -0.0128 -0.0089  0.0189
 1140loPI    C118225   1.601  11.793   5.677 -0.0561  0.1769 -0.1829
 1140loPI    C218226   1.661  11.400   5.726  0.0093  0.2143  0.0475
 1140loPI    C318227   1.320  11.532   5.564 -0.1012  0.0715  0.1617
 1140loPI   PO418228   1.597  11.893   5.906 -0.1531 -0.1121 -0.0063
 1140loPI   GL118229   1.432  11.806   6.342 -0.2233 -0.1315  0.1730
 1140loPI   GL218230   1.180  11.866   6.442  0.0601 -0.0142  0.0187
 1140loPI   C1A18231   1.500  11.877   6.799 -0.1261  0.2232  0.1485
 1140loPI   C2A18232   1.714  12.140   7.138  0.3996  0.2859  0.1857
 1140loPI   C3A18233   2.083  12.351   7.220  0.0688  0.0930  0.2802
 1140loPI   C4A18234   2.406  12.209   7.470  0.2720  0.1562  0.1891
 1140loPI   C5A18235   2.667  11.988   7.759  0.2411  0.1974 -0.1959
 1140loPI   C6A18236   3.000  11.890   7.980  0.2280 -0.3109  0.3204
 1140loPI   C1B18237   0.985  11.816   6.774 -0.0141 -0.0010 -0.0708
 1140loPI   C2B18238   0.813  11.940   7.152  0.0738  0.0855  0.1686
 1140loPI   C3B18239   0.779  11.922   7.581  0.0495  0.1927  0.2239
 1140loPI   C4B18240   0.752  12.076   8.031 -0.0418 -0.2142  0.2513
 1141loPI    C118241  12.228  15.590   5.202 -0.2482 -0.0032  0.0064
 1141loPI    C218242  12.150  15.867   4.924 -0.0681  0.0823  0.0398
 1141loPI    C318243  12.477  15.638   4.893 -0.1188 -0.0004  0.1103
 1141loPI   PO418244  12.249  15.670   5.428 -0.0345  0.3292  0.1402
 1141loPI   GL118245  12.290  15.614   5.792 -0.1629  0.0171 -0.0738
 1141loPI   GL218246  12.306  15.954   5.882  0.0672 -0.1025 -0.0824
 1141loPI   C1A18247  12.432  15.362   6.133  0.0127 -0.2289 -0.0354
 1141loPI   C2A18248  12.298  15.417   6.579 -0.2532  0.2616 -0.1140
 1141loPI   C3A18249  12.233  15.399   7.090 -0.3262  0.0384  0.0639
 1141loPI   C4A18250  12.308  15.417   7.584  0.0651 -0.1313  0.5212
 1141loPI   C5A18251  12.475  15.308   8.092 -0.0040  0.0882 -0.1758
 1141loPI   C6A18252  12.541  15.295   8.592 -0.1966  0.0482  0.0726
 1141loPI   C1B18253  12.112  15.968   6.299 -0.0918  0.1311  0.0652
 1141loPI   C2B18254  12.187  15.958   6.701  0.2369  0.2666 -0.2113
 1141loPI   C3B18255  12.159  15.974   7.144  0.0043 -0.0595 -0.1787
 1141loPI   C4B18256  12.178  15.888   7.594  0.0753 -0.0251  0.1264
 1142loPI    C118257  14.889   5.424   5.434 -0.0215 -0.0700 -0.0497
 1142loPI    C218258  14.991   5.574   5.077  0.1694  0.2089  0.1177
 1142loPI    C318259  15.007   5.180   5.140  0.5051  0.1899 -0.0667
 1142loPI   PO418260  14.995   5.483   5.628 -0.4596 -0.3034  0.2708
 1142loPI   GL118261  15.116   5.494   6.035  0.0101 -0.2032 -0.1752
 1142loPI   GL218262  14.910   5.212   6.102  0.3623 -0.0160  0.0974
 1142loPI   C1A18263  15.130   5.494   6.479 -0.0154  0.2057 -0.0003
 1142loPI   C2A18264  15.230   5.566   6.926 -0.1184  0.3810 -0.1799
 1142loPI   C3A18265  15.239   5.565   7.339  0.0681 -0.2730  0.0199
 1142loPI   C4A18266  15.230   5.461   7.801  0.1645 -0.2939  0.1386
 1142loPI   C5A18267  15.158   5.418   8.194  0.2304 -0.1454 -0.0889
 1142loPI   C6A18268  14.841   5.674   8.423  0.0797 -0.2242  0.1140
 1142loPI   C1B18269  14.749   5.183   6.527 -0.0689  0.0912 -0.0819
 1142loPI   C2B18270  14.772   5.244   6.987 -0.0785  0.0277  0.1541
 1142loPI   C3B18271  14.735   5.290   7.420  0.0287 -0.0185 -0.0909
 1142loPI   C4B18272  14.741   5.129   7.809 -0.2121  0.1898 -0.0024
 1143loPI    C118273   5.192   7.396   5.687 -0.2424  0.1806  0.0488
 1143loPI    C218274   4.942   7.482   5.387 -0.2328 -0.2332 -0.0841
 1143loPI    C318275   5.317   7.367   5.308 -0.0413  0.2349  0.1095
 1143loPI   PO418276   4.955   7.191   5.870 -0.0248 -0.0925 -0.4293
 1143loPI   GL118277   4.864   7.455   6.179 -0.3021 -0.0751 -0.0918
 1143loPI   GL218278   5.131   7.311   6.323  0.0388 -0.1691 -0.1797
 1143loPI   C1A18279   4.640   7.413   6.516  0.2697  0.0661  0.0793
 1143loPI   C2A18280   4.616   7.423   6.934 -0.3189 -0.2259  0.3529
 1143loPI   C3A18281   4.604   7.275   7.357  0.1139 -0.1511  0.4459
 1143loPI   C4A18282   4.548   7.353   7.785  0.0168  0.0149  0.4736
 1143loPI   C5A18283   4.696   7.163   8.161  0.0330 -0.1753  0.2145
 1143loPI   C6A18284   5.007   7.313   8.535 -0.0199  0.0608 -0.2229
 1143loPI   C1B18285   5.040   7.233   6.697  0.0958 -0.0719 -0.0047
 1143loPI   C2B18286   5.109   7.099   7.055 -0.2776 -0.0827 -0.1992
 1143loPI   C3B18287   5.120   7.099   7.447 -0.0749 -0.0105 -0.0052
 1143loPI   C4B18288   5.051   7.049   7.885 -0.0820 -0.0332  0.0547
 1144loPI    C118289   9.821  13.951   5.575  0.0591  0.0747  0.0597
 1144loPI    C218290  10.036  13.666   5.394 -0.0183  0.0738 -0.0311
 1144loPI    C318291   9.838  13.937   5.176 -0.0022  0.1546  0.0542
 1144loPI   PO418292   9.987  14.082   5.766 -0.0689 -0.0288 -0.2718
 1144loPI   GL118293  10.170  14.053   6.192 -0.0045 -0.2566  0.0049
 1144loPI   GL218294  10.221  13.724   6.300 -0.2034 -0.0254 -0.0883
 1144loPI   C1A18295  10.165  14.321   6.636  0.3454  0.0055  0.0381
 1144loPI   C2A18296  10.232  14.326   7.143  0.0204  0.1179 -0.1368
 1144loPI   C3A18297  10.114  14.295   7.515 -0.0309  0.3151 -0.0651
 1144loPI   C4A18298  10.155  14.354   7.989 -0.0566  0.3095 -0.3154
 1144loPI   C5A18299   9.958  14.352   8.386  0.0017 -0.2480 -0.1719
 1144loPI   C6A18300   9.655  14.054   8.606  0.0167  0.1271  0.0747
 1144loPI   C1B18301  10.192  13.788   6.804 -0.3419 -0.1867 -0.3486
 1144loPI   C2B18302  10.268  13.773   7.293  0.4101  0.0554 -0.0468
 1144loPI   C3B18303  10.180  13.814   7.760 -0.0451  0.0583  0.1054
 1144loPI   C4B18304  10.204  13.853   8.197  0.1602 -0.1352  0.1618
 1145loPI    C118305  14.880  17.599   5.446 -0.0579 -0.1648  0.2171
 1145loPI    C218306  15.241  17.431   5.487 -0.0620 -0.1736  0.2172
 1145loPI    C318307  15.026  17.366   5.156  0.0143 -0.0209  0.1368
 1145loPI   PO418308  14.745  17.527   5.595  0.0281  0.2031  0.1580
 1145loPI   GL118309  14.682  17.360   6.009  0.0371 -0.0609  0.0832
 1145loPI   GL218310  14.384  17.349   5.889 -0.0059  0.0433 -0.2057
 1145loPI   C1A18311  14.839  17.422   6.522  0.2669 -0.0629 -0.0321
 1145loPI   C2A18312  14.737  17.338   6.907  0.2173 -0.0493 -0.0585
 1145loPI   C3A18313  14.758  17.460   7.320 -0.0269 -0.0187 -0.1708
 1145loPI   C4A18314  14.711  17.456   7.822 -0.1684 -0.1295  0.1311
 1145loPI   C5A18315  14.726  17.789   8.125 -0.0465  0.1168  0.4541
 1145loPI   C6A18316  14.810  18.265   8.320  0.1112 -0.0099 -0.1256
 1145loPI   C1B18317  14.254  17.463   6.369  0.1262  0.0990 -0.1061
 1145loPI   C2B18318  14.326  17.657   6.671  0.1986 -0.1840 -0.0908
 1145loPI   C3B18319  14.262  17.623   7.187  0.0517 -0.0257  0.3052
 1145loPI   C4B18320  14.315  17.606   7.616  0.1748  0.0301  0.0630
 1146loPI    C118321   9.972   7.772   5.393 -0.0280 -0.0002 -0.0352
 1146loPI    C218322   9.761   7.833   5.059  0.0004 -0.1534 -0.0817
 1146loPI    C318323  10.025   7.533   5.077  0.2019  0.0261 -0.0177
 1146loPI   PO418324   9.957   7.981   5.539  0.2108 -0.1191  0.0784
 1146loPI   GL118325  10.326   8.085   5.781 -0.0399  0.0102  0.2338
 1146loPI   GL218326  10.357   7.783   5.855  0.0015 -0.1714 -0.1166
 1146loPI   C1A18327  10.263   8.382   5.918  0.2219  0.1532  0.0934
 1146loPI   C2A18328  10.241   8.482   6.410  0.0616 -0.1356  0.3327
 1146loPI   C3A18329  10.296   8.461   6.871 -0.3303  0.0045 -0.0608
 1146loPI   C4A18330  10.289   8.587   7.291  0.1252 -0.0944 -0.3460
 1146loPI   C5A18331  10.223   8.662   7.700 -0.1745 -0.0294 -0.0688
 1146loPI   C6A18332   9.996   8.575   8.045 -0.3012 -0.1391 -0.2202
 1146loPI   C1B18333  10.290   7.924   6.240 -0.2547 -0.2940  0.1088
 1146loPI   C2B18334  10.260   7.940   6.723  0.2349 -0.2181  0.0363
 1146loPI   C3B18335  10.288   8.053   7.188 -0.2709  0.2258  0.1329
 1146loPI   C4B18336  10.338   8.093   7.627  0.2632  0.0042 -0.0946
 1147loPI    C118337   5.070   1.385   4.971 -0.3393  0.2331 -0.0890
 1147loPI    C218338   4.960   1.015   4.867 -0.0152  0.0773  0.1067
 1147loPI    C318339   5.157   1.246   4.606  0.0292  0.0081  0.0786
 1147loPI   PO418340   5.063   1.343   5.249 -0.3230  0.0954  0.2217
 1147loPI   GL118341   5.073   1.380   5.721  0.1367 -0.0487 -0.2431
 1147loPI   GL218342   5.151   1.144   5.695  0.1727 -0.0283 -0.2124
 1147loPI   C1A18343   4.899   1.345   6.121  0.0315 -0.3313 -0.2361
 1147loPI   C2A18344   4.951   1.263   6.516 -0.0254 -0.0662 -0.3337
 1147loPI   C3A18345   4.869   1.359   6.909 -0.2568 -0.3592 -0.1253
 1147loPI   C4A18346   4.888   1.362   7.393  0.0502  0.0104  0.2010
 1147loPI   C5A18347   5.107   1.368   7.779  0.3496 -0.1286 -0.2696
 1147loPI   C6A18348   5.440   1.348   8.070 -0.0555 -0.0145 -0.0590
 1147loPI   C1B18349   5.352   1.110   6.113  0.2926  0.2842 -0.0462
 1147loPI   C2B18350   5.420   1.112   6.600  0.3470  0.3708  0.1688
 1147loPI   C3B18351   5.402   1.191   7.022  0.0023  0.1632 -0.0970
 1147loPI   C4B18352   5.385   1.220   7.399  0.1427 -0.1111 -0.2750
 1148loPI    C118353  17.433   5.764   5.405 -0.2157  0.1704  0.0352
 1148loPI    C218354  17.683   6.063   5.312  0.1658 -0.2174 -0.2264
 1148loPI    C318355  17.354   6.001   5.093  0.0128  0.0879 -0.0882
 1148loPI   PO418356  17.525   5.760   5.705 -0.1442 -0.4021  0.1094
 1148loPI   GL118357  17.640   5.738   6.156 -0.2757 -0.0284  0.0854
 1148loPI   GL218358  17.874   5.955   6.294 -0.1406 -0.0486 -0.0739
 1148loPI   C1A18359  17.453   5.610   6.564 -0.2177 -0.3357  0.0839
 1148loPI   C2A18360  17.444   5.660   7.025  0.2591 -0.0943 -0.2011
 1148loPI   C3A18361  17.452   5.691   7.475  0.0422  0.2133  0.0609
 1148loPI   C4A18362  17.502   5.666   7.847 -0.0097  0.0269  0.0208
 1148loPI   C5A18363  17.543   5.538   8.265  0.2712 -0.0842 -0.0103
 1148loPI   C6A18364  17.257   5.251   8.445 -0.0970  0.0748  0.2672
 1148loPI   C1B18365  17.867   5.952   6.684 -0.3265 -0.0751 -0.3434
 1148loPI   C2B18366  17.850   5.914   7.105  0.0793 -0.0410 -0.0074
 1148loPI   C3B18367  17.919   6.012   7.494 -0.0161 -0.0063 -0.0793
 1148loPI   C4B18368  17.868   5.991   7.916 -0.0457 -0.3396  0.2794
 1149loPI    C118369   8.290   9.244   5.685 -0.0268 -0.1465 -0.0248
 1149loPI    C218370   8.420   8.867   5.715  0.2216 -0.0692 -0.1083
 1149loPI    C318371   8.409   9.047   5.358  0.2509  0.0534 -0.0480
 1149loPI   PO418372   8.118   9.237   5.865  0.1683 -0.1005  0.2536
 1149loPI   GL118373   7.781   9.058   6.109  0.2678 -0.1764 -0.2978
 1149loPI   GL218374   7.688   9.341   6.095  0.3801  0.0702 -0.0217
 1149loPI   C1A18375   7.936   8.878   6.521 -0.0287  0.1692  0.0784
 1149loPI   C2A18376   7.953   8.938   6.959  0.0132 -0.0960 -0.1049
 1149loPI   C3A18377   7.890   9.002   7.355 -0.0451  0.4502  0.0591
 1149loPI   C4A18378   7.840   8.962   7.837  0.2026 -0.1414 -0.1150
 1149loPI   C5A18379   7.531   9.160   8.045  0.1508  0.1930  0.0259
 1149loPI   C6A18380   7.165   9.271   7.875 -0.1557  0.0561  0.1213
 1149loPI   C1B18381   7.967   9.397   6.483 -0.1345  0.2323  0.0434
 1149loPI   C2B18382   7.831   9.405   6.847  0.0614 -0.2043  0.0823
 1149loPI   C3B18383   7.832   9.553   7.235 -0.0264  0.0670 -0.0826
 1149loPI   C4B18384   7.727   9.475   7.690  0.0471  0.1033 -0.3619
 1150loPI    C118385  11.388  11.640   5.242 -0.0481  0.0690 -0.0082
 1150loPI    C218386  11.725  11.459   5.127  0.1043  0.1964  0.2289
 1150loPI    C318387  11.653  11.836   5.015 -0.1582  0.0355 -0.1673
 1150loPI   PO418388  11.405  11.689   5.521 -0.0555 -0.2147  0.1635
 1150loPI   GL118389  11.317  11.785   5.955 -0.1217  0.0871 -0.0593
 1150loPI   GL218390  11.683  11.716   5.913  0.1471  0.1285  0.1826
 1150loPI   C1A18391  11.471  11.890   6.360 -0.0899  0.2131 -0.2696
 1150loPI   C2A18392  11.466  11.890   6.861  0.0020  0.0399  0.1119
 1150loPI   C3A18393  11.439  11.884   7.239 -0.0526 -0.1939 -0.0682
 1150loPI   C4A18394  11.419  11.924   7.747 -0.0214  0.1791 -0.0557
 1150loPI   C5A18395  11.413  12.080   8.198  0.1679  0.0281 -0.3876
 1150loPI   C6A18396  11.353  12.320   8.590  0.0411 -0.1188 -0.0255
 1150loPI   C1B18397  11.946  11.646   6.250 -0.1340 -0.0451 -0.2872
 1150loPI   C2B18398  12.000  11.697   6.636  0.0717  0.0274 -0.3884
 1150loPI   C3B18399  11.883  11.714   7.085  0.0766  0.2857 -0.3453
 1150loPI   C4B18400  11.942  11.743   7.560  0.0133  0.0427  0.1372
 1151loPI    C118401   9.981   1.333   5.463 -0.0812 -0.1221  0.0201
 1151loPI    C218402  10.312   1.470   5.286 -0.0496 -0.2186  0.0039
 1151loPI    C318403   9.984   1.400   5.069 -0.2198  0.2895  0.0842
 1151loPI   PO418404   9.938   1.598   5.628  0.4674  0.0752 -0.3202
 1151loPI   GL118405   9.820   1.715   6.031 -0.0119 -0.2075 -0.0976
 1151loPI   GL218406   9.557   1.606   6.136  0.0692  0.0886  0.0572
 1151loPI   C1A18407   9.814   1.802   6.499 -0.0658 -0.1651  0.1162
 1151loPI   C2A18408   9.899   1.736   6.818 -0.0321 -0.0929 -0.0324
 1151loPI   C3A18409   9.942   1.944   7.178  0.1724 -0.0736 -0.1829
 1151loPI   C4A18410   9.947   1.893   7.586  0.0605  0.0714  0.1838
 1151loPI   C5A18411  10.000   1.849   8.088 -0.0984 -0.1448 -0.0530
 1151loPI   C6A18412   9.643   2.082   8.352 -0.0494  0.0922  0.4312
 1151loPI   C1B18413   9.421   1.466   6.509 -0.2008 -0.3247 -0.0490
 1151loPI   C2B18414   9.511   1.465   6.929 -0.0492  0.0703  0.3302
 1151loPI   C3B18415   9.607   1.625   7.373 -0.2160 -0.2212  0.3277
 1151loPI   C4B18416   9.616   1.620   7.805 -0.2049  0.0054 -0.1706
 1152loPI    C118417  15.508   5.795   5.129 -0.0145 -0.0452  0.1133
 1152loPI    C218418  15.421   5.432   4.985  0.1919 -0.0710  0.0517
 1152loPI    C318419  15.413   5.751   4.743 -0.1207 -0.0121  0.1350
 1152loPI   PO418420  15.347   5.769   5.371  0.0851  0.2732 -0.4055
 1152loPI   GL118421  15.340   5.901   5.768  0.0492 -0.4451  0.0230
 1152loPI   GL218422  15.404   6.230   5.837  0.0968 -0.0341  0.1867
 1152loPI   C1A18423  15.454   5.830   6.198  0.2678  0.1694 -0.2292
 1152loPI   C2A18424  15.569   5.845   6.683 -0.2113  0.0757  0.1861
 1152loPI   C3A18425  15.611   5.836   7.171 -0.0845  0.1484  0.1910
 1152loPI   C4A18426  15.562   5.806   7.627 -0.1788 -0.0345  0.4701
 1152loPI   C5A18427  15.289   5.936   8.073  0.1612  0.0931  0.1148
 1152loPI   C6A18428  15.003   6.143   8.268 -0.1839 -0.0295 -0.2767
 1152loPI   C1B18429  15.522   6.309   6.260 -0.0701  0.0167 -0.0447
 1152loPI   C2B18430  15.490   6.409   6.735 -0.0269  0.1057 -0.1328
 1152loPI   C3B18431  15.473   6.408   7.195 -0.2148 -0.0670  0.0673
 1152loPI   C4B18432  15.547   6.310   7.640 -0.1127  0.1145  0.1800
 1153loPI    C118433  13.495   5.480   5.280 -0.2498 -0.0209 -0.0298
 1153loPI    C218434  13.240   5.187   5.184 -0.1641 -0.1309  0.0755
 1153loPI    C318435  13.601   5.202   5.013 -0.1328 -0.1413  0.1401
 1153loPI   PO418436  13.502   5.469   5.555 -0.0709 -0.1202  0.0932
 1153loPI   GL118437  13.783   5.375   5.976  0.0764  0.3035 -0.2667
 1153loPI   GL218438  13.484   5.273   6.042 -0.0395 -0.2139  0.0112
 1153loPI   C1A18439  13.831   5.527   6.303 -0.0333 -0.0099 -0.3093
 1153loPI   C2A18440  13.918   5.522   6.779 -0.0964 -0.1129  0.0594
 1153loPI   C3A18441  13.821   5.582   7.078 -0.0242  0.2900 -0.4721
 1153loPI   C4A18442  13.826   5.621   7.576  0.2347 -0.3451 -0.0867
 1153loPI   C5A18443  13.973   5.639   7.978  0.1257  0.1204  0.1154
 1153loPI   C6A18444  14.059   5.813   8.345 -0.0655  0.1757  0.0408
 1153loPI   C1B18445  13.421   5.222   6.509  0.3092 -0.5366  0.2342
 1153loPI   C2B18446  13.446   5.256   6.931  0.1628 -0.0477  0.0482
 1153loPI   C3B18447  13.422   5.328   7.365 -0.0314 -0.0549  0.1079
 1153loPI   C4B18448  13.476   5.395   7.842  0.0646  0.1288 -0.0632
 1154loPI    C118449  16.955  13.681   5.514  0.0781 -0.1605 -0.1280
 1154loPI    C218450  17.169  13.727   5.179 -0.1246  0.1413 -0.2205
 1154loPI    C318451  16.773  13.781   5.172 -0.1091  0.3187  0.1031
 1154loPI   PO418452  17.140  13.494   5.640  0.3706 -0.1840 -0.0380
 1154loPI   GL118453  17.270  13.423   6.056 -0.2965 -0.0951  0.0053
 1154loPI   GL218454  17.461  13.209   6.265 -0.0119 -0.2505  0.0211
 1154loPI   C1A18455  17.100  13.468   6.561  0.0949 -0.1098  0.2228
 1154loPI   C2A18456  17.108  13.432   6.963 -0.1478 -0.0081 -0.1315
 1154loPI   C3A18457  17.050  13.601   7.440 -0.1866 -0.0481 -0.0878
 1154loPI   C4A18458  17.140  13.453   7.816 -0.0402  0.1458 -0.2303
 1154loPI   C5A18459  17.012  13.490   8.211  0.1479 -0.1023  0.1209
 1154loPI   C6A18460  16.700  13.689   8.311 -0.0192  0.1040  0.2278
 1154loPI   C1B18461  17.518  13.294   6.732 -0.0018 -0.0489  0.1817
 1154loPI   C2B18462  17.523  13.216   7.189 -0.2751 -0.1413 -0.0482
 1154loPI   C3B18463  17.582  13.349   7.585  0.0882 -0.0695  0.1439
 1154loPI   C4B18464  17.579  13.430   8.080  0.4115 -0.0038 -0.0322
 1155loPI    C118465   2.624  15.772   5.346  0.0357  0.0496 -0.1691
 1155loPI    C218466   2.296  15.720   5.123  0.0609  0.1334 -0.2259
 1155loPI    C318467   2.611  15.918   4.974  0.1012  0.1361 -0.1379
 1155loPI   PO418468   2.532  15.770   5.633  0.0718 -0.5831  0.1454
 1155loPI   GL118469   2.762  15.934   5.995  0.2351 -0.0447  0.0574
 1155loPI   GL218470   2.921  16.219   6.070  0.1539  0.0950  0.0007
 1155loPI   C1A18471   2.749  15.793   6.359  0.1854 -0.2683  0.2983
 1155loPI   C2A18472   2.756  15.777   6.850  0.3379  0.0713 -0.0968
 1155loPI   C3A18473   2.673  15.918   7.309  0.0362  0.0846 -0.0668
 1155loPI   C4A18474   2.710  15.910   7.703 -0.0272  0.2927 -0.5676
 1155loPI   C5A18475   2.857  15.986   8.103  0.2039  0.2820  0.2600
 1155loPI   C6A18476   3.096  15.945   8.486 -0.2818  0.3721  0.2576
 1155loPI   C1B18477   2.972  16.186   6.455 -0.5623 -0.2129  0.0554
 1155loPI   C2B18478   3.140  16.296   6.847 -0.2951 -0.0382 -0.1575
 1155loPI   C3B18479   3.139  16.187   7.220 -0.0417  0.0980 -0.1824
 1155loPI   C4B18480   3.148  16.220   7.700 -0.1695  0.1751  0.0305
 1156loPI    C118481   7.090   0.262   5.320 -0.0911  0.2023  0.0044
 1156loPI    C218482   6.781   0.217   5.070  0.1085 -0.0459 -0.2034
 1156loPI    C318483   7.153   0.243   4.925  0.2295 -0.2196  0.0682
 1156loPI   PO418484   6.940   0.407   5.579 -0.1070 -0.4927 -0.0846
 1156loPI   GL118485   6.758   0.383   5.850 -0.0286  0.2740  0.1946
 1156loPI   GL218486   6.833   0.581   6.034 -0.2477 -0.2173 -0.1263
 1156loPI   C1A18487   6.498   0.168   6.205 -0.0294  0.3094 -0.2228
 1156loPI   C2A18488   6.373   0.177   6.658 -0.0554 -0.4637  0.0498
 1156loPI   C3A18489   6.522   0.264   7.050  0.2394  0.3353 -0.0228
 1156loPI   C4A18490   6.548   0.245   7.417  0.0168 -0.1549 -0.1053
 1156loPI   C5A18491   6.492   0.297   7.821  0.3224  0.1456 -0.2046
 1156loPI   C6A18492   6.469   0.428   8.189  0.0113 -0.0150  0.0752
 1156loPI   C1B18493   6.831   0.505   6.428 -0.0980 -0.1256  0.0444
 1156loPI   C2B18494   6.929   0.566   6.914  0.3826  0.2672  0.3222
 1156loPI   C3B18495   6.957   0.579   7.438 -0.3018  0.0759 -0.5749
 1156loPI   C4B18496   6.928   0.602   8.037  0.0931  0.0599  0.0737
 1157loPI    C118497   3.958  14.019   5.495 -0.2211 -0.2089 -0.0697
 1157loPI    C218498   4.028  13.683   5.290  0.1459 -0.1390 -0.0648
 1157loPI    C318499   4.320  13.850   5.507 -0.1036  0.0496  0.1318
 1157loPI   PO418500   3.824  13.992   5.656  0.1515 -0.0120  0.1353
 1157loPI   GL118501   3.795  13.854   6.059  0.0853 -0.0272 -0.3088
 1157loPI   GL218502   3.929  13.547   6.240 -0.0132 -0.1476  0.0327
 1157loPI   C1A18503   3.847  14.026   6.474 -0.1183 -0.0632 -0.0039
 1157loPI   C2A18504   3.795  13.942   6.905  0.0000 -0.2157 -0.1017
 1157loPI   C3A18505   3.795  13.848   7.353  0.0387  0.1193  0.2483
 1157loPI   C4A18506   3.695  13.838   7.820  0.3517 -0.0501 -0.0236
 1157loPI   C5A18507   3.793  13.923   8.204  0.0107 -0.0401 -0.4484
 1157loPI   C6A18508   3.600  13.748   8.614  0.1669 -0.1100 -0.3600
 1157loPI   C1B18509   4.126  13.523   6.658 -0.1373 -0.1364 -0.0559
 1157loPI   C2B18510   4.474  13.675   7.027  0.2193 -0.0241 -0.0634
 1157loPI   C3B18511   4.271  13.777   7.413 -0.1430 -0.2746  0.2001
 1157loPI   C4B18512   4.220  13.787   7.803  0.1777  0.0982  0.0019
 1158loPI    C118513   7.445  16.088   5.093 -0.0672 -0.0446 -0.4259
 1158loPI    C218514   7.241  15.743   5.087  0.1149 -0.1730  0.1316
 1158loPI    C318515   7.533  15.808   4.821 -0.0431 -0.3676 -0.0937
 1158loPI   PO418516   7.501  16.200   5.439  0.1321 -0.3095  0.2480
 1158loPI   GL118517   7.686  16.030   5.768  0.1073 -0.2826  0.0250
 1158loPI   GL218518   7.487  16.049   6.006  0.0221 -0.0293  0.2322
 1158loPI   C1A18519   8.018  16.129   6.053  0.2008 -0.1088 -0.0590
 1158loPI   C2A18520   8.169  16.034   6.542 -0.1473  0.0896  0.1605
 1158loPI   C3A18521   8.144  16.000   6.979  0.1391 -0.3083  0.0223
 1158loPI   C4A18522   8.116  16.229   7.421  0.3011  0.2214 -0.1225
 1158loPI   C5A18523   8.077  16.348   7.812  0.1598  0.4428 -0.1072
 1158loPI   C6A18524   8.136  16.231   8.202  0.1726  0.0330 -0.2411
 1158loPI   C1B18525   7.652  16.180   6.396 -0.0100 -0.1599  0.4857
 1158loPI   C2B18526   7.679  16.286   6.833  0.3671  0.0892  0.0604
 1158loPI   C3B18527   7.695  16.401   7.208 -0.3376 -0.0073 -0.1871
 1158loPI   C4B18528   7.573  16.292   7.659 -0.1883  0.2044  0.0033
 1159loPI    C118529   9.967   9.461   5.242  0.0673 -0.1985  0.0393
 1159loPI    C218530   9.622   9.613   5.109  0.1720 -0.0581 -0.0751
 1159loPI    C318531   9.965   9.806   5.040  0.2456 -0.0603  0.2688
 1159loPI   PO418532   9.933   9.395   5.427 -0.0731  0.2047 -0.0147
 1159loPI   GL118533   9.862   9.475   5.874  0.0650  0.0765 -0.2366
 1159loPI   GL218534   9.588   9.659   5.990  0.0277  0.0366  0.1903
 1159loPI   C1A18535  10.153   9.564   6.187  0.1463 -0.1081  0.0647
 1159loPI   C2A18536  10.044   9.548   6.627 -0.0940 -0.0299  0.0690
 1159loPI   C3A18537  10.131   9.494   7.074  0.1104  0.0007  0.0568
 1159loPI   C4A18538  10.084   9.634   7.475  0.1542 -0.2766 -0.2883
 1159loPI   C5A18539  10.023   9.646   7.924 -0.2016  0.0501 -0.1540
 1159loPI   C6A18540  10.138   9.533   8.365 -0.0254 -0.2381  0.0410
 1159loPI   C1B18541   9.596   9.677   6.443 -0.2383 -0.0388 -0.0018
 1159loPI   C2B18542   9.646   9.750   6.882 -0.0842 -0.0900  0.1020
 1159loPI   C3B18543   9.602   9.761   7.323  0.1639  0.0969  0.0041
 1159loPI   C4B18544   9.611   9.807   7.745 -0.1649 -0.3488  0.4089
 1160loPI    C118545   7.213   9.405   5.351 -0.0392 -0.1768  0.0824
 1160loPI    C218546   7.088   9.026   5.352 -0.2471 -0.1094  0.1858
 1160loPI    C318547   6.930   9.288   5.095  0.0151 -0.1296  0.0003
 1160loPI   PO418548   7.243   9.508   5.616 -0.2168 -0.0342  0.1065
 1160loPI   GL118549   7.157   9.535   6.021  0.0698  0.1176 -0.0785
 1160loPI   GL218550   7.136   9.271   6.257  0.1868 -0.4544  0.1396
 1160loPI   C1A18551   7.392   9.653   6.432  0.1727  0.0804 -0.2192
 1160loPI   C2A18552   7.364   9.639   6.937 -0.0852 -0.0894 -0.2753
 1160loPI   C3A18553   7.292   9.561   7.399 -0.0275  0.3836  0.1514
 1160loPI   C4A18554   7.387   9.128   7.382  0.2248 -0.1161 -0.2319
 1160loPI   C5A18555   7.496   9.078   7.068  0.0203  0.1383 -0.0200
 1160loPI   C6A18556   7.435   9.073   6.669  0.0665 -0.0967  0.3549
 1160loPI   C1B18557   6.838   9.433   6.503 -0.1234  0.1498  0.2418
 1160loPI   C2B18558   6.456   9.551   6.577  0.3183 -0.0773 -0.1052
 1160loPI   C3B18559   6.117   9.632   6.822  0.1766 -0.0996  0.2652
 1160loPI   C4B18560   6.015   9.611   7.193 -0.2828  0.1186  0.0571
 1161loPI    C118561   9.392  10.845   5.638 -0.0485 -0.1401  0.2695
 1161loPI    C218562   9.540  10.588   5.907  0.0926 -0.1857  0.1495
 1161loPI    C318563   9.409  10.454   5.553  0.1919 -0.0901  0.0761
 1161loPI   PO418564   9.332  11.102   5.707 -0.0657  0.1915 -0.1339
 1161loPI   GL118565   9.300  11.295   6.180  0.0957  0.1627 -0.0385
 1161loPI   GL218566   9.397  10.930   6.262  0.1314  0.2465  0.0283
 1161loPI   C1A18567   9.385  11.266   6.643  0.4000 -0.1535 -0.3197
 1161loPI   C2A18568   9.295  11.323   7.053 -0.2915  0.0089  0.0135
 1161loPI   C3A18569   9.298  11.367   7.543  0.1742  0.0710 -0.0468
 1161loPI   C4A18570   9.234  11.222   8.016 -0.0711 -0.0304 -0.0193
 1161loPI   C5A18571   9.277  11.011   8.386 -0.3074 -0.3267 -0.1888
 1161loPI   C6A18572   9.566  10.710   8.495 -0.1563  0.0856  0.1822
 1161loPI   C1B18573   9.461  10.712   6.648 -0.0776  0.0279  0.0062
 1161loPI   C2B18574   9.378  10.819   7.142 -0.1387  0.0772  0.2046
 1161loPI   C3B18575   9.307  10.892   7.560  0.2660  0.1258  0.1002
 1161loPI   C4B18576   9.303  10.713   8.006  0.2831  0.0555 -0.3144
 1162loPI    C118577   0.014  11.721   5.826  0.0618 -0.0576 -0.0795
 1162loPI    C218578   0.244  11.399   5.886  0.1514  0.0067 -0.0772
 1162loPI    C318579   0.219  11.562   5.522  0.1662  0.0431 -0.0620
 1162loPI   PO418580   0.015  11.853   6.015  0.2038 -0.1132  0.0834
 1162loPI   GL118581  -0.187  11.762   6.334  0.4668  0.4385 -0.0716
 1162loPI   GL218582  -0.119  11.392   6.314 -0.0311 -0.0326  0.1284
 1162loPI   C1A18583  -0.194  11.754   6.729  0.2784  0.0180  0.1608
 1162loPI   C2A18584  -0.193  11.816   7.130 -0.0581  0.1289  0.1317
 1162loPI   C3A18585  -0.112  11.763   7.577  0.0047 -0.2656 -0.3252
 1162loPI   C4A18586  -0.231  11.827   7.966  0.1620 -0.1003 -0.0578
 1162loPI   C5A18587  -0.109  11.577   8.394  0.0294 -0.1715  0.0090
 1162loPI   C6A18588  -0.230  11.371   8.771 -0.2711 -0.3179  0.0980
 1162loPI   C1B18589  -0.086  11.210   6.727 -0.1687  0.0148 -0.0187
 1162loPI   C2B18590  -0.110  11.168   7.154 -0.0862  0.5565 -0.1235
 1162loPI   C3B18591  -0.086  11.292   7.536 -0.3164  0.1541  0.2287
 1162loPI   C4B18592   0.118  11.384   7.909  0.2871  0.0390  0.3533
 1163loPI    C118593  11.638   2.800   5.426 -0.1220 -0.1455  0.1696
 1163loPI    C218594  11.730   2.583   5.103 -0.0640  0.0575  0.0482
 1163loPI    C318595  11.741   2.983   5.086 -0.3897  0.0763  0.2043
 1163loPI   PO418596  11.735   2.656   5.607  0.0781 -0.0618  0.0680
 1163loPI   GL118597  11.824   2.274   5.862 -0.1252 -0.1998  0.1131
 1163loPI   GL218598  11.526   2.461   6.048  0.2882  0.2470 -0.0864
 1163loPI   C1A18599  12.015   2.330   6.254  0.0043  0.0520 -0.1313
 1163loPI   C2A18600  11.986   2.467   6.726 -0.0291  0.0832  0.1733
 1163loPI   C3A18601  12.070   2.435   7.119 -0.1574 -0.4789 -0.3904
 1163loPI   C4A18602  12.125   2.503   7.565  0.1564  0.1157 -0.1618
 1163loPI   C5A18603  12.014   2.621   8.042 -0.1156  0.0245 -0.3163
 1163loPI   C6A18604  11.654   2.887   8.328  0.2173  0.2647  0.1571
 1163loPI   C1B18605  11.579   2.609   6.372 -0.0672  0.3197 -0.1896
 1163loPI   C2B18606  11.581   2.705   6.753 -0.2069 -0.1232  0.2128
 1163loPI   C3B18607  11.612   2.639   7.303  0.0612 -0.0860  0.1561
 1163loPI   C4B18608  11.659   2.679   7.677  0.1936  0.2027 -0.1420
 1164loPI    C118609  16.551   9.726   5.343 -0.0313 -0.2375 -0.1241
 1164loPI    C218610  16.638  10.010   5.075 -0.1010 -0.1847 -0.0911
 1164loPI    C318611  16.583   9.632   4.955  0.3296 -0.2511 -0.0946
 1164loPI   PO418612  16.704   9.672   5.552 -0.2285 -0.3042  0.1214
 1164loPI   GL118613  16.605   9.736   5.955  0.2683 -0.2862  0.2729
 1164loPI   GL218614  16.571  10.077   6.102  0.3000 -0.0873  0.0075
 1164loPI   C1A18615  16.790   9.662   6.378 -0.2302 -0.0970  0.0014
 1164loPI   C2A18616  16.799   9.686   6.826 -0.1272 -0.1382  0.0764
 1164loPI   C3A18617  16.717   9.698   7.242 -0.0277  0.1813 -0.1771
 1164loPI   C4A18618  16.722   9.790   7.691 -0.0109 -0.0893  0.2891
 1164loPI   C5A18619  16.702   9.867   8.135 -0.1885 -0.1748  0.2222
 1164loPI   C6A18620  16.933  10.111   8.451 -0.0801 -0.1344  0.2359
 1164loPI   C1B18621  16.715  10.127   6.529  0.3921 -0.1877  0.2292
 1164loPI   C2B18622  16.709  10.278   6.932  0.1694 -0.2224 -0.0215
 1164loPI   C3B18623  16.725  10.295   7.378  0.4872 -0.2109  0.1011
 1164loPI   C4B18624  16.623  10.330   7.752 -0.0541  0.1314 -0.1278
 1165loPI    C118625  17.349  11.217   5.572  0.2563 -0.0550  0.2433
 1165loPI    C218626  17.303  10.909   5.322 -0.1084  0.0312  0.1987
 1165loPI    C318627  17.317  11.282   5.179  0.1053  0.0525  0.2724
 1165loPI   PO418628  17.180  11.180   5.777  0.0030  0.4423 -0.0554
 1165loPI   GL118629  16.899  10.876   5.931 -0.1310  0.0262 -0.1964
 1165loPI   GL218630  16.719  10.634   5.935 -0.0087 -0.2169 -0.0713
 1165loPI   C1A18631  17.054  11.055   6.362  0.1486 -0.0457 -0.1940
 1165loPI   C2A18632  17.051  11.133   6.774 -0.0673  0.0844 -0.1645
 1165loPI   C3A18633  17.035  11.081   7.212 -0.1282 -0.0953 -0.0854
 1165loPI   C4A18634  16.902  11.118   7.628  0.0695  0.1519 -0.2415
 1165loPI   C5A18635  16.981  11.144   8.008 -0.3862 -0.1368  0.0317
 1165loPI   C6A18636  16.747  11.005   8.385 -0.0247  0.1052 -0.2588
 1165loPI   C1B18637  16.625  10.680   6.356  0.1585  0.0996 -0.1130
 1165loPI   C2B18638  16.686  10.737   6.769 -0.1222 -0.1028 -0.0691
 1165loPI   C3B18639  16.616  10.729   7.189 -0.1084 -0.0049  0.1804
 1165loPI   C4B18640  16.513  10.825   7.692  0.1058  0.2282  0.1054
 1166loPI    C118641  11.710  16.921   5.326 -0.1150  0.0873  0.0387
 1166loPI    C218642  12.078  16.979   5.181 -0.1755  0.2341 -0.0584
 1166loPI    C318643  11.786  16.852   4.940 -0.1663  0.0218  0.0403
 1166loPI   PO418644  11.658  17.168   5.549  0.3354  0.0606  0.1949
 1166loPI   GL118645  11.350  17.234   5.711 -0.0724  0.1584 -0.2090
 1166loPI   GL218646  11.161  17.018   5.682  0.1458 -0.0827  0.0544
 1166loPI   C1A18647  11.445  17.056   6.134  0.0410 -0.0200 -0.2172
 1166loPI   C2A18648  11.618  17.166   6.543 -0.1135  0.1984 -0.0679
 1166loPI   C3A18649  11.606  17.196   6.971  0.0113  0.3783  0.4247
 1166loPI   C4A18650  11.593  17.201   7.421  0.3817  0.1123  0.3561
 1166loPI   C5A18651  11.700  17.343   7.880 -0.3818  0.0242 -0.1352
 1166loPI   C6A18652  11.505  17.383   8.262  0.1699  0.2702 -0.3978
 1166loPI   C1B18653  11.029  16.745   5.966 -0.1943  0.2761 -0.0085
 1166loPI   C2B18654  11.176  16.821   6.460 -0.1615  0.2133 -0.1344
 1166loPI   C3B18655  11.134  16.936   6.865 -0.1811 -0.2014  0.0645
 1166loPI   C4B18656  11.184  16.893   7.315  0.1771  0.1910  0.2770
 1167loPI    C118657  11.097   4.617   5.057  0.2395  0.1515 -0.0488
 1167loPI    C218658  11.380   4.343   5.124  0.1584  0.0107 -0.2723
 1167loPI    C318659  11.472   4.732   5.133  0.2542 -0.0175  0.1416
 1167loPI   PO418660  10.918   4.496   5.268 -0.1908 -0.0535 -0.3638
 1167loPI   GL118661  10.742   4.464   5.693  0.0609 -0.0940  0.1189
 1167loPI   GL218662  10.891   4.624   5.760  0.2399 -0.0516  0.0212
 1167loPI   C1A18663  10.642   4.113   5.889 -0.1182  0.1126 -0.1543
 1167loPI   C2A18664  10.915   3.854   6.141  0.3473 -0.0736 -0.2024
 1167loPI   C3A18665  10.956   3.805   6.500 -0.1569  0.2817  0.2232
 1167loPI   C4A18666  11.002   3.899   6.966  0.0082 -0.1378  0.0571
 1167loPI   C5A18667  11.020   3.890   7.452 -0.1983  0.1336  0.2165
 1167loPI   C6A18668  10.952   4.151   7.810  0.0295  0.0402 -0.0886
 1167loPI   C1B18669  10.934   4.399   6.206 -0.1529 -0.1193  0.0585
 1167loPI   C2B18670  10.964   4.397   6.665 -0.0852 -0.0173 -0.0355
 1167loPI   C3B18671  10.853   4.417   7.069 -0.2554 -0.4453 -0.0849
 1167loPI   C4B18672  10.980   4.419   7.411 -0.0666 -0.1645  0.2646
 1168loPI    C118673   1.967  13.282   5.720  0.0225 -0.0747 -0.1647
 1168loPI    C218674   1.757  12.985   5.553 -0.0726 -0.0051 -0.1692
 1168loPI    C318675   1.725  13.358   5.411 -0.3166  0.0940  0.1354
 1168loPI   PO418676   1.964  13.298   5.940 -0.0676  0.1339  0.3841
 1168loPI   GL118677   2.166  13.442   6.251 -0.1534  0.0190 -0.2127
 1168loPI   GL218678   2.339  13.755   6.444  0.3526 -0.0322  0.1663
 1168loPI   C1A18679   1.881  13.335   6.658  0.2402  0.1943 -0.1379
 1168loPI   C2A18680   1.820  13.394   7.131  0.0524  0.4869  0.0511
 1168loPI   C3A18681   1.854  13.487   7.528 -0.0062  0.0682 -0.1271
 1168loPI   C4A18682   1.957  13.546   7.943  0.1514  0.0771  0.0169
 1168loPI   C5A18683   2.029  13.297   8.403  0.1398 -0.1011  0.2641
 1168loPI   C6A18684   2.074  12.846   8.583 -0.2892 -0.0706 -0.0433
 1168loPI   C1B18685   2.207  13.750   6.924 -0.0410  0.0728  0.0877
 1168loPI   C2B18686   2.313  13.553   7.304  0.0235 -0.0870  0.0543
 1168loPI   C3B18687   2.529  13.202   7.432  0.0565 -0.0937  0.1980
 1168loPI   C4B18688   2.713  13.049   7.707 -0.0027  0.2877  0.1907
 1169loPI    C118689  17.912   7.418   5.337  0.0815  0.3398  0.0915
 1169loPI    C218690  17.570   7.399   5.132 -0.0521  0.2958  0.3148
 1169loPI    C318691  17.868   7.146   5.047 -0.1603  0.1811  0.2730
 1169loPI   PO418692  17.886   7.408   5.635 -0.0933 -0.1586 -0.2861
 1169loPI   GL118693  18.050   7.461   6.011 -0.2664 -0.1828 -0.1930
 1169loPI   GL218694  17.929   7.130   6.046  0.1366 -0.0010 -0.2613
 1169loPI   C1A18695  18.214   7.474   6.381 -0.2977  0.3723 -0.1567
 1169loPI   C2A18696  18.179   7.360   6.816 -0.1615 -0.2691  0.0434
 1169loPI   C3A18697  18.085   7.329   7.209  0.0836  0.3658  0.0415
 1169loPI   C4A18698  18.008   7.274   7.619  0.0098 -0.1750  0.2641
 1169loPI   C5A18699  17.888   7.306   8.086  0.0638  0.0348  0.1472
 1169loPI   C6A18700  17.912   7.011   8.423 -0.3057  0.2426  0.0748
 1169loPI   C1B18701  17.917   7.051   6.469 -0.1440 -0.0437 -0.1432
 1169loPI   C2B18702  17.789   6.985   6.889  0.1071  0.3768  0.1729
 1169loPI   C3B18703  17.715   7.004   7.333 -0.2104  0.2273  0.2192
 1169loPI   C4B18704  17.645   6.984   7.750  0.1961  0.4421 -0.1386
 1170loPI    C118705   0.205  13.749   5.492  0.0543  0.1358 -0.0687
 1170loPI    C218706   0.394  13.513   5.230 -0.1530  0.0094 -0.1066
 1170loPI    C318707   0.043  13.677   5.133 -0.1868  0.0363  0.0580
 1170loPI   PO418708   0.137  13.661   5.684 -0.0670 -0.3055 -0.0442
 1170loPI   GL118709   0.297  13.602   6.185 -0.0540 -0.0876 -0.0545
 1170loPI   GL218710   0.090  13.919   6.153 -0.2110 -0.0281  0.3611
 1170loPI   C1A18711   0.400  13.850   6.532 -0.0609  0.0815 -0.1275
 1170loPI   C2A18712   0.370  13.991   6.953  0.0753  0.1545  0.0525
 1170loPI   C3A18713   0.294  13.942   7.386  0.5231 -0.0735 -0.1693
 1170loPI   C4A18714   0.299  14.113   7.850 -0.1686  0.1112 -0.2786
 1170loPI   C5A18715   0.281  14.309   8.029  0.1072  0.2453  0.1538
 1170loPI   C6A18716   0.157  14.472   8.274  0.0749  0.2719 -0.1938
 1170loPI   C1B18717  -0.100  14.047   6.439 -0.2018  0.0685 -0.2533
 1170loPI   C2B18718  -0.122  14.217   6.803 -0.2734  0.0757  0.0051
 1170loPI   C3B18719  -0.174  14.129   7.264  0.0005 -0.2150 -0.1649
 1170loPI   C4B18720  -0.163  14.218   7.617 -0.2760  0.0980  0.0477
 1171loPI    C118721  10.913   0.245   5.677 -0.0040  0.1303 -0.0793
 1171loPI    C218722  10.846   0.198   5.286 -0.1974 -0.1553 -0.0151
 1171loPI    C318723  10.708  -0.072   5.546 -0.1747  0.0950  0.2622
 1171loPI   PO418724  11.079   0.284   5.699 -0.1347 -0.0303 -0.0846
 1171loPI   GL118725  11.216   0.556   6.093 -0.0806 -0.0709 -0.0427
 1171loPI   GL218726  10.993   0.296   6.168 -0.0103 -0.0391 -0.1822
 1171loPI   C1A18727  11.427   0.679   6.546  0.0618  0.2389  0.0410
 1171loPI   C2A18728  11.411   0.752   7.083 -0.4893  0.0402  0.1152
 1171loPI   C3A18729  11.506   0.818   7.550  0.1229  0.1342 -0.0321
 1171loPI   C4A18730  11.413   0.733   7.977  0.2050  0.2735  0.2635
 1171loPI   C5A18731  11.202   0.672   8.289  0.3506  0.0061  0.0369
 1171loPI   C6A18732  10.790   0.715   8.318  0.1670 -0.0644  0.1863
 1171loPI   C1B18733  10.949   0.348   6.578  0.0862 -0.0223  0.0698
 1171loPI   C2B18734  11.019   0.409   7.040 -0.1319  0.2348 -0.2099
 1171loPI   C3B18735  11.077   0.425   7.421 -0.0010 -0.2071 -0.1122
 1171loPI   C4B18736  10.943   0.600   7.868  0.0057 -0.1213  0.1132
 1172loPI    C118737  15.022   9.486   5.274 -0.0334  0.0010 -0.0913
 1172loPI    C218738  14.934   9.750   4.987  0.0629  0.1001 -0.0305
 1172loPI    C318739  14.666   9.472   5.093 -0.0288  0.1564 -0.1133
 1172loPI   PO418740  15.155   9.626   5.442 -0.2860 -0.3302  0.1283
 1172loPI   GL118741  15.199   9.811   5.750 -0.0753  0.0508  0.1372
 1172loPI   GL218742  15.376   9.604   5.897  0.1169  0.2456  0.2179
 1172loPI   C1A18743  15.008   9.851   6.168 -0.2029 -0.1989 -0.2494
 1172loPI   C2A18744  14.954   9.893   6.623  0.2740  0.2346  0.0913
 1172loPI   C3A18745  14.956   9.964   7.057 -0.1263  0.1008  0.3588
 1172loPI   C4A18746  14.959  10.035   7.477  0.0556  0.1097 -0.4102
 1172loPI   C5A18747  14.960  10.112   7.959  0.0393  0.0011  0.2156
 1172loPI   C6A18748  15.247   9.876   8.288  0.1422  0.1288  0.0915
 1172loPI   C1B18749  15.406   9.690   6.399 -0.1549 -0.2984 -0.1926
 1172loPI   C2B18750  15.487   9.784   6.889  0.1685  0.0957  0.1206
 1172loPI   C3B18751  15.402   9.820   7.349  0.1460  0.1438 -0.0175
 1172loPI   C4B18752  15.422   9.820   7.702 -0.1283 -0.0748  0.3032
 1173loPI    C118753   3.521   5.114   5.399  0.1290 -0.0614 -0.1272
 1173loPI    C218754   3.660   5.160   5.027  0.3734  0.1683 -0.0102
 1173loPI    C318755   3.372   5.402   5.164  0.1946  0.0031 -0.0899
 1173loPI   PO418756   3.693   5.174   5.701  0.1732  0.0276  0.3526
 1173loPI   GL118757   4.088   5.121   5.993 -0.0743 -0.0243  0.2006
 1173loPI   GL218758   3.886   5.213   6.161 -0.0375  0.1344  0.2629
 1173loPI   C1A18759   4.396   5.032   6.372 -0.0026  0.2149 -0.0147
 1173loPI   C2A18760   4.405   4.915   6.758  0.0609 -0.0426  0.0229
 1173loPI   C3A18761   4.544   4.892   7.178 -0.1509 -0.0033 -0.2685
 1173loPI   C4A18762   4.558   4.985   7.502 -0.2880 -0.2609 -0.2719
 1173loPI   C5A18763   4.535   4.920   7.946  0.2178 -0.2727  0.2159
 1173loPI   C6A18764   4.753   4.716   8.288 -0.0248 -0.2083 -0.3432
 1173loPI   C1B18765   3.929   5.156   6.665  0.3162  0.0793 -0.0762
 1173loPI   C2B18766   3.967   5.133   7.062  0.1060  0.5285  0.0652
 1173loPI   C3B18767   4.038   5.142   7.486 -0.1521  0.2879 -0.4638
 1173loPI   C4B18768   4.156   5.212   7.808  0.3075 -0.1786  0.0977
 1174loPI    C118769  10.993  12.002   5.627 -0.2909 -0.0111  0.0581
 1174loPI    C218770  10.779  12.199   5.352  0.0462  0.1723 -0.0784
 1174loPI    C318771  11.147  12.069   5.264 -0.0173 -0.1698  0.1423
 1174loPI   PO418772  11.009  12.155   5.832  0.2242 -0.1107  0.1137
 1174loPI   GL118773  10.934  12.077   6.223  0.2213 -0.1508 -0.2146
 1174loPI   GL218774  10.706  12.201   6.225 -0.1197 -0.1453  0.0320
 1174loPI   C1A18775  11.020  12.115   6.720  0.0037 -0.0362  0.0587
 1174loPI   C2A18776  11.010  12.070   7.101  0.1283 -0.0942 -0.0915
 1174loPI   C3A18777  10.994  12.127   7.569  0.3017  0.0037  0.0931
 1174loPI   C4A18778  11.006  11.954   7.950  0.1688 -0.1925 -0.2700
 1174loPI   C5A18779  11.107  11.569   8.122 -0.2989 -0.3597 -0.0432
 1174loPI   C6A18780  11.386  11.317   8.411 -0.0782 -0.0686 -0.0735
 1174loPI   C1B18781  10.564  12.261   6.620  0.1957 -0.2829  0.0694
 1174loPI   C2B18782  10.431  12.266   7.009 -0.1289  0.0961  0.0137
 1174loPI   C3B18783  10.421  12.339   7.465  0.3874  0.0964 -0.1699
 1174loPI   C4B18784  10.352  12.264   7.982  0.2136  0.3400 -0.0732
 1175loPI    C118785   6.274  12.551   5.768 -0.0361  0.0612 -0.0160
 1175loPI    C218786   6.222  12.833   5.490 -0.0637 -0.0699 -0.1451
 1175loPI    C318787   6.276  12.452   5.380  0.0378 -0.1057  0.0259
 1175loPI   PO418788   6.141  12.653   5.950  0.0017 -0.1651  0.1441
 1175loPI   GL118789   6.095  12.776   6.294  0.0552 -0.3739  0.1378
 1175loPI   GL218790   5.941  12.634   6.383 -0.0476 -0.4216 -0.0590
 1175loPI   C1A18791   6.260  12.855   6.657 -0.0779 -0.2322 -0.3778
 1175loPI   C2A18792   6.345  12.987   7.060  0.0084  0.0137  0.4333
 1175loPI   C3A18793   6.304  12.890   7.550  0.0254  0.1782 -0.0397
 1175loPI   C4A18794   6.325  12.956   7.892  0.0052 -0.0842  0.1073
 1175loPI   C5A18795   6.224  12.713   8.274  0.0580  0.2507  0.1064
 1175loPI   C6A18796   6.184  12.744   8.709  0.0715  0.1286  0.1272
 1175loPI   C1B18797   5.839  12.560   6.744  0.3518  0.2830  0.3773
 1175loPI   C2B18798   5.883  12.506   7.137  0.1995  0.1769 -0.3737
 1175loPI   C3B18799   5.856  12.608   7.669 -0.1276  0.0826  0.3333
 1175loPI   C4B18800   5.841  12.785   8.007  0.0248  0.0141  0.2594
 1176loPI    C118801  13.783  14.641   5.744 -0.0564  0.1291 -0.2216
 1176loPI    C218802  13.476  14.392   5.689 -0.0575  0.1060 -0.1131
 1176loPI    C318803  13.796  14.369   5.451  0.0889 -0.2285  0.1089
 1176loPI   PO418804  13.920  14.668   5.993  0.1824  0.0975 -0.2546
 1176loPI   GL118805  14.008  14.839   6.279  0.0685 -0.2752  0.3151
 1176loPI   GL218806  13.742  14.878   6.588 -0.1345  0.2211 -0.0200
 1176loPI   C1A18807  14.173  15.095   6.548  0.0388  0.2714  0.1827
 1176loPI   C2A18808  14.188  15.176   6.978  0.0886 -0.1925  0.2772
 1176loPI   C3A18809  14.099  15.177   7.395 -0.1906  0.0347  0.3627
 1176loPI   C4A18810  14.169  15.211   7.905  0.3305  0.3531 -0.1305
 1176loPI   C5A18811  13.945  15.562   8.146 -0.1186 -0.3204 -0.3141
 1176loPI   C6A18812  13.916  15.610   8.532 -0.2192  0.1195 -0.0210
 1176loPI   C1B18813  13.788  14.868   7.032 -0.2457 -0.2750 -0.2142
 1176loPI   C2B18814  13.791  14.865   7.558 -0.1440  0.0879 -0.3480
 1176loPI   C3B18815  13.759  14.905   8.090 -0.1440  0.0052 -0.1509
 1176loPI   C4B18816  13.651  15.119   8.550  0.0445 -0.0591  0.3821
 1177loPI    C118817   2.059   4.671   5.764 -0.0093  0.0086  0.0247
 1177loPI    C218818   2.330   4.926   5.618  0.0256  0.0073  0.0868
 1177loPI    C318819   2.230   4.600   5.410  0.0047  0.0549  0.0220
 1177loPI   PO418820   2.106   4.752   6.044  0.1205  0.0666 -0.3004
 1177loPI   GL118821   2.273   4.743   6.355 -0.0611 -0.1416 -0.2530
 1177loPI   GL218822   2.279   4.369   6.340 -0.1179  0.1860 -0.0296
 1177loPI   C1A18823   2.262   5.003   6.754  0.2345  0.0090  0.2342
 1177loPI   C2A18824   2.149   4.965   7.130  0.2176 -0.3563  0.0473
 1177loPI   C3A18825   2.224   4.920   7.486  0.3614 -0.0049 -0.0413
 1177loPI   C4A18826   2.140   4.970   7.882  0.0557  0.1688  0.0782
 1177loPI   C5A18827   2.038   4.918   8.314 -0.2208  0.0466  0.1928
 1177loPI   C6A18828   1.916   4.786   8.743  0.0161  0.3377 -0.2354
 1177loPI   C1B18829   2.264   4.448   6.782  0.3155 -0.0011  0.2625
 1177loPI   C2B18830   2.279   4.437   7.222 -0.1083 -0.1388 -0.2235
 1177loPI   C3B18831   2.249   4.466   7.635  0.1325  0.2332 -0.1262
 1177loPI   C4B18832   2.175   4.463   8.109 -0.2936  0.0239  0.1508
 1178loPI    C118833   3.621   2.133   5.594 -0.0580 -0.0724  0.1462
 1178loPI    C218834   3.657   1.823   5.344  0.1248 -0.0450  0.1371
 1178loPI    C318835   3.601   2.192   5.199 -0.0749 -0.0701  0.1475
 1178loPI   PO418836   3.689   2.078   5.742  0.1665  0.0896 -0.0905
 1178loPI   GL118837   3.652   1.711   5.965  0.0855 -0.2600  0.0885
 1178loPI   GL218838   3.565   1.917   6.204 -0.2335  0.0631 -0.1024
 1178loPI   C1A18839   3.961   1.727   6.354  0.1935 -0.1746  0.1293
 1178loPI   C2A18840   4.012   1.818   6.806 -0.1384  0.3224  0.3681
 1178loPI   C3A18841   3.899   1.812   7.199 -0.1723 -0.0479  0.2239
 1178loPI   C4A18842   4.016   1.810   7.584 -0.2499 -0.0084 -0.0691
 1178loPI   C5A18843   4.061   1.811   8.064  0.1977 -0.0344 -0.1047
 1178loPI   C6A18844   3.971   2.021   8.461  0.0172  0.0134 -0.0914
 1178loPI   C1B18845   3.482   1.939   6.639  0.0770  0.2515  0.2888
 1178loPI   C2B18846   3.469   1.998   7.084  0.1059 -0.0692  0.2073
 1178loPI   C3B18847   3.535   1.976   7.554  0.0093  0.0106 -0.0660
 1178loPI   C4B18848   3.638   1.998   8.012  0.0882  0.1864  0.0937
 1179loPI    C118849  11.356  12.815   5.325  0.0031 -0.0806 -0.1175
 1179loPI    C218850  11.123  12.566   5.117 -0.2524 -0.0520  0.1298
 1179loPI    C318851  11.030  12.954   5.141 -0.1865 -0.0424  0.2385
 1179loPI   PO418852  11.403  12.642   5.558 -0.0154 -0.1148  0.1346
 1179loPI   GL118853  11.198  12.624   5.894  0.0898  0.0008 -0.1495
 1179loPI   GL218854  11.402  12.422   6.105  0.1164 -0.0587  0.2271
 1179loPI   C1A18855  11.275  12.898   6.256 -0.0911  0.3217 -0.0570
 1179loPI   C2A18856  11.254  12.899   6.644  0.3428  0.0889 -0.2020
 1179loPI   C3A18857  11.279  12.920   7.110  0.1123 -0.0684  0.0457
 1179loPI   C4A18858  11.282  12.905   7.639  0.5879 -0.0683 -0.1630
 1179loPI   C5A18859  11.405  12.945   8.086  0.1600  0.2381 -0.1016
 1179loPI   C6A18860  11.800  13.228   8.228 -0.2969 -0.2047 -0.1947
 1179loPI   C1B18861  11.415  12.357   6.537 -0.4114 -0.0952 -0.0499
 1179loPI   C2B18862  11.407  12.425   6.935 -0.1032 -0.1657  0.1135
 1179loPI   C3B18863  11.372  12.404   7.425 -0.0773  0.5755 -0.0626
 1179loPI   C4B18864  11.291  12.398   7.822  0.0410 -0.0810  0.0124
 1180loPI    C118865  14.769   8.475   5.362  0.3413 -0.0295  0.3201
 1180loPI    C218866  14.555   8.611   5.053  0.4777  0.2525  0.3466
 1180loPI    C318867  14.845   8.343   4.992  0.2962  0.0702  0.2747
 1180loPI   PO418868  14.658   8.370   5.528  0.1479 -0.1914  0.3518
 1180loPI   GL118869  14.710   8.225   5.931 -0.7047 -0.1094  0.0617
 1180loPI   GL218870  14.644   8.470   6.020 -0.1570 -0.3013  0.2372
 1180loPI   C1A18871  14.710   8.024   6.334  0.1644  0.1937 -0.0612
 1180loPI   C2A18872  14.769   8.046   6.721 -0.1308 -0.2011  0.0103
 1180loPI   C3A18873  14.777   8.227   7.156  0.0358 -0.1962  0.2602
 1180loPI   C4A18874  14.728   8.103   7.530 -0.0422  0.1262  0.0595
 1180loPI   C5A18875  14.807   8.153   7.932 -0.0626 -0.1004 -0.1297
 1180loPI   C6A18876  14.642   8.537   8.206 -0.0188  0.1137 -0.0170
 1180loPI   C1B18877  14.577   8.560   6.447  0.0950  0.2236 -0.4273
 1180loPI   C2B18878  14.654   8.656   6.923 -0.2031  0.1915 -0.0801
 1180loPI   C3B18879  14.663   8.660   7.396 -0.0693  0.0586 -0.1175
 1180loPI   C4B18880  14.677   8.797   7.767  0.1531  0.2792  0.1894
 1181loPI    C118881   1.601  12.527   5.730 -0.2955 -0.2208 -0.1028
 1181loPI    C218882   1.691  12.208   5.506  0.1090  0.0066 -0.2736
 1181loPI    C318883   1.551  12.540   5.334 -0.0366  0.0208 -0.1303
 1181loPI   PO418884   1.791  12.430   5.969 -0.1340  0.0131 -0.2088
 1181loPI   GL118885   1.630  12.331   6.424  0.2312 -0.0966  0.0961
 1181loPI   GL218886   1.370  12.675   6.382 -0.1019  0.0172 -0.0593
 1181loPI   C1A18887   1.335  12.326   6.724 -0.1711  0.0956  0.1026
 1181loPI   C2A18888   1.188  12.219   7.079 -0.2962 -0.1450 -0.3245
 1181loPI   C3A18889   1.126  12.225   7.471 -0.4338 -0.2058 -0.2485
 1181loPI   C4A18890   1.241  12.144   7.798  0.3605  0.1585 -0.0012
 1181loPI   C5A18891   1.614  12.223   8.131  0.1182 -0.0865  0.3643
 1181loPI   C6A18892   2.022  12.232   8.358  0.0222 -0.0746 -0.4367
 1181loPI   C1B18893   1.458  12.894   6.798 -0.0626 -0.1424 -0.1882
 1181loPI   C2B18894   1.378  13.008   7.123 -0.0770 -0.2414 -0.1286
 1181loPI   C3B18895   1.500  13.107   7.500  0.0325 -0.0755  0.3602
 1181loPI   C4B18896   1.697  13.080   7.918  0.1004 -0.1511 -0.3518
 1182loPI    C118897   5.923   6.552   5.323  0.1680  0.1186  0.0994
 1182loPI    C218898   6.040   6.347   5.000  0.2109  0.1847  0.0728
 1182loPI    C318899   5.851   6.697   4.957 -0.0216  0.0663  0.1146
 1182loPI   PO418900   6.073   6.440   5.549 -0.0185 -0.0918  0.0926
 1182loPI   GL118901   6.425   6.363   5.881  0.2035 -0.2256  0.0205
 1182loPI   GL218902   6.454   6.667   6.044 -0.2131  0.1356  0.2213
 1182loPI   C1A18903   6.467   6.115   6.203  0.3790 -0.0552  0.3797
 1182loPI   C2A18904   6.559   6.038   6.619 -0.2229  0.1089  0.1562
 1182loPI   C3A18905   6.561   6.043   7.057 -0.3706 -0.1575 -0.1055
 1182loPI   C4A18906   6.619   6.128   7.508  0.4112  0.0039  0.2296
 1182loPI   C5A18907   6.506   6.221   7.996  0.1133 -0.0085 -0.0216
 1182loPI   C6A18908   6.171   6.092   8.199  0.0745  0.0156  0.1568
 1182loPI   C1B18909   6.575   6.599   6.410 -0.2185 -0.3162 -0.1595
 1182loPI   C2B18910   6.571   6.567   6.795  0.3541  0.3407  0.1846
 1182loPI   C3B18911   6.564   6.541   7.209  0.1865  0.0743 -0.1365
 1182loPI   C4B18912   6.509   6.684   7.666  0.1741 -0.2046 -0.1424
 1183loPI    C118913   4.125  17.095   5.232  0.0732 -0.2683  0.0217
 1183loPI    C218914   4.372  17.396   5.143 -0.2519  0.0207  0.0734
 1183loPI    C318915   4.249  17.146   4.856  0.0829 -0.1167  0.0449
 1183loPI   PO418916   4.021  17.115   5.533 -0.2387  0.0877 -0.0195
 1183loPI   GL118917   4.103  17.087   5.826 -0.1676  0.0713  0.0546
 1183loPI   GL218918   4.319  17.296   6.025  0.2567 -0.0305  0.0415
 1183loPI   C1A18919   3.843  17.381   6.114  0.1610  0.0808 -0.0571
 1183loPI   C2A18920   3.930  17.400   6.549  0.0928 -0.0098  0.0330
 1183loPI   C3A18921   3.916  17.430   6.933  0.2179 -0.0229 -0.1083
 1183loPI   C4A18922   3.891  17.367   7.410  0.0918 -0.0180  0.0413
 1183loPI   C5A18923   3.870  17.349   7.908  0.1434 -0.0455  0.1340
 1183loPI   C6A18924   3.784  17.578   8.112 -0.2778  0.0086 -0.3859
 1183loPI   C1B18925   4.392  17.194   6.361  0.3082  0.0261 -0.0343
 1183loPI   C2B18926   4.361  17.240   6.756 -0.1079  0.0461 -0.0398
 1183loPI   C3B18927   4.373  17.150   7.144  0.0098  0.3879 -0.1777
 1183loPI   C4B18928   4.340  17.169   7.619  0.0467 -0.1642 -0.3478
 1184loPI    C118929  13.928  17.844   5.195 -0.0995  0.0920  0.1237
 1184loPI    C218930  13.781  17.919   4.830 -0.0257  0.2402  0.1234
 1184loPI    C318931  14.174  17.946   4.897 -0.0050 -0.0748  0.1440
 1184loPI   PO418932  13.776  17.845   5.399  0.0716  0.2459  0.1253
 1184loPI   GL118933  13.573  18.074   5.763 -0.1298  0.0291 -0.1983
 1184loPI   GL218934  13.369  18.078   5.861  0.4004 -0.0679 -0.1116
 1184loPI   C1A18935  13.793  18.159   6.054 -0.0703 -0.1346 -0.1346
 1184loPI   C2A18936  13.705  18.186   6.500  0.3281 -0.2016 -0.0818
 1184loPI   C3A18937  13.726  18.203   6.918  0.0684  0.4003  0.3241
 1184loPI   C4A18938  13.645  18.234   7.272 -0.2399  0.2522  0.1498
 1184loPI   C5A18939  13.686  18.231   7.678 -0.0179  0.0236 -0.2221
 1184loPI   C6A18940  13.458  18.199   8.159  0.1150 -0.0857 -0.1998
 1184loPI   C1B18941  13.313  17.856   6.246  0.3907  0.0720  0.1325
 1184loPI   C2B18942  13.310  17.867   6.623 -0.0653 -0.0473 -0.2309
 1184loPI   C3B18943  13.278  17.939   7.092 -0.3421 -0.0408 -0.3065
 1184loPI   C4B18944  13.294  17.891   7.473 -0.2594 -0.1392 -0.0539
 1185loPI    C118945   0.891   3.781   5.441 -0.1020 -0.1704 -0.2552
 1185loPI    C218946   0.872   3.395   5.545  0.0190 -0.1315 -0.0855
 1185loPI    C318947   0.804   3.503   5.166 -0.2042 -0.2986 -0.0953
 1185loPI   PO418948   0.720   3.939   5.679  0.3592  0.0849 -0.1603
 1185loPI   GL118949   0.730   3.853   6.140 -0.0089  0.1890 -0.1550
 1185loPI   GL218950   0.967   4.019   6.254 -0.1766  0.1696  0.0508
 1185loPI   C1A18951   0.441   4.093   6.374 -0.3547  0.1259 -0.1220
 1185loPI   C2A18952   0.432   4.211   6.846  0.1312  0.0989 -0.0438
 1185loPI   C3A18953   0.550   4.177   7.243  0.0360  0.0585 -0.0255
 1185loPI   C4A18954   0.463   4.172   7.753  0.1716  0.0020 -0.0014
 1185loPI   C5A18955   0.605   4.046   8.147  0.0349 -0.5137  0.2674
 1185loPI   C6A18956   0.444   3.819   8.574 -0.2598 -0.0036 -0.0441
 1185loPI   C1B18957   0.830   4.033   6.636 -0.2973  0.1128  0.3825
 1185loPI   C2B18958   1.004   4.038   7.025  0.0142 -0.0829 -0.1355
 1185loPI   C3B18959   1.033   4.030   7.454 -0.2823  0.1214  0.0196
 1185loPI   C4B18960   1.046   3.990   7.919 -0.0800 -0.0563 -0.0443
 1186loPI    C118961  17.710  10.324   5.475 -0.0703 -0.1711 -0.0494
 1186loPI    C218962  17.570  10.121   5.161 -0.1410 -0.0078 -0.1247
 1186loPI    C318963  17.586  10.520   5.149 -0.0858 -0.0040  0.0560
 1186loPI   PO418964  17.883  10.081   5.557  0.1566 -0.3350  0.5069
 1186loPI   GL118965  17.788  10.070   5.986  0.0592 -0.1940  0.0860
 1186loPI   GL218966  17.683  10.382   6.112  0.1144  0.1136 -0.0044
 1186loPI   C1A18967  18.050  10.070   6.246 -0.1049  0.3875  0.0213
 1186loPI   C2A18968  18.107  10.257   6.630 -0.0401  0.1957 -0.0473
 1186loPI   C3A18969  18.029  10.116   7.074 -0.2441  0.2941 -0.2342
 1186loPI   C4A18970  18.003  10.195   7.555  0.0173 -0.0018  0.1703
 1186loPI   C5A18971  18.235  10.340   8.007  0.0980  0.1049  0.1024
 1186loPI   C6A18972  18.335  10.240   8.513  0.0476 -0.3556  0.3068
 1186loPI   C1B18973  17.657  10.408   6.455 -0.2034  0.0080 -0.0293
 1186loPI   C2B18974  17.627  10.376   6.836 -0.0590 -0.2802 -0.1079
 1186loPI   C3B18975  17.577  10.365   7.238 -0.0375  0.1565  0.2069
 1186loPI   C4B18976  17.597  10.450   7.623 -0.3174  0.0288 -0.1942
 1187loPI    C118977   1.139  12.813   5.963 -0.0318  0.1607  0.0446
 1187loPI    C218978   1.144  12.601   5.623  0.0306  0.0815  0.0947
 1187loPI    C318979   1.226  12.992   5.616 -0.1166  0.1110 -0.0026
 1187loPI   PO418980   0.910  12.750   6.073 -0.2494 -0.3534  0.0852
 1187loPI   GL118981   0.547  12.871   6.391 -0.0241  0.0288  0.1623
 1187loPI   GL218982   0.469  13.168   6.347 -0.1027  0.0082  0.0015
 1187loPI   C1A18983   0.515  12.815   6.833  0.1424  0.0623 -0.0480
 1187loPI   C2A18984   0.522  12.996   7.212 -0.2765  0.0463 -0.0023
 1187loPI   C3A18985   0.633  12.955   7.622  0.0810  0.1952 -0.5277
 1187loPI   C4A18986   0.436  12.792   7.957 -0.1777  0.3475  0.1777
 1187loPI   C5A18987   0.308  12.899   8.307  0.0786  0.0602  0.1785
 1187loPI   C6A18988   0.439  12.870   8.788  0.1328 -0.0473  0.0660
 1187loPI   C1B18989   0.542  13.362   6.682  0.1226  0.1076  0.1597
 1187loPI   C2B18990   0.502  13.481   7.063 -0.1684 -0.0405 -0.0746
 1187loPI   C3B18991   0.374  13.433   7.453  0.0429 -0.0677  0.0021
 1187loPI   C4B18992   0.401  13.528   7.862  0.1014 -0.2098 -0.0371
 1188loPI    C118993   7.642   4.616   5.214  0.0737 -0.0544 -0.1173
 1188loPI    C218994   8.011   4.625   5.059  0.1646  0.0084  0.0989
 1188loPI    C318995   7.748   4.349   4.936  0.1322  0.2479 -0.3917
 1188loPI   PO418996   7.663   4.602   5.463  0.0029 -0.0102  0.2025
 1188loPI   GL118997   7.899   4.612   5.825  0.3398  0.1105 -0.2782
 1188loPI   GL218998   8.102   4.444   5.993  0.2407 -0.0481 -0.2301
 1188loPI   C1A18999   7.635   4.689   6.259 -0.0445  0.0146  0.1347
 1188loPI   C2A19000   7.673   4.674   6.676 -0.1518  0.2800 -0.0328
 1188loPI   C3A19001   7.711   4.555   7.049 -0.0463 -0.3335  0.1275
 1188loPI   C4A19002   7.717   4.656   7.464 -0.0021  0.2975 -0.1875
 1188loPI   C5A19003   7.675   4.752   7.893  0.1534  0.2432 -0.0920
 1188loPI   C6A19004   7.558   4.766   8.356  0.0298  0.2384  0.0060
 1188loPI   C1B19005   8.104   4.512   6.383 -0.1669 -0.2876 -0.0324
 1188loPI   C2B19006   8.109   4.434   6.652  0.2454  0.1567 -0.0401
 1188loPI   C3B19007   8.226   4.476   7.161  0.0372 -0.0600 -0.2479
 1188loPI   C4B19008   8.218   4.445   7.621 -0.1817 -0.0812  0.0543
 1189loPI    C119009   7.826   8.932   5.596 -0.0961  0.0482 -0.2472
 1189loPI    C219010   7.671   9.300   5.622 -0.2752 -0.0399 -0.0284
 1189loPI    C319011   7.581   9.067   5.310 -0.2819  0.0463 -0.0913
 1189loPI   PO419012   7.666   8.776   5.727  0.2032  0.1067  0.0468
 1189loPI   GL119013   7.834   8.554   6.089 -0.1957  0.1161 -0.1722
 1189loPI   GL219014   8.149   8.730   6.093 -0.0699 -0.1479 -0.1079
 1189loPI   C1A19015   8.019   8.306   6.452 -0.1443 -0.1486  0.0952
 1189loPI   C2A19016   8.072   8.329   6.809  0.1775 -0.0636  0.0770
 1189loPI   C3A19017   8.071   8.331   7.259  0.0278  0.0819 -0.1724
 1189loPI   C4A19018   8.036   8.434   7.747 -0.2505  0.0150  0.1100
 1189loPI   C5A19019   8.121   8.470   8.129 -0.1786 -0.2431 -0.0191
 1189loPI   C6A19020   8.332   8.251   8.523 -0.0449  0.0751 -0.1576
 1189loPI   C1B19021   8.374   8.654   6.430  0.0880 -0.1226 -0.1132
 1189loPI   C2B19022   8.382   8.699   6.924 -0.0974  0.0179 -0.1771
 1189loPI   C3B19023   8.318   8.800   7.399  0.3032 -0.1037  0.1097
 1189loPI   C4B19024   8.365   8.832   7.795 -0.2897 -0.0384 -0.0707
 1190loPI    C119025   1.383   3.793   5.497 -0.2216 -0.0342 -0.1569
 1190loPI    C219026   1.640   3.848   5.195  0.0322 -0.1258  0.0382
 1190loPI    C319027   1.296   3.654   5.132  0.1626 -0.2980 -0.1543
 1190loPI   PO419028   1.495   3.672   5.674  0.1069  0.0604  0.2469
 1190loPI   GL119029   1.587   3.651   6.093 -0.0833 -0.1131  0.1293
 1190loPI   GL219030   1.445   3.925   6.182  0.0277  0.2677  0.0362
 1190loPI   C1A19031   1.810   3.599   6.451  0.2972 -0.3160 -0.3821
 1190loPI   C2A19032   2.032   3.669   6.843  0.3216 -0.1021 -0.1274
 1190loPI   C3A19033   1.969   3.653   7.229  0.0058 -0.3310  0.0444
 1190loPI   C4A19034   1.945   3.534   7.640  0.5154  0.1931  0.0007
 1190loPI   C5A19035   2.000   3.485   8.057 -0.0868  0.1936  0.1065
 1190loPI   C6A19036   2.048   3.181   8.330  0.2754 -0.0384 -0.1801
 1190loPI   C1B19037   1.355   3.843   6.637 -0.0632 -0.0471 -0.1998
 1190loPI   C2B19038   1.520   3.796   6.991  0.0425 -0.0713 -0.0005
 1190loPI   C3B19039   1.558   3.875   7.440 -0.0222  0.1331 -0.3329
 1190loPI   C4B19040   1.472   3.704   7.883 -0.3181  0.1148 -0.0767
 1191loPI    C119041  14.640  18.019   5.222  0.0568  0.1084 -0.1015
 1191loPI    C219042  14.918  17.845   4.993  0.1181 -0.0329  0.0779
 1191loPI    C319043  14.559  17.674   5.037 -0.0309  0.1931 -0.2230
 1191loPI   PO419044  14.715  18.075   5.449  0.0449  0.4031 -0.3310
 1191loPI   GL119045  14.903  17.942   5.849 -0.0605 -0.1427  0.0185
 1191loPI   GL219046  15.263  17.800   5.869  0.2332 -0.3679 -0.0175
 1191loPI   C1A19047  14.713  17.876   6.166 -0.0342  0.0611 -0.1295
 1191loPI   C2A19048  14.736  17.920   6.575  0.2629 -0.1939  0.0094
 1191loPI   C3A19049  14.644  17.951   6.993  0.2188 -0.2903  0.1863
 1191loPI   C4A19050  14.617  17.963   7.323 -0.1416  0.0320 -0.0997
 1191loPI   C5A19051  14.612  18.015   7.730  0.0927  0.3096 -0.0748
 1191loPI   C6A19052  14.316  18.155   8.072 -0.1358 -0.0882 -0.6503
 1191loPI   C1B19053  15.188  17.709   6.330 -0.1072 -0.0183 -0.0890
 1191loPI   C2B19054  15.187  17.720   6.801 -0.0294  0.1356  0.0754
 1191loPI   C3B19055  15.065  17.808   7.151 -0.0161 -0.2563 -0.2438
 1191loPI   C4B19056  15.095  17.719   7.631 -0.4440  0.0139  0.0489
 1192loPI    C119057   5.730  11.394   5.730  0.1176 -0.1031  0.1246
 1192loPI    C219058   5.330  11.403   5.713  0.1201  0.0092  0.1189
 1192loPI    C319059   5.544  11.704   5.559  0.2039 -0.0005  0.2150
 1192loPI   PO419060   5.855  11.325   5.987 -0.1564  0.1316 -0.4270
 1192loPI   GL119061   5.837  11.213   6.370 -0.1182  0.3643 -0.0155
 1192loPI   GL219062   6.064  11.067   6.405 -0.5014  0.1784 -0.4015
 1192loPI   C1A19063   5.954  11.488   6.711 -0.2497 -0.0181  0.2044
 1192loPI   C2A19064   6.025  11.578   7.107  0.1686  0.1765 -0.1507
 1192loPI   C3A19065   5.817  11.507   7.488 -0.2281  0.2230 -0.0098
 1192loPI   C4A19066   5.578  11.794   7.724 -0.0642 -0.2131  0.1726
 1192loPI   C5A19067   5.252  11.895   7.999 -0.1216 -0.2191 -0.1735
 1192loPI   C6A19068   5.370  11.967   8.455  0.1448  0.2054  0.0626
 1192loPI   C1B19069   6.170  11.082   6.857  0.0244 -0.0448 -0.0588
 1192loPI   C2B19070   6.120  11.133   7.333  0.1397 -0.1366  0.1618
 1192loPI   C3B19071   6.072  11.135   7.709 -0.2931 -0.2187  0.0706
 1192loPI   C4B19072   5.703  11.389   8.095  0.1421 -0.4337  0.0530
 1193loPI    C119073   6.831  12.640   5.706 -0.2822  0.0426 -0.0047
 1193loPI    C219074   6.852  12.361   5.420  0.0142  0.1616 -0.1032
 1193loPI    C319075   6.682  12.715   5.342 -0.1029  0.1144 -0.0645
 1193loPI   PO419076   6.758  12.528   5.916  0.1328  0.0086  0.1161
 1193loPI   GL119077   6.629  12.767   6.276 -0.0699  0.0036  0.1874
 1193loPI   GL219078   6.529  13.070   6.288 -0.1580  0.1729  0.2662
 1193loPI   C1A19079   6.791  12.636   6.589  0.0568  0.1791  0.1060
 1193loPI   C2A19080   6.824  12.728   6.960  0.0216 -0.1638  0.1718
 1193loPI   C3A19081   6.773  12.687   7.351  0.0474  0.0695 -0.1904
 1193loPI   C4A19082   6.823  12.848   7.750  0.5192 -0.0517 -0.2566
 1193loPI   C5A19083   6.764  12.996   8.148 -0.0458 -0.1751  0.2266
 1193loPI   C6A19084   6.789  13.141   8.621 -0.0647 -0.0871 -0.2885
 1193loPI   C1B19085   6.642  13.236   6.718  0.0033  0.2346  0.1995
 1193loPI   C2B19086   6.817  13.208   7.066  0.0340  0.0922 -0.0571
 1193loPI   C3B19087   6.777  13.233   7.413  0.0659 -0.2164 -0.0173
 1193loPI   C4B19088   6.837  13.355   7.871 -0.0479 -0.0477  0.2550
 1194loPI    C119089   9.109  17.309   5.369 -0.2868  0.2480  0.1465
 1194loPI    C219090   8.740  17.345   5.219 -0.1826  0.0589 -0.1637
 1194loPI    C319091   9.058  17.421   4.988 -0.0191 -0.2159 -0.0341
 1194loPI   PO419092   9.063  17.317   5.562 -0.0673 -0.0864 -0.0775
 1194loPI   GL119093   9.064  17.542   5.957  0.1122  0.1826 -0.2254
 1194loPI   GL219094   8.903  17.200   6.060  0.0455  0.1440  0.0806
 1194loPI   C1A19095   9.167  17.620   6.389 -0.1851 -0.0681 -0.2088
 1194loPI   C2A19096   9.261  17.529   6.764  0.0349 -0.1901 -0.3830
 1194loPI   C3A19097   9.245  17.671   7.263  0.0316  0.3823 -0.0953
 1194loPI   C4A19098   9.324  17.606   7.704 -0.0630  0.0857  0.1418
 1194loPI   C5A19099   9.364  17.586   8.156 -0.2359 -0.1474  0.1246
 1194loPI   C6A19100   9.174  17.264   8.469 -0.1605  0.0214 -0.1146
 1194loPI   C1B19101   8.828  17.204   6.605  0.1074  0.2680 -0.0534
 1194loPI   C2B19102   9.003  17.228   7.092 -0.0145 -0.0550 -0.4369
 1194loPI   C3B19103   8.892  17.329   7.530 -0.5580  0.1020  0.0211
 1194loPI   C4B19104   9.004  17.282   7.944  0.1012  0.0026 -0.0732
 1195loPI    C119105  14.509   7.659   5.435  0.1734  0.0328  0.1843
 1195loPI    C219106  14.594   7.969   5.196  0.0999 -0.1496 -0.0831
 1195loPI    C319107  14.732   7.604   5.107  0.0420 -0.2264  0.1355
 1195loPI   PO419108  14.268   7.584   5.408 -0.0582 -0.0429 -0.0336
 1195loPI   GL119109  13.971   7.536   5.770 -0.0393  0.1103 -0.0656
 1195loPI   GL219110  13.907   7.810   5.915 -0.0785 -0.0065 -0.2250
 1195loPI   C1A19111  14.072   7.362   6.104 -0.0107  0.0459 -0.2511
 1195loPI   C2A19112  13.900   7.453   6.579  0.0077  0.0404  0.1968
 1195loPI   C3A19113  13.980   7.547   7.014 -0.2276 -0.1016 -0.1390
 1195loPI   C4A19114  13.946   7.589   7.459  0.0665  0.1213  0.0099
 1195loPI   C5A19115  13.919   7.484   7.869  0.1483 -0.3233  0.0594
 1195loPI   C6A19116  14.299   7.647   8.094  0.2652 -0.3185 -0.0103
 1195loPI   C1B19117  13.811   7.885   6.377  0.2895 -0.0420 -0.3819
 1195loPI   C2B19118  13.895   8.018   6.768 -0.0751 -0.1334  0.1668
 1195loPI   C3B19119  13.867   8.084   7.240  0.3595 -0.1008  0.0693
 1195loPI   C4B19120  13.855   8.058   7.657 -0.2908  0.3429 -0.1752
 1196loPI    C119121   1.083   7.923   5.535  0.0124  0.0139 -0.0353
 1196loPI    C219122   0.862   7.599   5.456 -0.0280  0.0394 -0.0267
 1196loPI    C319123   1.228   7.635   5.298  0.1698 -0.2341  0.3518
 1196loPI   PO419124   0.951   7.964   5.794 -0.0814 -0.1099  0.0084
 1196loPI   GL119125   0.991   8.068   6.227 -0.1031  0.1158 -0.0991
 1196loPI   GL219126   1.156   8.042   6.395 -0.0544 -0.0838 -0.0025
 1196loPI   C1A19127   0.627   8.140   6.487  0.1555 -0.0337 -0.0016
 1196loPI   C2A19128   0.484   8.201   6.922  0.3394  0.2480 -0.0515
 1196loPI   C3A19129   0.403   8.123   7.345 -0.1446  0.0034 -0.0775
 1196loPI   C4A19130   0.405   8.103   7.784 -0.1273 -0.0456  0.0857
 1196loPI   C5A19131   0.411   8.227   8.246  0.2854 -0.0255 -0.0090
 1196loPI   C6A19132   0.383   8.144   8.675 -0.0550 -0.1948  0.1432
 1196loPI   C1B19133   0.973   8.021   6.835 -0.0762  0.3311 -0.2624
 1196loPI   C2B19134   0.878   7.984   7.169  0.0240 -0.0631 -0.2125
 1196loPI   C3B19135   0.834   7.910   7.591 -0.1294 -0.1446 -0.1705
 1196loPI   C4B19136   0.822   7.856   8.036  0.0654 -0.3841 -0.0734
 1197loPI    C119137   9.936  11.111   5.582  0.0441  0.0052  0.0202
 1197loPI    C219138   9.671  11.302   5.351  0.0944  0.1856  0.1094
 1197loPI    C319139   9.985  11.118   5.185  0.0310  0.1568  0.0206
 1197loPI   PO419140   9.818  11.045   5.792  0.0096 -0.0083  0.0572
 1197loPI   GL119141   9.839  11.141   6.130  0.1406 -0.0812  0.1523
 1197loPI   GL219142   9.739  11.497   6.317 -0.1445  0.0932  0.1141
 1197loPI   C1A19143   9.876  11.061   6.519 -0.1228 -0.2824 -0.1854
 1197loPI   C2A19144   9.776  11.163   6.972 -0.0593  0.2336  0.0658
 1197loPI   C3A19145   9.791  11.096   7.426 -0.0403 -0.1060 -0.0519
 1197loPI   C4A19146   9.710  11.198   7.878  0.0549  0.2159  0.0271
 1197loPI   C5A19147   9.776  11.194   8.322  0.0542  0.2822  0.0192
 1197loPI   C6A19148   9.609  11.388   8.628 -0.0169 -0.1001  0.0263
 1197loPI   C1B19149   9.834  11.610   6.761 -0.0919 -0.2865 -0.2371
 1197loPI   C2B19150   9.780  11.629   7.216 -0.0953  0.1597 -0.0647
 1197loPI   C3B19151   9.765  11.598   7.623  0.4963 -0.1424 -0.4118
 1197loPI   C4B19152   9.695  11.631   8.113  0.0509 -0.0988 -0.4334
 1198loPI    C119153  14.258   4.293   4.920 -0.1912 -0.0126 -0.1540
 1198loPI    C219154  14.299   4.661   4.766 -0.0735 -0.0177 -0.1356
 1198loPI    C319155  14.383   4.340   4.542  0.1230 -0.0245 -0.0543
 1198loPI   PO419156  14.124   4.328   5.128  0.2967  0.2259  0.0414
 1198loPI   GL119157  14.081   4.294   5.654 -0.0302  0.1774  0.1188
 1198loPI   GL219158  13.913   4.499   5.660  0.0106  0.2634  0.0202
 1198loPI   C1A19159  14.329   4.278   6.030 -0.1579  0.0005 -0.2959
 1198loPI   C2A19160  14.475   4.394   6.380  0.4067  0.3268  0.0900
 1198loPI   C3A19161  14.516   4.343   6.855  0.1357 -0.1094  0.0711
 1198loPI   C4A19162  14.519   4.380   7.294 -0.3636 -0.1554 -0.2472
 1198loPI   C5A19163  14.555   4.293   7.763 -0.2260 -0.0484 -0.2703
 1198loPI   C6A19164  14.332   4.277   8.137  0.0215 -0.3673  0.4994
 1198loPI   C1B19165  13.836   4.481   6.067 -0.1651  0.0310 -0.0223
 1198loPI   C2B19166  13.941   4.493   6.518 -0.0239  0.3057  0.0862
 1198loPI   C3B19167  14.070   4.602   6.925 -0.0736 -0.0433  0.0019
 1198loPI   C4B19168  13.953   4.548   7.391  0.1152  0.1250  0.2659
 1199loPI    C119169  12.552  14.743   5.445  0.0430  0.1175 -0.0540
 1199loPI    C219170  12.489  14.751   5.050 -0.1326  0.2248 -0.0247
 1199loPI    C319171  12.728  14.472   5.208 -0.2830  0.0065 -0.1754
 1199loPI   PO419172  12.378  14.701   5.537  0.0892 -0.2833  0.0134
 1199loPI   GL119173  12.053  14.729   5.800  0.3365 -0.0525  0.1451
 1199loPI   GL219174  11.752  14.725   5.871 -0.2182  0.3513  0.0725
 1199loPI   C1A19175  12.263  14.842   6.197  0.3012 -0.1008  0.2334
 1199loPI   C2A19176  12.381  14.925   6.603 -0.0463 -0.2219 -0.0704
 1199loPI   C3A19177  12.360  14.836   7.135  0.0530 -0.2209  0.0122
 1199loPI   C4A19178  12.385  14.981   7.514 -0.1651  0.0763  0.0844
 1199loPI   C5A19179  12.381  14.905   7.916  0.0281 -0.2166 -0.0492
 1199loPI   C6A19180  12.209  14.871   8.332 -0.0744 -0.2036 -0.0665
 1199loPI   C1B19181  11.821  14.648   6.469  0.2524  0.1251  0.0003
 1199loPI   C2B19182  12.042  14.617   6.813 -0.0661  0.1822  0.1305
 1199loPI   C3B19183  11.941  14.536   7.320 -0.2362 -0.0112  0.0944
 1199loPI   C4B19184  11.977  14.591   7.774  0.0854  0.0185  0.4102
 1200loPI    C119185  10.625   1.891   5.299 -0.0262 -0.1652 -0.2662
 1200loPI    C219186  10.444   1.788   4.957 -0.1998  0.1935 -0.2867
 1200loPI    C319187  10.793   1.983   4.948 -0.1278  0.0679 -0.2550
 1200loPI   PO419188  10.385   1.904   5.476 -0.0267  0.1256  0.2969
 1200loPI   GL119189  10.294   1.961   5.839  0.0132  0.0240  0.1503
 1200loPI   GL219190  10.582   1.863   6.014 -0.2263 -0.0830 -0.4469
 1200loPI   C1A19191  10.133   2.119   6.243  0.0688 -0.2747  0.1741
 1200loPI   C2A19192  10.224   2.090   6.623 -0.1190  0.1842 -0.1510
 1200loPI   C3A19193  10.332   2.251   7.030  0.3700  0.0828  0.1208
 1200loPI   C4A19194  10.414   2.139   7.388  0.0471  0.0079  0.1350
 1200loPI   C5A19195  10.335   2.351   7.778 -0.1527  0.1674 -0.0201
 1200loPI   C6A19196  10.602   2.223   8.142 -0.1025 -0.1492 -0.4637
 1200loPI   C1B19197  10.713   1.871   6.429  0.1365 -0.1790  0.2581
 1200loPI   C2B19198  10.706   1.995   6.892  0.0479  0.1567 -0.0837
 1200loPI   C3B19199  10.908   2.109   7.237 -0.0672 -0.5724 -0.4425
 1200loPI   C4B19200  10.787   2.112   7.706  0.0800  0.0084  0.0190
 1201loPI    C119201  14.517  17.191   5.206  0.4199  0.0551  0.2528
 1201loPI    C219202  14.800  16.952   5.058 -0.0218 -0.3994  0.1144
 1201loPI    C319203  14.549  17.141   4.811  0.2148  0.0817  0.2314
 1201loPI   PO419204  14.465  17.163   5.406 -0.0600  0.0532 -0.0061
 1201loPI   GL119205  14.539  16.863   5.905 -0.0025 -0.0546  0.0549
 1201loPI   GL219206  14.840  16.813   6.073  0.0104 -0.0717 -0.1055
 1201loPI   C1A19207  14.383  17.012   6.234 -0.1231  0.1169 -0.0337
 1201loPI   C2A19208  14.379  17.102   6.647 -0.1684 -0.3584  0.0910
 1201loPI   C3A19209  14.343  17.004   7.099  0.0968 -0.1798 -0.1582
 1201loPI   C4A19210  14.377  17.028   7.556 -0.2049 -0.0032  0.0734
 1201loPI   C5A19211  14.423  17.125   8.004  0.2155 -0.1357  0.2585
 1201loPI   C6A19212  14.753  17.237   8.308  0.1582  0.0099  0.3021
 1201loPI   C1B19213  14.859  16.875   6.500 -0.1335  0.0242  0.0385
 1201loPI   C2B19214  14.845  16.850   6.963 -0.1125  0.3832 -0.2628
 1201loPI   C3B19215  14.896  16.812   7.433 -0.2066 -0.0368  0.2607
 1201loPI   C4B19216  14.886  16.837   7.899  0.1217 -0.2840  0.1480
 1202loPI    C119217  14.915   7.913   5.537  0.1106 -0.2521 -0.0032
 1202loPI    C219218  15.256   8.120   5.563  0.0498 -0.1518  0.0023
 1202loPI    C319219  15.103   8.031   5.205 -0.0643  0.0472  0.0007
 1202loPI   PO419220  14.869   7.822   5.771 -0.0790 -0.1540  0.2698
 1202loPI   GL119221  14.947   7.424   5.922  0.0528  0.0161  0.0299
 1202loPI   GL219222  14.997   7.166   5.837 -0.0303 -0.0756  0.2441
 1202loPI   C1A19223  14.813   7.573   6.406  0.2113 -0.2989  0.0592
 1202loPI   C2A19224  14.897   7.549   6.824  0.0372 -0.0542  0.0461
 1202loPI   C3A19225  14.882   7.691   7.271  0.0519  0.1669  0.2147
 1202loPI   C4A19226  14.730   7.600   7.716  0.2902 -0.1851 -0.1420
 1202loPI   C5A19227  14.768   7.674   8.196  0.1530  0.3026 -0.0561
 1202loPI   C6A19228  14.839   8.057   8.425  0.1588  0.3240 -0.1081
 1202loPI   C1B19229  15.017   6.975   6.269 -0.2034  0.0563 -0.1705
 1202loPI   C2B19230  14.849   7.046   6.717 -0.1277 -0.4596 -0.0707
 1202loPI   C3B19231  14.890   7.069   7.118  0.2842  0.2652 -0.0489
 1202loPI   C4B19232  14.916   7.222   7.389 -0.0829 -0.0953  0.1134
 1203loPI    C119233   0.276   3.189   5.171  0.3143 -0.1095  0.0431
 1203loPI    C219234   0.443   3.404   4.877  0.1064  0.2954  0.2125
 1203loPI    C319235   0.082   3.504   5.018 -0.1855 -0.4182  0.0185
 1203loPI   PO419236   0.453   3.121   5.376  0.0890 -0.0128  0.1134
 1203loPI   GL119237   0.430   3.167   5.765  0.3545 -0.2640  0.0164
 1203loPI   GL219238   0.116   3.260   5.957  0.0200 -0.4560 -0.3516
 1203loPI   C1A19239   0.663   3.095   6.272  0.2337  0.0962 -0.0160
 1203loPI   C2A19240   0.625   3.107   6.696  0.2228 -0.0179  0.0667
 1203loPI   C3A19241   0.581   3.147   7.142  0.1014 -0.1976  0.1969
 1203loPI   C4A19242   0.817   3.143   7.591  0.0159  0.2999  0.2458
 1203loPI   C5A19243   1.030   3.159   7.942 -0.5052  0.2694 -0.2390
 1203loPI   C6A19244   1.116   3.472   8.199 -0.2681 -0.2280  0.0443
 1203loPI   C1B19245   0.118   3.237   6.437  0.0327 -0.0408 -0.1101
 1203loPI   C2B19246   0.185   3.340   6.900 -0.3040  0.0849 -0.1052
 1203loPI   C3B19247   0.113   3.360   7.247 -0.1126  0.3372 -0.3408
 1203loPI   C4B19248   0.270   3.346   7.575 -0.1878 -0.2255  0.3435
 1204loPI    C119249  14.671  14.071   5.713 -0.2493 -0.1956 -0.0939
 1204loPI    C219250  14.401  13.850   5.517 -0.2593 -0.0700 -0.2243
 1204loPI    C319251  14.529  14.194   5.359  0.0458 -0.1721 -0.2071
 1204loPI   PO419252  14.553  14.094   5.980 -0.0871  0.1194  0.0902
 1204loPI   GL119253  14.751  14.173   6.400 -0.2032 -0.4673  0.0668
 1204loPI   GL219254  14.692  13.859   6.421 -0.0898 -0.1716  0.1332
 1204loPI   C1A19255  14.757  14.401   6.749  0.4174  0.0655 -0.2248
 1204loPI   C2A19256  14.766  14.449   7.094  0.0903  0.0813 -0.1628
 1204loPI   C3A19257  14.655  14.458   7.548 -0.3405  0.0459 -0.2176
 1204loPI   C4A19258  14.760  14.515   8.030  0.0707  0.3008  0.0539
 1204loPI   C5A19259  14.859  14.547   8.404  0.3082  0.1688 -0.0743
 1204loPI   C6A19260  14.571  14.938   8.543  0.3395  0.1471  0.0823
 1204loPI   C1B19261  14.803  13.900   6.842  0.0193 -0.0777  0.0524
 1204loPI   C2B19262  14.754  14.004   7.297  0.4299 -0.3439  0.1014
 1204loPI   C3B19263  14.769  14.034   7.745 -0.0204  0.1927  0.0427
 1204loPI   C4B19264  14.783  13.996   8.123 -0.2463 -0.4047 -0.0958
 1205loPI    C119265  17.289   7.648   5.457  0.0929 -0.1567 -0.0415
 1205loPI    C219266  16.952   7.725   5.255 -0.0090 -0.3824  0.0385
 1205loPI    C319267  17.292   7.912   5.157 -0.1937 -0.0207  0.0716
 1205loPI   PO419268  17.310   7.498   5.566 -0.1671  0.0007  0.0869
 1205loPI   GL119269  17.466   7.316   5.892 -0.0725 -0.0743 -0.2006
 1205loPI   GL219270  17.221   7.480   6.085 -0.2739 -0.2222 -0.0935
 1205loPI   C1A19271  17.652   7.475   6.323 -0.2294 -0.1693  0.2257
 1205loPI   C2A19272  17.686   7.493   6.788  0.0735  0.0076 -0.0242
 1205loPI   C3A19273  17.599   7.586   7.190  0.1062 -0.1240  0.1619
 1205loPI   C4A19274  17.560   7.491   7.564 -0.0909  0.1918  0.2290
 1205loPI   C5A19275  17.452   7.498   7.976 -0.0630 -0.1883  0.0178
 1205loPI   C6A19276  17.483   7.489   8.414 -0.0455  0.4632  0.2592
 1205loPI   C1B19277  17.234   7.666   6.469  0.1296 -0.2216 -0.0634
 1205loPI   C2B19278  17.166   7.624   6.900 -0.1151  0.0621 -0.0102
 1205loPI   C3B19279  17.120   7.661   7.182 -0.0318  0.0449  0.3187
 1205loPI   C4B19280  17.075   7.689   7.559 -0.4812  0.0517  0.0207
 1206loPI    C119281   0.895  16.254   5.529 -0.0195  0.0456 -0.0024
 1206loPI    C219282   0.687  16.225   5.189  0.1067  0.2715 -0.1010
 1206loPI    C319283   1.025  16.016   5.234  0.1241  0.2912 -0.1402
 1206loPI   PO419284   0.675  16.352   5.711 -0.0636  0.0219  0.3291
 1206loPI   GL119285   0.580  16.672   5.863  0.1680  0.3406  0.0367
 1206loPI   GL219286   0.733  16.554   6.146 -0.1886 -0.3791 -0.0525
 1206loPI   C1A19287   0.351  16.870   6.200  0.2049  0.0725 -0.0258
 1206loPI   C2A19288   0.388  16.838   6.631 -0.0178 -0.0922  0.2085
 1206loPI   C3A19289   0.405  16.962   7.089  0.0295  0.0739  0.4852
 1206loPI   C4A19290   0.342  16.928   7.530 -0.1422 -0.1003  0.0057
 1206loPI   C5A19291   0.381  16.989   7.912 -0.1081 -0.2402 -0.3440
 1206loPI   C6A19292   0.281  16.728   8.263  0.0907  0.0773  0.1786
 1206loPI   C1B19293   0.837  16.626   6.532  0.0108  0.1643  0.0425
 1206loPI   C2B19294   0.852  16.780   6.874  0.0818  0.0165 -0.0787
 1206loPI   C3B19295   0.887  16.795   7.224  0.1063 -0.2756 -0.0438
 1206loPI   C4B19296   0.874  16.751   7.642 -0.2798  0.2376  0.0248
 1207loPI    C119297  17.141  14.374   5.761  0.0943  0.1578  0.1521
 1207loPI    C219298  17.255  13.991   5.741  0.0997  0.1606  0.1294
 1207loPI    C319299  17.064  14.159   5.432  0.0760  0.1694  0.1488
 1207loPI   PO419300  17.023  14.334   6.007  0.2004 -0.1462  0.1152
 1207loPI   GL119301  16.992  14.489   6.363  0.0433  0.1886  0.0622
 1207loPI   GL219302  16.846  14.816   6.371 -0.3550  0.2098  0.1567
 1207loPI   C1A19303  16.940  14.503   6.794 -0.1644 -0.2958  0.1114
 1207loPI   C2A19304  16.911  14.531   7.193  0.3355  0.1531 -0.0175
 1207loPI   C3A19305  17.004  14.631   7.673  0.0610  0.1285  0.2036
 1207loPI   C4A19306  17.000  14.639   8.163  0.0175  0.2312  0.2080
 1207loPI   C5A19307  16.601  14.755   8.526 -0.2194 -0.1045  0.1475
 1207loPI   C6A19308  16.372  14.566   8.873 -0.0540  0.1022 -0.1124
 1207loPI   C1B19309  16.880  15.031   6.666  0.0303  0.0325  0.0586
 1207loPI   C2B19310  16.842  15.081   7.115  0.5957  0.0098 -0.3651
 1207loPI   C3B19311  16.869  15.128   7.441  0.0679  0.0653  0.1356
 1207loPI   C4B19312  16.836  15.067   7.870 -0.0340  0.2476  0.1100
 1208loPI    C119313   5.243   2.926   5.352  0.2166 -0.0478 -0.0159
 1208loPI    C219314   5.130   2.615   5.127  0.1573  0.1110 -0.2087
 1208loPI    C319315   5.090   2.988   4.988  0.0765  0.2151  0.0849
 1208loPI   PO419316   5.153   2.883   5.558 -0.0348 -0.1195 -0.0521
 1208loPI   GL119317   5.082   2.879   5.857 -0.0751  0.2272  0.0597
 1208loPI   GL219318   5.077   2.632   6.034  0.3040 -0.5942  0.0501
 1208loPI   C1A19319   4.840   2.985   6.304 -0.3369  0.2215 -0.3118
 1208loPI   C2A19320   4.582   2.940   6.575  0.1048  0.0305 -0.1440
 1208loPI   C3A19321   4.716   2.910   6.928  0.1443 -0.0456  0.1189
 1208loPI   C4A19322   4.767   2.859   7.339 -0.0309  0.0563 -0.1722
 1208loPI   C5A19323   4.709   2.891   7.668 -0.0949  0.1395  0.1797
 1208loPI   C6A19324   4.791   2.919   7.994  0.2357  0.4237 -0.0611
 1208loPI   C1B19325   5.305   2.646   6.464  0.0816  0.1104 -0.2119
 1208loPI   C2B19326   5.172   2.806   6.776  0.3243 -0.1567 -0.2689
 1208loPI   C3B19327   5.338   2.725   7.224  0.4706  0.1975 -0.1030
 1208loPI   C4B19328   5.353   2.705   7.647  0.4334  0.0137  0.1969
 1209loPI    C119329  15.473   1.275   5.270 -0.3304 -0.0556 -0.0321
 1209loPI    C219330  15.176   1.147   5.035 -0.3520  0.0189 -0.0457
 1209loPI    C319331  15.458   1.389   4.887 -0.1574 -0.2323 -0.0931
 1209loPI   PO419332  15.505   1.021   5.399  0.1172 -0.0137  0.2054
 1209loPI   GL119333  15.424   1.031   5.822  0.0370  0.0291 -0.3273
 1209loPI   GL219334  15.584   0.742   5.776 -0.3454  0.0314 -0.2715
 1209loPI   C1A19335  15.339   1.038   6.238 -0.2638  0.6083  0.0481
 1209loPI   C2A19336  15.356   1.091   6.684 -0.1653 -0.1707 -0.0239
 1209loPI   C3A19337  15.357   1.056   7.081  0.0791 -0.0262 -0.1205
 1209loPI   C4A19338  15.354   1.123   7.527 -0.0575  0.1256 -0.1908
 1209loPI   C5A19339  15.414   1.062   7.931 -0.0316  0.1530 -0.0407
 1209loPI   C6A19340  15.429   0.896   8.405 -0.0372  0.0115  0.2932
 1209loPI   C1B19341  15.536   0.605   6.054 -0.0255  0.3125  0.0756
 1209loPI   C2B19342  15.538   0.494   6.440  0.1178 -0.2540 -0.0171
 1209loPI   C3B19343  15.454   0.604   6.820 -0.1617 -0.2240  0.1124
 1209loPI   C4B19344  15.352   0.590   7.305 -0.1697 -0.0312  0.1842
 1210loPI    C119345  10.743  17.138   5.088  0.3260 -0.0168  0.1036
 1210loPI    C219346  11.005  16.935   4.864  0.0886  0.2779 -0.4603
 1210loPI    C319347  10.671  17.082   4.699 -0.2639  0.2195  0.1678
 1210loPI   PO419348  10.738  17.018   5.302 -0.3156 -0.0109 -0.0124
 1210loPI   GL119349  10.660  17.017   5.788 -0.2378 -0.3756  0.0693
 1210loPI   GL219350  10.460  17.138   5.948  0.1072  0.1469 -0.0155
 1210loPI   C1A19351  10.713  16.897   6.248 -0.1341  0.0474  0.0262
 1210loPI   C2A19352  10.711  17.023   6.690 -0.1553 -0.2547  0.3190
 1210loPI   C3A19353  10.699  17.093   7.066 -0.0892 -0.1539 -0.1471
 1210loPI   C4A19354  10.751  17.075   7.419  0.1360  0.1811 -0.1260
 1210loPI   C5A19355  10.756  17.103   7.800  0.2159 -0.2258  0.1963
 1210loPI   C6A19356  10.938  17.173   8.186  0.1287 -0.0399 -0.2337
 1210loPI   C1B19357  10.156  17.142   6.343  0.0376  0.2851 -0.0936
 1210loPI   C2B19358  10.242  17.229   6.785  0.0172  0.1975  0.1008
 1210loPI   C3B19359  10.247  17.348   7.292 -0.2721 -0.0208  0.0480
 1210loPI   C4B19360  10.321  17.230   7.721 -0.3221 -0.1884  0.2208
 1211loPI    C119361   9.536   2.394   5.351  0.0287  0.2421  0.0651
 1211loPI    C219362   9.618   2.265   4.981 -0.0242  0.0942  0.1040
 1211loPI    C319363   9.594   2.658   5.056 -0.2160  0.1226 -0.0933
 1211loPI   PO419364   9.333   2.349   5.432  0.3390  0.1524  0.0599
 1211loPI   GL119365   9.059   2.408   5.817 -0.1953 -0.1830  0.3042
 1211loPI   GL219366   8.894   2.307   5.968  0.0684 -0.0412  0.0483
 1211loPI   C1A19367   9.237   2.627   6.265  0.0558  0.3676 -0.0886
 1211loPI   C2A19368   9.296   2.649   6.674  0.3362  0.3254  0.3862
 1211loPI   C3A19369   9.327   2.480   7.063 -0.3384  0.1928 -0.0534
 1211loPI   C4A19370   9.359   2.572   7.505  0.2236 -0.0595 -0.4208
 1211loPI   C5A19371   9.396   2.693   7.924 -0.2685 -0.0565  0.2264
 1211loPI   C6A19372   9.511   2.636   8.326  0.2186  0.3105  0.0337
 1211loPI   C1B19373   8.901   2.271   6.400  0.0085  0.0684  0.3554
 1211loPI   C2B19374   8.931   2.280   6.782 -0.0328  0.2603 -0.0515
 1211loPI   C3B19375   8.924   2.297   7.270  0.2203  0.0554 -0.0416
 1211loPI   C4B19376   9.012   2.279   7.770  0.0694 -0.1433  0.0084
 1212loPI    C119377   9.684   9.906   5.530 -0.0462  0.0129  0.0239
 1212loPI    C219378   9.650  10.152   5.217 -0.1104 -0.0173  0.0068
 1212loPI    C319379   9.325   9.972   5.366 -0.0648 -0.0859  0.0238
 1212loPI   PO419380   9.822  10.065   5.655  0.1674 -0.1034 -0.0194
 1212loPI   GL119381   9.964  10.030   6.015 -0.1091 -0.2790  0.3161
 1212loPI   GL219382   9.965  10.383   6.031  0.1127 -0.0033  0.2428
 1212loPI   C1A19383   9.969  10.032   6.493  0.1041 -0.1041  0.0036
 1212loPI   C2A19384   9.996  10.178   6.730 -0.1394  0.2730  0.0221
 1212loPI   C3A19385   9.930  10.076   7.076 -0.0459 -0.0843  0.1670
 1212loPI   C4A19386   9.916  10.162   7.456 -0.3676  0.1300 -0.0203
 1212loPI   C5A19387   9.900  10.224   7.893  0.0795  0.1093 -0.0299
 1212loPI   C6A19388   9.593  10.341   8.115  0.3119  0.0573  0.2092
 1212loPI   C1B19389   9.916  10.549   6.408  0.0644 -0.1832  0.4140
 1212loPI   C2B19390   9.885  10.659   6.869 -0.0521  0.0849  0.0518
 1212loPI   C3B19391   9.846  10.633   7.295  0.2797  0.2638 -0.1532
 1212loPI   C4B19392   9.770  10.656   7.766 -0.3671 -0.0741  0.1206
 1213loPI    C119393  16.258   0.853   5.547 -0.1474  0.1150  0.0243
 1213loPI    C219394  15.998   1.089   5.356  0.1113  0.3753 -0.0140
 1213loPI    C319395  16.252   0.862   5.147 -0.2912 -0.1239  0.0193
 1213loPI   PO419396  16.128   0.813   5.748  0.0437  0.2744  0.0552
 1213loPI   GL119397  15.972   1.076   5.966  0.0427  0.0475  0.2158
 1213loPI   GL219398  16.306   1.155   6.128 -0.1965  0.4274 -0.1074
 1213loPI   C1A19399  15.830   0.927   6.320  0.0279  0.0015  0.2069
 1213loPI   C2A19400  15.874   0.859   6.768 -0.1930 -0.0842  0.1207
 1213loPI   C3A19401  15.891   0.846   7.220  0.1628 -0.2718 -0.1635
 1213loPI   C4A19402  15.887   0.943   7.647  0.0986 -0.1694  0.4003
 1213loPI   C5A19403  15.889   0.768   8.007 -0.0019 -0.1443 -0.3000
 1213loPI   C6A19404  15.766   0.540   8.544  0.0553 -0.1940  0.0955
 1213loPI   C1B19405  16.183   1.165   6.586 -0.1133  0.0759  0.1846
 1213loPI   C2B19406  16.255   1.226   7.100 -0.2426  0.0309 -0.2754
 1213loPI   C3B19407  16.260   1.198   7.472  0.0823  0.1109 -0.1042
 1213loPI   C4B19408  16.319   1.057   7.872  0.2490  0.2967  0.2385
 1214loPI    C119409   9.745  11.920   5.462  0.0599  0.3764  0.0066
 1214loPI    C219410   9.504  12.041   5.167  0.0453 -0.0866 -0.1788
 1214loPI    C319411   9.852  11.862   5.081  0.1505 -0.0139  0.0867
 1214loPI   PO419412   9.642  12.025   5.617 -0.1084  0.2702 -0.1975
 1214loPI   GL119413   9.409  11.941   5.976  0.1466  0.1038  0.0167
 1214loPI   GL219414   9.678  11.942   6.125 -0.1223  0.1237  0.0562
 1214loPI   C1A19415   9.222  11.764   6.324  0.0143  0.4649  0.0975
 1214loPI   C2A19416   9.200  11.765   6.821  0.1457 -0.0693 -0.0284
 1214loPI   C3A19417   9.266  11.798   7.241 -0.3152  0.0183  0.4017
 1214loPI   C4A19418   9.158  11.836   7.632 -0.0159  0.1500  0.1113
 1214loPI   C5A19419   9.177  11.814   8.085 -0.1622  0.1944  0.1680
 1214loPI   C6A19420   9.321  11.767   8.456 -0.2770  0.0724 -0.3307
 1214loPI   C1B19421   9.667  11.985   6.492  0.2626 -0.0161  0.2248
 1214loPI   C2B19422   9.642  12.051   6.943 -0.0580  0.4954  0.1425
 1214loPI   C3B19423   9.698  12.132   7.400 -0.1342  0.3332  0.1989
 1214loPI   C4B19424   9.601  12.059   7.890  0.2727  0.1054  0.1798
 1215loPI    C119425  16.705  16.619   5.440 -0.2506  0.0384  0.0233
 1215loPI    C219426  16.513  16.383   5.180 -0.1012  0.1079 -0.1523
 1215loPI    C319427  16.908  16.435   5.149 -0.1008  0.2137  0.0152
 1215loPI   PO419428  16.635  16.624   5.635 -0.1164 -0.0943  0.0616
 1215loPI   GL119429  16.488  16.777   5.911  0.0538  0.2761 -0.2180
 1215loPI   GL219430  16.186  16.696   6.092 -0.0646 -0.2760  0.1577
 1215loPI   C1A19431  16.620  16.955   6.273 -0.1249  0.3559  0.2037
 1215loPI   C2A19432  16.553  17.095   6.661  0.1894  0.0899 -0.0731
 1215loPI   C3A19433  16.583  17.181   7.037 -0.1707 -0.2121  0.1826
 1215loPI   C4A19434  16.465  17.135   7.486  0.2170  0.5298  0.1547
 1215loPI   C5A19435  16.420  17.256   7.913  0.1153  0.2320 -0.2834
 1215loPI   C6A19436  16.120  17.336   8.254  0.1755  0.2168 -0.1586
 1215loPI   C1B19437  16.142  16.834   6.383 -0.1761 -0.1790 -0.3054
 1215loPI   C2B19438  16.165  16.804   6.774 -0.1858 -0.0324  0.1624
 1215loPI   C3B19439  16.130  16.870   7.243  0.2351 -0.0171  0.0387
 1215loPI   C4B19440  16.074  16.872   7.732 -0.3590  0.2176 -0.2235
 1216loPI    C119441   8.021  10.611   5.042 -0.0282 -0.1281 -0.0004
 1216loPI    C219442   8.171  10.254   4.944 -0.0877 -0.1123 -0.1525
 1216loPI    C319443   7.906  10.432   4.703 -0.1924 -0.0454  0.0104
 1216loPI   PO419444   7.996  10.593   5.348 -0.2480 -0.0116 -0.1869
 1216loPI   GL119445   8.060  10.498   5.883 -0.2465 -0.1268 -0.1774
 1216loPI   GL219446   7.923  10.192   5.779 -0.1385 -0.1482  0.1187
 1216loPI   C1A19447   8.077  10.757   6.301  0.1636  0.0351  0.2587
 1216loPI   C2A19448   8.146  10.791   6.770  0.0254  0.2421 -0.0737
 1216loPI   C3A19449   8.037  10.795   7.239 -0.0780 -0.1459 -0.1599
 1216loPI   C4A19450   8.069  10.766   7.718  0.2565 -0.0570  0.0215
 1216loPI   C5A19451   8.096  10.730   8.212 -0.1640  0.1164  0.0094
 1216loPI   C6A19452   8.127  10.980   8.589  0.1636 -0.0645  0.0356
 1216loPI   C1B19453   7.619  10.375   6.072  0.2865 -0.0287 -0.5007
 1216loPI   C2B19454   7.688  10.487   6.512  0.1297  0.3895 -0.0834
 1216loPI   C3B19455   7.606  10.488   7.008 -0.0690  0.2122  0.0716
 1216loPI   C4B19456   7.448  10.369   7.483 -0.0004 -0.0827 -0.0852
 1217loPI    C119457  12.190   1.525   5.374 -0.1790 -0.1120  0.0451
 1217loPI    C219458  11.832   1.686   5.300 -0.1438 -0.0334  0.0442
 1217loPI    C319459  12.069   1.578   4.997 -0.1437 -0.0339  0.0445
 1217loPI   PO419460  12.158   1.390   5.565  0.1373 -0.0667 -0.1385
 1217loPI   GL119461  12.276   1.241   6.001  0.2280 -0.0899  0.2050
 1217loPI   GL219462  12.636   1.099   6.093  0.1592  0.0666 -0.0646
 1217loPI   C1A19463  12.194   1.264   6.451  0.2322 -0.1595 -0.2038
 1217loPI   C2A19464  12.134   1.434   6.845  0.1060 -0.2150 -0.2510
 1217loPI   C3A19465  12.216   1.455   7.317  0.1150  0.1878  0.0529
 1217loPI   C4A19466  12.291   1.421   7.709  0.0102  0.2557  0.1561
 1217loPI   C5A19467  12.217   1.547   8.230  0.1796 -0.0973  0.0800
 1217loPI   C6A19468  12.125   1.481   8.689 -0.1515  0.1673  0.1052
 1217loPI   C1B19469  12.713   1.114   6.511 -0.0676 -0.0230  0.1791
 1217loPI   C2B19470  12.714   1.132   6.948  0.0440 -0.1058  0.0406
 1217loPI   C3B19471  12.679   1.230   7.339 -0.0093 -0.2674  0.0275
 1217loPI   C4B19472  12.855   1.208   7.693 -0.1213 -0.1041  0.4256
 1218loPI    C119473  11.449  13.620   5.283 -0.1335  0.0149 -0.0485
 1218loPI    C219474  11.800  13.574   5.097 -0.1660  0.0933 -0.1295
 1218loPI    C319475  11.484  13.716   4.897 -0.2570 -0.0226 -0.0695
 1218loPI   PO419476  11.471  13.409   5.460 -0.0623  0.0973  0.0326
 1218loPI   GL119477  11.538  13.494   5.870 -0.4328 -0.2190 -0.0715
 1218loPI   GL219478  11.575  13.060   5.888 -0.2345  0.3359  0.3357
 1218loPI   C1A19479  11.515  13.710   6.205 -0.0244  0.1509  0.0678
 1218loPI   C2A19480  11.705  13.706   6.675 -0.0621  0.2950 -0.2195
 1218loPI   C3A19481  11.549  13.742   7.064 -0.0084 -0.0498 -0.0490
 1218loPI   C4A19482  11.625  13.814   7.436 -0.0021  0.1461 -0.1697
 1218loPI   C5A19483  11.649  13.757   7.853  0.3061  0.1567  0.1485
 1218loPI   C6A19484  12.069  13.681   8.122 -0.2127  0.1420  0.0626
 1218loPI   C1B19485  11.663  13.193   6.323  0.0234  0.2731  0.0585
 1218loPI   C2B19486  11.687  13.209   6.821 -0.3839  0.4380  0.4100
 1218loPI   C3B19487  11.692  13.276   7.309 -0.3303 -0.2498  0.1378
 1218loPI   C4B19488  11.667  13.281   7.726  0.0671 -0.1693  0.1495
 1219loPI    C119489   5.841   8.648   5.991  0.1102 -0.2756  0.0440
 1219loPI    C219490   5.604   8.899   5.790  0.3734 -0.1073 -0.0612
 1219loPI    C319491   5.584   8.881   6.189  0.1122 -0.1708 -0.0757
 1219loPI   PO419492   5.981   8.500   5.850  0.0360  0.3593 -0.2066
 1219loPI   GL119493   6.164   8.272   6.226 -0.4316 -0.3155  0.2624
 1219loPI   GL219494   6.013   8.444   6.397  0.1475  0.1810  0.0635
 1219loPI   C1A19495   6.338   8.158   6.606 -0.0289 -0.2522  0.0239
 1219loPI   C2A19496   6.400   8.068   7.090  0.2252  0.0608  0.0959
 1219loPI   C3A19497   6.278   8.044   7.491 -0.0701 -0.1371 -0.1856
 1219loPI   C4A19498   6.224   8.057   7.884 -0.1160 -0.0387 -0.0071
 1219loPI   C5A19499   6.196   7.853   8.323 -0.0290 -0.0130  0.1832
 1219loPI   C6A19500   5.864   7.847   8.536 -0.1843 -0.0872 -0.5208
 1219loPI   C1B19501   5.892   8.362   6.833  0.0881  0.1328 -0.2233
 1219loPI   C2B19502   5.910   8.265   7.302  0.2697  0.0034 -0.2389
 1219loPI   C3B19503   5.801   8.214   7.636 -0.1479 -0.0791  0.3042
 1219loPI   C4B19504   5.666   8.124   8.030 -0.0883 -0.0021  0.1442
 1220loPI    C119505   8.551  10.972   5.045 -0.0067 -0.0690 -0.1870
 1220loPI    C219506   8.735  11.327   5.038 -0.0477 -0.0460 -0.1081
 1220loPI    C319507   8.513  11.212   4.727 -0.1041  0.0346 -0.0979
 1220loPI   PO419508   8.406  10.971   5.339 -0.2365  0.1679  0.1580
 1220loPI   GL119509   8.418  10.919   5.842 -0.0095  0.3628 -0.0386
 1220loPI   GL219510   8.519  10.585   5.687 -0.1902 -0.0881 -0.1356
 1220loPI   C1A19511   8.480  11.055   6.207 -0.0287  0.2704 -0.1878
 1220loPI   C2A19512   8.509  11.119   6.693 -0.0959  0.0834 -0.2205
 1220loPI   C3A19513   8.447  11.138   7.107  0.4444  0.3345  0.1632
 1220loPI   C4A19514   8.368  11.149   7.464 -0.1680 -0.0110 -0.1300
 1220loPI   C5A19515   8.399  11.293   7.900  0.1501  0.2855  0.3452
 1220loPI   C6A19516   8.143  11.440   8.277  0.2876  0.0582  0.0269
 1220loPI   C1B19517   8.630  10.572   6.147  0.0351 -0.1661  0.1311
 1220loPI   C2B19518   8.570  10.607   6.587 -0.0384 -0.1169  0.3096
 1220loPI   C3B19519   8.612  10.652   6.976  0.2581  0.0891  0.0978
 1220loPI   C4B19520   8.466  10.616   7.386 -0.1937  0.1544 -0.1998
 1221loPI    C119521   0.437  13.200   5.654  0.1137  0.0023  0.0191
 1221loPI    C219522   0.728  12.928   5.619 -0.0012 -0.0960 -0.1905
 1221loPI    C319523   0.437  12.946   5.346  0.0014  0.2351 -0.1758
 1221loPI   PO419524   0.317  13.182   5.881 -0.0789  0.0288  0.1081
 1221loPI   GL119525  -0.081  13.283   6.036  0.4064 -0.0882  0.2327
 1221loPI   GL219526   0.044  12.945   6.197 -0.2194 -0.1037 -0.1178
 1221loPI   C1A19527  -0.083  13.512   6.474 -0.1875  0.1952 -0.1747
 1221loPI   C2A19528  -0.105  13.651   6.904 -0.0441 -0.0508 -0.1282
 1221loPI   C3A19529  -0.078  13.594   7.268  0.0223 -0.1936 -0.0751
 1221loPI   C4A19530  -0.055  13.669   7.721  0.2487 -0.1133  0.0400
 1221loPI   C5A19531   0.020  13.624   8.211 -0.1761  0.1646 -0.0356
 1221loPI   C6A19532  -0.078  13.683   8.656  0.1009 -0.1364  0.1039
 1221loPI   C1B19533   0.038  13.046   6.690  0.2567 -0.1920 -0.0256
 1221loPI   C2B19534   0.080  13.138   7.150  0.2124  0.3318 -0.2197
 1221loPI   C3B19535   0.070  13.020   7.590  0.0134 -0.0826  0.5325
 1221loPI   C4B19536   0.046  13.176   7.925  0.2612  0.0704  0.0693
 1222loPI    C119537  13.637  15.336   5.470 -0.1704 -0.1803 -0.2615
 1222loPI    C219538  13.842  15.270   5.133 -0.1996 -0.0137 -0.3130
 1222loPI    C319539  13.443  15.250   5.131 -0.2079  0.1408 -0.3252
 1222loPI   PO419540  13.649  15.573   5.579  0.2086  0.0390  0.0464
 1222loPI   GL119541  13.724  15.710   5.916 -0.2047  0.4381 -0.1823
 1222loPI   GL219542  13.409  15.355   5.997 -0.1194  0.2103  0.0919
 1222loPI   C1A19543  13.567  15.815   6.240  0.3091 -0.2251 -0.3058
 1222loPI   C2A19544  13.609  15.800   6.620  0.0635 -0.1335 -0.0461
 1222loPI   C3A19545  13.560  15.863   7.046  0.1879 -0.1438  0.0292
 1222loPI   C4A19546  13.595  15.900   7.464 -0.0409  0.0557 -0.1405
 1222loPI   C5A19547  13.749  16.019   7.917 -0.2517 -0.2322 -0.0562
 1222loPI   C6A19548  14.114  16.112   8.233  0.0541 -0.0227 -0.1009
 1222loPI   C1B19549  13.299  15.424   6.454 -0.1177  0.1637 -0.1133
 1222loPI   C2B19550  13.127  15.534   6.766 -0.1900 -0.0106  0.2662
 1222loPI   C3B19551  13.167  15.628   7.255 -0.0533  0.0535  0.0620
 1222loPI   C4B19552  13.135  15.576   7.565 -0.0479 -0.1758 -0.0002
 1223loPI    C119553  12.610   9.919   5.490 -0.0623  0.0683 -0.1078
 1223loPI    C219554  12.451   9.743   5.167 -0.0123 -0.0573 -0.0648
 1223loPI    C319555  12.847   9.793   5.193 -0.0053 -0.1561  0.0302
 1223loPI   PO419556  12.505   9.741   5.698 -0.0936  0.1525  0.1027
 1223loPI   GL119557  12.356   9.678   6.076 -0.4451  0.0590 -0.0223
 1223loPI   GL219558  12.355   9.314   5.954 -0.0466 -0.0152 -0.0509
 1223loPI   C1A19559  12.257   9.733   6.473 -0.1752 -0.0384 -0.1045
 1223loPI   C2A19560  12.215   9.607   6.828 -0.3138 -0.4536 -0.0330
 1223loPI   C3A19561  12.168   9.733   7.264  0.3005 -0.1723  0.2212
 1223loPI   C4A19562  12.359   9.815   7.699  0.0886  0.1532  0.1015
 1223loPI   C5A19563  12.127  10.075   8.033  0.0180  0.1425  0.5287
 1223loPI   C6A19564  12.114  10.437   8.291 -0.0081  0.4642 -0.0081
 1223loPI   C1B19565  12.303   9.096   6.462 -0.2156 -0.0913  0.0542
 1223loPI   C2B19566  12.304   9.156   6.881 -0.0065 -0.4599 -0.0286
 1223loPI   C3B19567  12.308   9.307   7.321 -0.2255  0.1890  0.0733
 1223loPI   C4B19568  12.350   9.305   7.799  0.1495 -0.1937 -0.2018
 1224loPI    C119569   2.619  14.447   5.529  0.1608 -0.2149  0.1185
 1224loPI    C219570   2.327  14.327   5.775  0.0585 -0.0838  0.0620
 1224loPI    C319571   2.505  14.064   5.532  0.0373 -0.1782  0.1482
 1224loPI   PO419572   2.784  14.622   5.691 -0.0126 -0.0137 -0.1222
 1224loPI   GL119573   2.569  14.573   6.099 -0.1414  0.1391  0.0725
 1224loPI   GL219574   2.682  14.879   6.171  0.1020  0.0114  0.1413
 1224loPI   C1A19575   2.649  14.276   6.427  0.1678  0.0203  0.2593
 1224loPI   C2A19576   2.591  14.071   6.724  0.0635  0.2845 -0.0318
 1224loPI   C3A19577   2.543  14.006   7.204  0.0927  0.0246 -0.0218
 1224loPI   C4A19578   2.530  13.665   7.729  0.1708 -0.0951 -0.2690
 1224loPI   C5A19579   2.407  13.489   8.186  0.3049  0.2440 -0.4769
 1224loPI   C6A19580   2.674  13.246   8.516  0.0271  0.0217 -0.2417
 1224loPI   C1B19581   2.551  14.748   6.536  0.2467 -0.1632  0.2934
 1224loPI   C2B19582   2.611  14.517   6.916 -0.2845 -0.0527  0.3303
 1224loPI   C3B19583   2.959  14.387   7.279  0.3431 -0.0611 -0.1495
 1224loPI   C4B19584   3.301  14.719   7.417 -0.0088  0.2525 -0.3946
 1225loPI    C119585  10.581   8.462   4.952  0.1682  0.2780 -0.0049
 1225loPI    C219586  10.524   8.570   4.572  0.2358  0.4137  0.0230
 1225loPI    C319587  10.892   8.479   4.701  0.1843  0.1788  0.0078
 1225loPI   PO419588  10.509   8.733   5.164  0.3357  0.0546 -0.1187
 1225loPI   GL119589  10.606   8.674   5.666  0.0976 -0.0254 -0.0964
 1225loPI   GL219590  10.828   8.480   5.629  0.1897 -0.0620 -0.3056
 1225loPI   C1A19591  10.536   8.835   6.114 -0.0853  0.0172  0.0195
 1225loPI   C2A19592  10.580   8.821   6.518 -0.2394  0.0266 -0.0841
 1225loPI   C3A19593  10.638   8.917   6.950 -0.2375 -0.1593  0.2050
 1225loPI   C4A19594  10.650   8.925   7.418 -0.1105 -0.0406 -0.1219
 1225loPI   C5A19595  10.700   9.038   7.884  0.2617  0.1314  0.2026
 1225loPI   C6A19596  11.157   9.212   8.109  0.0196 -0.5086 -0.1090
 1225loPI   C1B19597  10.720   8.321   6.105  0.1786 -0.0324 -0.1423
 1225loPI   C2B19598  10.729   8.355   6.587  0.1828  0.5083  0.0166
 1225loPI   C3B19599  10.749   8.330   7.045  0.2108  0.2538  0.3761
 1225loPI   C4B19600  10.736   8.431   7.466 -0.0098  0.1645  0.1342
 1226loPI    C119601  13.478  10.413   5.367  0.1775 -0.0960  0.0557
 1226loPI    C219602  13.728  10.370   5.058  0.1157 -0.0410 -0.0026
 1226loPI    C319603  13.370  10.192   5.052  0.0636  0.0636 -0.0190
 1226loPI   PO419604  13.596  10.346   5.597 -0.4006 -0.0679 -0.2431
 1226loPI   GL119605  13.540  10.146   5.886  0.1805  0.0347 -0.0612
 1226loPI   GL219606  13.837   9.984   5.912  0.1976  0.4078  0.1784
 1226loPI   C1A19607  13.578  10.011   6.341 -0.2544  0.1584  0.1111
 1226loPI   C2A19608  13.594  10.033   6.756 -0.0382 -0.1806 -0.0366
 1226loPI   C3A19609  13.609  10.146   7.285  0.1707 -0.1967  0.1598
 1226loPI   C4A19610  13.599  10.147   7.758  0.1047 -0.2166  0.2030
 1226loPI   C5A19611  13.918   9.982   8.060  0.2890 -0.0272 -0.1732
 1226loPI   C6A19612  14.151  10.137   8.415 -0.3521  0.0501 -0.0670
 1226loPI   C1B19613  14.079   9.751   6.255  0.1859  0.0816  0.3382
 1226loPI   C2B19614  14.136   9.870   6.655  0.0017 -0.0972  0.2121
 1226loPI   C3B19615  14.004   9.893   7.110  0.0273  0.0406 -0.2090
 1226loPI   C4B19616  14.117   9.908   7.585 -0.1121 -0.0156 -0.1492
 1227loPI    C119617  12.943   8.235   5.480 -0.1761  0.0853  0.1326
 1227loPI    C219618  12.646   8.425   5.291 -0.1168 -0.0006 -0.0488
 1227loPI    C319619  12.972   8.313   5.089  0.0527  0.1174  0.1549
 1227loPI   PO419620  13.053   8.338   5.678  0.0979 -0.3277  0.1545
 1227loPI   GL119621  13.103   8.603   6.023  0.1772  0.1687  0.1425
 1227loPI   GL219622  13.284   8.977   5.926 -0.0195  0.2401  0.1177
 1227loPI   C1A19623  13.287   8.600   6.293 -0.0235 -0.1870 -0.2349
 1227loPI   C2A19624  13.317   8.725   6.679 -0.4037 -0.2275  0.3546
 1227loPI   C3A19625  13.354   8.836   7.126 -0.1472  0.1781 -0.0858
 1227loPI   C4A19626  13.358   8.877   7.528 -0.0133 -0.1678 -0.0223
 1227loPI   C5A19627  13.434   8.979   7.989 -0.2154 -0.0012  0.1055
 1227loPI   C6A19628  13.086   9.250   8.220  0.1512 -0.3309 -0.0495
 1227loPI   C1B19629  13.215   9.066   6.366 -0.2224 -0.0058  0.0908
 1227loPI   C2B19630  13.234   9.281   6.752  0.3692 -0.2170  0.2153
 1227loPI   C3B19631  13.162   9.354   7.205 -0.0843 -0.1363 -0.2012
 1227loPI   C4B19632  13.172   9.330   7.675 -0.2006  0.0639 -0.2210
 1228loPI    C119633  16.920   2.551   5.579  0.2228  0.1141 -0.1710
 1228loPI    C219634  16.877   2.838   5.303 -0.2587 -0.0240 -0.2503
 1228loPI    C319635  16.617   2.810   5.605 -0.0069 -0.1613 -0.0412
 1228loPI   PO419636  17.160   2.557   5.560 -0.2056  0.0593  0.2382
 1228loPI   GL119637  17.272   2.615   6.021  0.0267 -0.0330  0.2636
 1228loPI   GL219638  16.975   2.697   6.063  0.1273  0.0126  0.1461
 1228loPI   C1A19639  17.392   2.613   6.458  0.1194  0.0999 -0.0340
 1228loPI   C2A19640  17.342   2.627   6.839 -0.0095 -0.1930  0.0115
 1228loPI   C3A19641  17.392   2.689   7.295  0.0215  0.0441 -0.1506
 1228loPI   C4A19642  17.411   2.627   7.710  0.3835  0.0268  0.1436
 1228loPI   C5A19643  17.582   2.545   8.151 -0.1504 -0.0576  0.1182
 1228loPI   C6A19644  17.708   2.213   8.293 -0.1995 -0.1497  0.1808
 1228loPI   C1B19645  16.897   2.801   6.499 -0.3170  0.0265  0.1418
 1228loPI   C2B19646  16.894   2.841   7.032 -0.1728  0.2182 -0.1851
 1228loPI   C3B19647  16.947   2.903   7.386 -0.2469  0.2226 -0.1135
 1228loPI   C4B19648  16.791   2.821   7.824  0.0549 -0.1311 -0.1474
 1229loPI    C119649  17.435   1.456   5.336  0.3187 -0.2896 -0.1509
 1229loPI    C219650  17.124   1.339   5.114  0.3130 -0.1681 -0.2074
 1229loPI    C319651  17.467   1.444   4.938  0.2951 -0.0319 -0.1624
 1229loPI   PO419652  17.357   1.633   5.485 -0.1080 -0.0098  0.1074
 1229loPI   GL119653  17.362   1.656   5.829 -0.1198  0.1088  0.1930
 1229loPI   GL219654  17.484   1.487   6.027 -0.1481  0.1855  0.0450
 1229loPI   C1A19655  17.111   1.774   6.177 -0.0934  0.0070 -0.0772
 1229loPI   C2A19656  17.001   1.837   6.538 -0.0795  0.2839 -0.0907
 1229loPI   C3A19657  17.075   1.854   6.976  0.2948  0.0532  0.0368
 1229loPI   C4A19658  17.127   1.886   7.426  0.0954 -0.0458  0.1264
 1229loPI   C5A19659  17.060   1.768   7.896  0.1199  0.1493 -0.2762
 1229loPI   C6A19660  16.958   1.792   8.348 -0.2325  0.1656  0.0359
 1229loPI   C1B19661  17.513   1.615   6.476 -0.2593 -0.2267  0.0486
 1229loPI   C2B19662  17.566   1.608   6.844  0.1456  0.1859  0.3537
 1229loPI   C3B19663  17.571   1.664   7.238 -0.3805  0.3277 -0.0587
 1229loPI   C4B19664  17.488   1.619   7.653 -0.0580  0.0696  0.0999
 1230loPI    C119665   2.966  12.137   5.982  0.0375  0.0198  0.0399
 1230loPI    C219666   2.731  12.076   5.664  0.0752 -0.1730  0.0480
 1230loPI    C319667   3.072  11.870   5.704  0.1310 -0.0618  0.1528
 1230loPI   PO419668   2.975  12.435   5.929 -0.0936 -0.1289  0.2272
 1230loPI   GL119669   2.936  12.701   6.265 -0.2726 -0.2036  0.1145
 1230loPI   GL219670   2.630  12.740   6.197  0.1271 -0.1087 -0.2021
 1230loPI   C1A19671   3.258  12.955   6.612 -0.0988  0.1012  0.1240
 1230loPI   C2A19672   3.392  13.040   6.990  0.0882  0.1189 -0.0980
 1230loPI   C3A19673   3.606  13.009   7.239 -0.1462 -0.0332  0.0910
 1230loPI   C4A19674   3.907  12.924   7.661 -0.0448 -0.0491 -0.1979
 1230loPI   C5A19675   4.171  13.023   8.139 -0.0636  0.3116 -0.0427
 1230loPI   C6A19676   4.489  12.992   8.482 -0.0007  0.1961  0.0105
 1230loPI   C1B19677   2.613  12.736   6.664 -0.2456  0.1830 -0.0770
 1230loPI   C2B19678   2.809  12.711   7.077  0.2323 -0.1932  0.4436
 1230loPI   C3B19679   3.210  12.585   7.225  0.2188 -0.0811 -0.0658
 1230loPI   C4B19680   3.597  12.564   7.500  0.1557  0.0572 -0.2056
 1231loPI    C119681   4.407   4.233   5.334 -0.0984  0.0907  0.0698
 1231loPI    C219682   4.386   4.421   4.982 -0.1782 -0.0512 -0.0020
 1231loPI    C319683   4.660   4.136   5.040 -0.0612  0.0820  0.1047
 1231loPI   PO419684   4.316   4.455   5.479 -0.0732 -0.0829  0.0399
 1231loPI   GL119685   4.178   4.581   5.958  0.0954  0.0400 -0.0347
 1231loPI   GL219686   4.428   4.542   6.096  0.1634  0.2468 -0.2155
 1231loPI   C1A19687   4.035   4.673   6.401  0.1135 -0.0628  0.0516
 1231loPI   C2A19688   3.982   4.642   6.817  0.0470 -0.1051  0.1237
 1231loPI   C3A19689   4.092   4.648   7.224  0.0177 -0.0680 -0.1030
 1231loPI   C4A19690   4.053   4.646   7.702  0.0140 -0.0577 -0.1081
 1231loPI   C5A19691   3.991   4.777   8.095 -0.0349 -0.3833 -0.0826
 1231loPI   C6A19692   3.763   4.972   8.477  0.2724  0.0882 -0.1193
 1231loPI   C1B19693   4.546   4.551   6.475  0.0045 -0.1282  0.4042
 1231loPI   C2B19694   4.539   4.439   6.960 -0.1842 -0.1446 -0.1573
 1231loPI   C3B19695   4.493   4.485   7.468 -0.1310  0.0630 -0.0675
 1231loPI   C4B19696   4.482   4.447   7.868  0.1001  0.1593 -0.1166
 1232loPI    C119697   8.316   6.016   5.327  0.2752  0.4993 -0.1307
 1232loPI    C219698   8.645   5.790   5.354  0.0389  0.1682  0.0595
 1232loPI    C319699   8.433   5.795   5.015  0.1705  0.2880 -0.0225
 1232loPI   PO419700   8.207   5.990   5.624  0.1473 -0.1047 -0.1172
 1232loPI   GL119701   8.373   5.773   5.925 -0.0343 -0.0763  0.0922
 1232loPI   GL219702   8.686   5.989   5.862 -0.2485  0.1699  0.0392
 1232loPI   C1A19703   8.389   5.837   6.410 -0.1346 -0.1259  0.1792
 1232loPI   C2A19704   8.370   5.758   6.858  0.0563  0.0781 -0.3045
 1232loPI   C3A19705   8.470   5.789   7.248  0.2784  0.2005 -0.1353
 1232loPI   C4A19706   8.540   5.936   7.728 -0.0397  0.3016  0.0555
 1232loPI   C5A19707   8.891   6.116   7.993 -0.2064  0.0598  0.0566
 1232loPI   C6A19708   9.079   6.183   8.311 -0.1518 -0.1111  0.0601
 1232loPI   C1B19709   8.716   6.069   6.166 -0.3872 -0.1769  0.2438
 1232loPI   C2B19710   8.767   6.092   6.600 -0.0186 -0.0387 -0.2417
 1232loPI   C3B19711   8.874   6.090   6.975 -0.0546  0.3897 -0.0495
 1232loPI   C4B19712   8.830   6.287   7.499 -0.2122  0.1750 -0.0104
 1233loPI    C119713   4.993  10.808   5.875  0.1954  0.0198 -0.0686
 1233loPI    C219714   5.016  10.442   5.714 -0.2935 -0.1450  0.2168
 1233loPI    C319715   4.817  10.733   5.524 -0.1393 -0.1007  0.1213
 1233loPI   PO419716   4.976  10.758   6.096  0.0661  0.1797  0.0705
 1233loPI   GL119717   5.250  10.777   6.411  0.1673 -0.2015 -0.1676
 1233loPI   GL219718   5.234  11.099   6.442 -0.0584  0.0470  0.1468
 1233loPI   C1A19719   5.279  10.741   6.906  0.2248  0.0140 -0.0107
 1233loPI   C2A19720   5.207  10.689   7.340  0.0158 -0.0756 -0.0201
 1233loPI   C3A19721   5.128  10.827   7.777  0.0531  0.0625 -0.0443
 1233loPI   C4A19722   4.845  11.054   8.019  0.0951  0.1152 -0.2861
 1233loPI   C5A19723   4.492  10.883   8.201 -0.3131 -0.2472  0.4884
 1233loPI   C6A19724   4.119  10.783   8.214  0.0617  0.0554  0.0501
 1233loPI   C1B19725   5.441  11.191   6.717  0.0424 -0.1569 -0.0484
 1233loPI   C2B19726   5.466  11.191   7.099  0.4045  0.0937  0.0567
 1233loPI   C3B19727   5.392  11.278   7.501 -0.1138 -0.0868  0.3165
 1233loPI   C4B19728   5.222  11.374   7.930  0.2733  0.0357  0.2456
 1234loPI    C119729  12.398  12.820   5.183 -0.1043  0.0066 -0.0557
 1234loPI    C219730  12.277  13.201   5.200  0.0265  0.0368  0.2503
 1234loPI    C319731  12.312  13.018   4.846 -0.1061  0.2856  0.1061
 1234loPI   PO419732  12.532  12.810   5.309 -0.2550  0.0560 -0.2198
 1234loPI   GL119733  12.523  12.957   5.803 -0.1052  0.2014  0.2464
 1234loPI   GL219734  12.738  12.762   5.942  0.1746  0.0452  0.1987
 1234loPI   C1A19735  12.588  13.247   6.048 -0.2570 -0.2533  0.0871
 1234loPI   C2A19736  12.546  13.264   6.526 -0.4520  0.0261  0.0464
 1234loPI   C3A19737  12.576  13.428   6.934  0.0440  0.0407  0.0434
 1234loPI   C4A19738  12.564  13.436   7.437  0.0187 -0.1304  0.2732
 1234loPI   C5A19739  12.436  13.416   7.853 -0.1364 -0.0377 -0.3430
 1234loPI   C6A19740  12.502  13.343   8.236 -0.0924 -0.2010 -0.1069
 1234loPI   C1B19741  12.728  12.834   6.350 -0.2400  0.1821  0.2669
 1234loPI   C2B19742  12.702  12.777   6.811  0.2405 -0.1777 -0.3873
 1234loPI   C3B19743  12.647  12.933   7.247 -0.0296  0.3355 -0.0600
 1234loPI   C4B19744  12.591  12.976   7.731  0.0757  0.0027  0.0094
 1235loPI    C119745  16.511  12.829   5.658  0.1694  0.0594 -0.2235
 1235loPI    C219746  16.593  12.582   5.353  0.0908  0.1171 -0.2918
 1235loPI    C319747  16.487  12.961   5.281 -0.1049  0.0813 -0.2006
 1235loPI   PO419748  16.413  12.664   5.897  0.4170 -0.0132  0.5087
 1235loPI   GL119749  16.439  12.617   6.279 -0.1503 -0.0048  0.1130
 1235loPI   GL219750  16.754  12.690   6.221 -0.0253  0.2309 -0.0409
 1235loPI   C1A19751  16.309  12.805   6.572  0.1651  0.2900  0.0656
 1235loPI   C2A19752  16.302  12.804   6.979 -0.0402  0.1654 -0.3228
 1235loPI   C3A19753  16.336  12.820   7.426 -0.0373 -0.1612  0.2906
 1235loPI   C4A19754  16.307  12.803   7.906  0.0459 -0.4131 -0.0560
 1235loPI   C5A19755  15.963  12.736   8.234 -0.2436 -0.1339  0.0201
 1235loPI   C6A19756  15.519  12.758   8.162 -0.1754 -0.2039 -0.0684
 1235loPI   C1B19757  16.776  12.616   6.683  0.3678  0.0862 -0.0327
 1235loPI   C2B19758  16.740  12.565   7.086 -0.0091 -0.0327  0.2696
 1235loPI   C3B19759  16.785  12.618   7.500  0.0828 -0.1153 -0.1514
 1235loPI   C4B19760  16.693  12.513   7.917 -0.0443 -0.0248 -0.1878
 1236loPI    C119761   1.186  13.745   5.597 -0.1032 -0.1872  0.2546
 1236loPI    C219762   0.906  13.460   5.603 -0.2644 -0.0431 -0.1258
 1236loPI    C319763   1.232  13.415   5.376 -0.1302 -0.0681  0.0695
 1236loPI   PO419764   1.127  13.794   5.912  0.1174 -0.1307 -0.3606
 1236loPI   GL119765   0.836  13.780   6.325  0.0056 -0.3168 -0.1005
 1236loPI   GL219766   1.075  13.575   6.414  0.2562 -0.0071 -0.2254
 1236loPI   C1A19767   0.790  14.141   6.684  0.1150 -0.0733  0.0844
 1236loPI   C2A19768   0.832  14.327   7.043 -0.1067 -0.0579 -0.0800
 1236loPI   C3A19769   0.720  14.312   7.422 -0.0696 -0.1537 -0.3120
 1236loPI   C4A19770   0.757  14.358   7.843 -0.0175  0.3286  0.2748
 1236loPI   C5A19771   0.806  14.373   8.273 -0.1520  0.2921 -0.0654
 1236loPI   C6A19772   0.883  14.143   8.498  0.2287  0.1846 -0.1060
 1236loPI   C1B19773   0.972  13.631   6.838 -0.6249 -0.0084  0.0864
 1236loPI   C2B19774   0.800  13.838   7.236 -0.0510  0.1318 -0.0466
 1236loPI   C3B19775   0.733  13.790   7.609  0.1249  0.0183 -0.2521
 1236loPI   C4B19776   0.733  13.917   8.079  0.0795 -0.0016  0.2202
 1237loPI    C119777  13.468   8.171   5.428 -0.2105 -0.1287 -0.0246
 1237loPI    C219778  13.227   7.906   5.251 -0.0219  0.0616 -0.5886
 1237loPI    C319779  13.548   8.045   5.057  0.1513  0.3429 -0.1169
 1237loPI   PO419780  13.536   8.114   5.769  0.1007 -0.1579 -0.1033
 1237loPI   GL119781  13.278   8.086   6.156 -0.0062 -0.1425  0.0445
 1237loPI   GL219782  13.226   7.788   5.959  0.0292  0.0326  0.1175
 1237loPI   C1A19783  13.325   8.223   6.638  0.0164 -0.0009  0.1210
 1237loPI   C2A19784  13.348   8.295   7.118 -0.0341  0.0701  0.3307
 1237loPI   C3A19785  13.388   8.292   7.573  0.1249 -0.1333 -0.2766
 1237loPI   C4A19786  13.429   8.185   7.940  0.0511 -0.1942 -0.0201
 1237loPI   C5A19787  13.490   8.311   8.310  0.1270 -0.3142 -0.1360
 1237loPI   C6A19788  13.759   8.230   8.592  0.4177  0.1829  0.1969
 1237loPI   C1B19789  12.958   7.818   6.426 -0.2083 -0.1168  0.1636
 1237loPI   C2B19790  12.939   7.994   6.777 -0.1885 -0.1231  0.0546
 1237loPI   C3B19791  12.999   7.902   7.218  0.0276  0.1300 -0.2686
 1237loPI   C4B19792  13.030   7.977   7.705 -0.2268  0.1166  0.0697
 1238loPI    C119793   5.905  17.470   5.259  0.0537 -0.0415  0.1552
 1238loPI    C219794   5.845  17.120   5.074  0.1260 -0.0197  0.0900
 1238loPI    C319795   5.733  17.461   4.898  0.2087  0.0022  0.0794
 1238loPI   PO419796   5.938  17.469   5.522 -0.1597 -0.2015 -0.0706
 1238loPI   GL119797   5.883  17.027   5.829 -0.4629  0.2880 -0.1396
 1238loPI   GL219798   5.671  17.097   6.026  0.1209  0.2499 -0.1435
 1238loPI   C1A19799   6.100  16.911   6.228  0.1500  0.0079  0.0154
 1238loPI   C2A19800   6.089  16.802   6.670  0.0878  0.1441  0.2578
 1238loPI   C3A19801   6.215  16.827   7.135  0.2512 -0.1812  0.1029
 1238loPI   C4A19802   6.218  16.935   7.543  0.2010  0.0931  0.2266
 1238loPI   C5A19803   6.221  16.859   8.003  0.2468  0.0175 -0.0791
 1238loPI   C6A19804   6.127  17.125   8.266 -0.2516  0.0872 -0.0499
 1238loPI   C1B19805   5.650  17.030   6.463 -0.1705 -0.2283  0.0278
 1238loPI   C2B19806   5.716  17.078   6.925 -0.1067  0.2223 -0.0216
 1238loPI   C3B19807   5.734  17.143   7.362 -0.1415  0.1757  0.0263
 1238loPI   C4B19808   5.745  17.123   7.801 -0.0725  0.2668  0.0963
 1239loPI    C119809  15.311   4.854   5.365 -0.0982  0.0300  0.3242
 1239loPI    C219810  15.696   4.952   5.402 -0.0624  0.0220  0.0013
 1239loPI    C319811  15.413   5.230   5.453 -0.0053  0.0708  0.0533
 1239loPI   PO419812  15.274   4.640   5.546 -0.0264  0.0625  0.0610
 1239loPI   GL119813  15.364   4.730   5.934 -0.0651  0.1039  0.1413
 1239loPI   GL219814  15.372   5.046   5.911 -0.1150  0.0464  0.1626
 1239loPI   C1A19815  15.694   4.746   6.290  0.0542  0.3134  0.0486
 1239loPI   C2A19816  15.701   4.810   6.754 -0.0823  0.0079 -0.0699
 1239loPI   C3A19817  15.710   4.848   7.197 -0.4158 -0.2929 -0.2151
 1239loPI   C4A19818  15.729   4.796   7.673 -0.0180 -0.1738  0.0853
 1239loPI   C5A19819  15.923   4.747   8.065  0.0503  0.3392 -0.3035
 1239loPI   C6A19820  15.774   4.779   8.508  0.0386 -0.1920 -0.0270
 1239loPI   C1B19821  15.268   4.991   6.378 -0.0652 -0.1032 -0.0160
 1239loPI   C2B19822  15.220   5.026   6.802 -0.0378  0.0257 -0.1340
 1239loPI   C3B19823  15.162   5.080   7.250 -0.1736 -0.0011  0.0509
 1239loPI   C4B19824  15.268   4.965   7.682  0.0227 -0.0281 -0.1523
 1240loPI    C119825   5.797   5.010   5.281 -0.1160  0.0446 -0.0841
 1240loPI    C219826   5.416   5.074   5.383 -0.0525  0.1095  0.1175
 1240loPI    C319827   5.502   4.880   5.044 -0.2634  0.1315  0.0497
 1240loPI   PO419828   5.858   5.002   5.657 -0.1207  0.0253 -0.3100
 1240loPI   GL119829   5.707   4.943   6.019  0.1517 -0.1823 -0.0081
 1240loPI   GL219830   5.493   4.704   5.845  0.0855 -0.2582  0.0830
 1240loPI   C1A19831   5.755   5.001   6.469 -0.1613  0.0653  0.0643
 1240loPI   C2A19832   5.787   5.054   6.867  0.2125  0.1190 -0.0316
 1240loPI   C3A19833   5.835   4.880   7.283 -0.0320 -0.2881  0.1138
 1240loPI   C4A19834   5.963   4.824   7.628  0.1653 -0.2013 -0.0247
 1240loPI   C5A19835   5.815   4.632   8.049  0.2434  0.0349 -0.1487
 1240loPI   C6A19836   5.641   4.797   8.445  0.0683 -0.0278  0.0469
 1240loPI   C1B19837   5.338   4.624   6.343  0.3227 -0.1357 -0.1969
 1240loPI   C2B19838   5.464   4.595   6.740  0.1183 -0.2153 -0.1701
 1240loPI   C3B19839   5.478   4.543   7.216 -0.0179 -0.2497 -0.1089
 1240loPI   C4B19840   5.403   4.466   7.641  0.2968  0.2933  0.1474
 1241loPI    C119841  10.039  14.629   5.428  0.2999  0.0554  0.1652
 1241loPI    C219842  10.136  14.788   5.074  0.2042  0.0447  0.1339
 1241loPI    C319843   9.850  14.509   5.097  0.1473  0.1103  0.2314
 1241loPI   PO419844  10.097  14.754   5.591  0.1038 -0.1257 -0.0859
 1241loPI   GL119845  10.065  14.820   6.026  0.1169 -0.2054  0.0362
 1241loPI   GL219846   9.933  14.555   6.048  0.1326  0.0227  0.2017
 1241loPI   C1A19847  10.063  14.919   6.518  0.1184  0.2485  0.1710
 1241loPI   C2A19848  10.053  14.826   6.957  0.0538  0.0935  0.1770
 1241loPI   C3A19849  10.053  14.843   7.340  0.3140 -0.1660 -0.0843
 1241loPI   C4A19850  10.146  14.840   7.821 -0.3360  0.1769  0.3990
 1241loPI   C5A19851  10.153  14.881   8.199 -0.4406 -0.0523 -0.3525
 1241loPI   C6A19852  10.340  14.954   8.507  0.0740  0.1836 -0.0749
 1241loPI   C1B19853   9.692  14.429   6.472 -0.1186  0.0472 -0.1405
 1241loPI   C2B19854   9.727  14.470   6.913 -0.0842  0.1923  0.0355
 1241loPI   C3B19855   9.710  14.505   7.304 -0.1466  0.0416  0.5224
 1241loPI   C4B19856   9.725  14.508   7.793 -0.1752 -0.0142 -0.2374
 1242loPI    C119857  17.468   6.483   5.361 -0.1595  0.1796  0.1483
 1242loPI    C219858  17.534   6.822   5.159  0.0593  0.0733  0.0388
 1242loPI    C319859  17.524   6.472   4.966  0.0386 -0.0050  0.1799
 1242loPI   PO419860  17.627   6.523   5.608  0.2441 -0.1071 -0.4958
 1242loPI   GL119861  17.542   6.800   5.979  0.0709  0.2802  0.0806
 1242loPI   GL219862  17.284   6.669   6.008  0.1824  0.2320 -0.0995
 1242loPI   C1A19863  17.390   7.025   6.309 -0.1358 -0.0340 -0.1190
 1242loPI   C2A19864  17.223   7.156   6.740 -0.2549 -0.0189  0.1085
 1242loPI   C3A19865  17.239   7.161   7.236 -0.3719  0.1101  0.2583
 1242loPI   C4A19866  17.165   7.220   7.672 -0.0774 -0.2250  0.0375
 1242loPI   C5A19867  17.016   7.171   8.093 -0.1538 -0.2119 -0.0550
 1242loPI   C6A19868  16.996   6.988   8.496 -0.1020  0.0359 -0.1225
 1242loPI   C1B19869  17.247   6.626   6.550  0.0517 -0.0563  0.1013
 1242loPI   C2B19870  17.319   6.713   6.996  0.2385  0.3002 -0.1336
 1242loPI   C3B19871  17.218   6.697   7.439 -0.0353 -0.1672  0.1037
 1242loPI   C4B19872  17.148   6.759   7.896  0.1109  0.1186 -0.0257
 1243loPI    C119873   8.932   3.373   5.315 -0.0870  0.2206  0.0630
 1243loPI    C219874   9.284   3.517   5.190  0.0225 -0.0605  0.0398
 1243loPI    C319875   8.962   3.541   4.953  0.0638  0.0487 -0.0061
 1243loPI   PO419876   8.908   3.378   5.576 -0.1047 -0.0920 -0.0821
 1243loPI   GL119877   8.812   3.211   6.023 -0.3531  0.1644 -0.0587
 1243loPI   GL219878   9.095   2.997   5.927  0.2527  0.1355  0.0220
 1243loPI   C1A19879   8.632   3.249   6.492  0.1222 -0.1610 -0.0495
 1243loPI   C2A19880   8.769   3.278   6.931  0.1276 -0.2126  0.0205
 1243loPI   C3A19881   8.800   3.300   7.385 -0.2310  0.2786  0.0638
 1243loPI   C4A19882   8.782   3.226   7.887  0.1496 -0.2027 -0.0727
 1243loPI   C5A19883   9.082   3.065   8.176 -0.0422  0.0127 -0.0687
 1243loPI   C6A19884   9.461   3.157   8.090  0.1597  0.1509 -0.0321
 1243loPI   C1B19885   9.129   3.079   6.323  0.2045 -0.2796  0.0322
 1243loPI   C2B19886   9.273   3.125   6.726  0.2537  0.2135  0.0190
 1243loPI   C3B19887   9.256   3.122   7.212 -0.1114 -0.1950  0.0746
 1243loPI   C4B19888   9.270   3.096   7.632  0.1275  0.1257  0.3224
 1244loPI    C119889   9.189  13.962   5.725  0.0701  0.0513  0.0002
 1244loPI    C219890   9.359  14.030   5.369  0.2498 -0.0816  0.0591
 1244loPI    C319891   8.960  14.021   5.402  0.2298  0.1440 -0.0973
 1244loPI   PO419892   9.350  13.860   5.841  0.1524 -0.2276 -0.1725
 1244loPI   GL119893   9.543  14.102   6.082 -0.0555  0.1120  0.2031
 1244loPI   GL219894   9.713  13.995   6.311  0.0220  0.3159  0.2335
 1244loPI   C1A19895   9.291  14.132   6.507 -0.4565  0.1895 -0.2197
 1244loPI   C2A19896   9.311  14.103   6.947  0.0950 -0.1354  0.2688
 1244loPI   C3A19897   9.350  14.253   7.398 -0.2224 -0.1504  0.3389
 1244loPI   C4A19898   9.300  14.222   7.748 -0.1912 -0.0831 -0.1606
 1244loPI   C5A19899   9.263  14.200   8.162 -0.0577  0.0275  0.3681
 1244loPI   C6A19900   9.457  14.484   8.355 -0.0526  0.1208  0.4033
 1244loPI   C1B19901   9.746  13.996   6.755 -0.2067 -0.2231  0.2940
 1244loPI   C2B19902   9.805  14.024   7.167  0.1525 -0.0424  0.1245
 1244loPI   C3B19903   9.720  13.999   7.643  0.0914  0.2656 -0.2057
 1244loPI   C4B19904   9.762  14.056   8.090 -0.0019  0.0277  0.2060
 1245loPI    C119905  15.453  13.632   5.467  0.5133 -0.0808 -0.1025
 1245loPI    C219906  15.227  13.356   5.286  0.0486  0.1759  0.0699
 1245loPI    C319907  15.319  13.696   5.096  0.2282  0.1058  0.0294
 1245loPI   PO419908  15.403  13.667   5.720  0.0370  0.1077  0.1177
 1245loPI   GL119909  15.377  13.473   6.188 -0.0963  0.0624 -0.1619
 1245loPI   GL219910  15.456  13.194   6.177  0.1583  0.1512  0.2023
 1245loPI   C1A19911  15.360  13.659   6.541 -0.0145 -0.0774  0.0874
 1245loPI   C2A19912  15.384  13.724   6.872  0.0375  0.0718 -0.1024
 1245loPI   C3A19913  15.220  13.700   7.271  0.0386  0.0115 -0.0985
 1245loPI   C4A19914  15.250  13.767   7.747  0.1092 -0.2417  0.0212
 1245loPI   C5A19915  15.293  13.772   8.138  0.0337  0.0916  0.1805
 1245loPI   C6A19916  15.388  13.453   8.462 -0.1115 -0.0764  0.0312
 1245loPI   C1B19917  15.455  13.147   6.610 -0.1407 -0.0567  0.2168
 1245loPI   C2B19918  15.387  13.230   7.066  0.0900  0.2896  0.1238
 1245loPI   C3B19919  15.332  13.224   7.497 -0.1433 -0.1811  0.1040
 1245loPI   C4B19920  15.308  13.209   7.947  0.1008 -0.3217 -0.0555
 1246loPI    C119921   9.431   7.424   5.419  0.0729 -0.1321  0.0788
 1246loPI    C219922   9.363   7.054   5.284 -0.0175 -0.0127 -0.2113
 1246loPI    C319923   9.488   7.339   5.032 -0.0956  0.1922 -0.0215
 1246loPI   PO419924   9.611   7.450   5.578 -0.1442 -0.2137 -0.2842
 1246loPI   GL119925   9.841   7.647   5.923 -0.2152 -0.1023  0.1859
 1246loPI   GL219926   9.790   7.947   6.030 -0.2266  0.0776 -0.1587
 1246loPI   C1A19927   9.908   7.561   6.356  0.1917  0.1373  0.6527
 1246loPI   C2A19928   9.855   7.605   6.798  0.2743  0.1329  0.2037
 1246loPI   C3A19929   9.898   7.727   7.222 -0.3257  0.0951  0.0280
 1246loPI   C4A19930   9.920   7.720   7.648 -0.3807  0.0512 -0.3253
 1246loPI   C5A19931  10.254   7.738   7.984 -0.2702  0.2514  0.1183
 1246loPI   C6A19932  10.291   7.610   8.499  0.0405 -0.0194 -0.0793
 1246loPI   C1B19933   9.831   8.100   6.456 -0.2145  0.0313  0.2257
 1246loPI   C2B19934   9.783   8.139   6.922 -0.1499 -0.2469  0.0387
 1246loPI   C3B19935   9.810   8.283   7.247  0.2976  0.0970 -0.3118
 1246loPI   C4B19936   9.889   8.281   7.595 -0.1046  0.4818  0.1089
 1247loPI    C119937  15.967  11.826   5.232  0.1700  0.3123  0.3806
 1247loPI    C219938  16.290  11.745   5.010 -0.0940  0.0820  0.0716
 1247loPI    C319939  15.980  11.940   4.849 -0.3274 -0.1691  0.2079
 1247loPI   PO419940  16.081  11.878   5.503 -0.3453  0.2284  0.3096
 1247loPI   GL119941  15.971  11.744   5.848 -0.0682  0.2966  0.2312
 1247loPI   GL219942  15.673  11.676   5.895  0.0667  0.1431 -0.2888
 1247loPI   C1A19943  15.969  11.936   6.378  0.1669 -0.2211  0.0569
 1247loPI   C2A19944  15.945  11.994   6.876 -0.1576 -0.0316 -0.2495
 1247loPI   C3A19945  15.940  12.046   7.359  0.2336  0.4365  0.0617
 1247loPI   C4A19946  15.941  11.984   7.766 -0.2799  0.1145 -0.0672
 1247loPI   C5A19947  15.628  11.715   8.099  0.0464  0.0263  0.2462
 1247loPI   C6A19948  15.531  11.931   8.463  0.1029 -0.0093 -0.0032
 1247loPI   C1B19949  15.612  11.543   6.362 -0.1989  0.0456 -0.1483
 1247loPI   C2B19950  15.588  11.666   6.688 -0.1818 -0.0391 -0.0129
 1247loPI   C3B19951  15.587  11.692   7.087 -0.1557  0.1791 -0.0523
 1247loPI   C4B19952  15.505  11.840   7.550 -0.1013 -0.0401 -0.2012
 1248loPI    C119953   5.558  13.300   5.622  0.0289  0.2543 -0.0934
 1248loPI    C219954   5.362  13.003   5.439 -0.0947  0.2238  0.0868
 1248loPI    C319955   5.758  13.035   5.399 -0.0983  0.1143 -0.0430
 1248loPI   PO419956   5.652  13.340   5.840  0.1783  0.2663 -0.1717
 1248loPI   GL119957   5.798  13.626   6.148 -0.0495  0.2003 -0.1806
 1248loPI   GL219958   5.656  13.925   6.273  0.1241 -0.2275 -0.1715
 1248loPI   C1A19959   6.092  13.373   6.458 -0.1417 -0.0607 -0.0693
 1248loPI   C2A19960   6.191  13.413   6.826 -0.0651 -0.1085 -0.3299
 1248loPI   C3A19961   6.151  13.392   7.313 -0.0904  0.2777 -0.1271
 1248loPI   C4A19962   6.376  13.502   7.682  0.0860 -0.2056 -0.0569
 1248loPI   C5A19963   6.385  13.402   8.145  0.0880 -0.0092  0.0991
 1248loPI   C6A19964   6.288  13.157   8.531 -0.3006 -0.0602  0.0867
 1248loPI   C1B19965   5.649  14.176   6.657 -0.2349 -0.0359  0.3269
 1248loPI   C2B19966   5.738  14.186   7.137 -0.0335 -0.0602 -0.0219
 1248loPI   C3B19967   5.774  14.144   7.574 -0.2063  0.0308 -0.1657
 1248loPI   C4B19968   5.664  14.277   8.019  0.0945  0.1690 -0.0569
 1249loPI    C119969   9.873   6.307   4.868  0.0208 -0.0008 -0.1371
 1249loPI    C219970   9.528   6.292   4.666  0.0631  0.2028 -0.2269
 1249loPI    C319971   9.863   6.148   4.500  0.0282  0.0324 -0.1517
 1249loPI   PO419972   9.851   6.146   5.176 -0.0300 -0.1775 -0.1130
 1249loPI   GL119973   9.898   6.086   5.582  0.1555 -0.0700 -0.2955
 1249loPI   GL219974  10.171   6.006   5.807  0.1524  0.0808 -0.0772
 1249loPI   C1A19975   9.900   6.427   5.898  0.4085 -0.0582 -0.2990
 1249loPI   C2A19976   9.984   6.565   6.299  0.0979 -0.0364  0.2218
 1249loPI   C3A19977  10.083   6.622   6.759 -0.0056 -0.2042  0.1372
 1249loPI   C4A19978  10.020   6.593   7.178  0.1187 -0.0775 -0.0411
 1249loPI   C5A19979  10.040   6.654   7.556  0.2079 -0.1650  0.1551
 1249loPI   C6A19980  10.065   6.868   7.929  0.2135 -0.2643  0.1243
 1249loPI   C1B19981  10.120   6.047   6.250  0.0196  0.3374 -0.2290
 1249loPI   C2B19982  10.145   6.075   6.782 -0.1366  0.1154 -0.0128
 1249loPI   C3B19983  10.203   6.106   7.074  0.1373 -0.1118 -0.2103
 1249loPI   C4B19984  10.150   6.137   7.530 -0.1686 -0.0587 -0.0669
 1250loPI    C119985  17.518   2.882   5.529  0.0845 -0.0120  0.0721
 1250loPI    C219986  17.774   3.005   5.247  0.0796  0.0544  0.0965
 1250loPI    C319987  17.398   2.912   5.148  0.0397  0.2062  0.1018
 1250loPI   PO419988  17.576   2.987   5.718 -0.1218 -0.1670  0.3605
 1250loPI   GL119989  17.734   2.956   6.180  0.0484  0.0619  0.2843
 1250loPI   GL219990  17.390   3.075   6.276 -0.1079 -0.0404  0.1311
 1250loPI   C1A19991  17.761   2.978   6.616  0.1215 -0.1302  0.0758
 1250loPI   C2A19992  17.762   2.986   7.042  0.2995  0.1198 -0.0582
 1250loPI   C3A19993  17.830   3.021   7.503  0.1471 -0.2605 -0.2320
 1250loPI   C4A19994  17.881   2.867   7.897 -0.2042 -0.0392  0.2637
 1250loPI   C5A19995  18.161   2.675   8.228 -0.0375  0.0995 -0.2225
 1250loPI   C6A19996  18.063   2.376   8.559  0.1195 -0.1783 -0.2822
 1250loPI   C1B19997  17.245   3.120   6.722 -0.0570  0.1267 -0.1594
 1250loPI   C2B19998  17.323   3.212   7.157  0.0753 -0.0584  0.2068
 1250loPI   C3B19999  17.378   3.239   7.624 -0.0291  0.0588 -0.1215
 1250loPI   C4B20000  17.469   3.041   8.060 -0.0884  0.0067  0.6297
 1251loPI    C120001   1.632   1.599   5.300  0.0502  0.0005  0.1205
 1251loPI    C220002   1.594   1.855   4.995  0.1551  0.1117  0.1997
 1251loPI    C320003   1.827   1.532   4.957  0.0163  0.0227  0.0968
 1251loPI   PO420004   1.571   1.780   5.504 -0.1712  0.0888 -0.0981
 1251loPI   GL120005   1.590   1.860   5.946 -0.0826 -0.0620 -0.3123
 1251loPI   GL220006   1.754   2.128   6.134  0.3535 -0.1450 -0.0716
 1251loPI   C1A20007   1.290   1.842   6.190  0.1685  0.0376 -0.3661
 1251loPI   C2A20008   1.255   1.907   6.548 -0.1041  0.0037  0.2373
 1251loPI   C3A20009   1.251   2.061   7.005  0.1265 -0.0438 -0.0826
 1251loPI   C4A20010   1.282   1.916   7.437 -0.0607  0.2586  0.2909
 1251loPI   C5A20011   1.409   1.810   7.842  0.0992 -0.3147 -0.0251
 1251loPI   C6A20012   1.570   1.671   8.175  0.0408  0.0569  0.2254
 1251loPI   C1B20013   1.693   2.205   6.513 -0.1513 -0.2063 -0.1425
 1251loPI   C2B20014   1.719   2.332   6.884 -0.0368  0.2064  0.1419
 1251loPI   C3B20015   1.674   2.245   7.264  0.0409 -0.0591 -0.0755
 1251loPI   C4B20016   1.690   2.227   7.692  0.2555  0.1977  0.4919
 1252loPI    C120017   5.488  10.595   5.759 -0.1109 -0.0021  0.0478
 1252loPI    C220018   5.444  10.238   5.584  0.0069  0.0422 -0.0739
 1252loPI    C320019   5.646  10.528   5.398  0.0597  0.1179  0.0990
 1252loPI   PO420020   5.435  10.469   6.057  0.1368 -0.0396  0.1258
 1252loPI   GL120021   5.525  10.278   6.428 -0.0602  0.1729 -0.2422
 1252loPI   GL220022   5.845  10.176   6.491 -0.2344 -0.1744 -0.0538
 1252loPI   C1A20023   5.430  10.261   6.845  0.0393  0.1120 -0.1782
 1252loPI   C2A20024   5.605  10.322   7.251 -0.2091 -0.2985  0.1187
 1252loPI   C3A20025   5.380  10.381   7.722 -0.2265  0.0857 -0.2676
 1252loPI   C4A20026   5.250  10.487   8.173 -0.2215  0.1121  0.4007
 1252loPI   C5A20027   4.968  10.715   8.395  0.1244  0.6121  0.0575
 1252loPI   C6A20028   4.541  10.633   8.654  0.1402  0.0343 -0.2567
 1252loPI   C1B20029   5.917  10.148   6.920 -0.2020 -0.0984 -0.1245
 1252loPI   C2B20030   6.063  10.130   7.386  0.1265 -0.0303 -0.2908
 1252loPI   C3B20031   5.854  10.247   7.858 -0.0480  0.0030  0.1135
 1252loPI   C4B20032   5.965  10.316   8.267 -0.1238  0.1455  0.4266
 1253loPI    C120033  10.333  11.384   5.712  0.0192 -0.2528 -0.1363
 1253loPI    C220034  10.088  11.524   5.428  0.0137 -0.2316 -0.1212
 1253loPI    C320035  10.442  11.366   5.328  0.1966  0.1613 -0.1104
 1253loPI   PO420036  10.182  11.415   5.883 -0.2344 -0.3408 -0.2969
 1253loPI   GL120037  10.214  11.519   6.277 -0.0256 -0.1083  0.0330
 1253loPI   GL220038  10.154  11.892   6.323 -0.1145 -0.2946 -0.4238
 1253loPI   C1A20039  10.225  11.371   6.682  0.0293  0.1498 -0.1907
 1253loPI   C2A20040  10.198  11.380   7.110  0.0949 -0.1318  0.1760
 1253loPI   C3A20041  10.245  11.516   7.430 -0.0084  0.1940 -0.0036
 1253loPI   C4A20042  10.196  11.502   7.953 -0.0062  0.0224  0.0557
 1253loPI   C5A20043  10.161  11.519   8.433  0.0161  0.0630 -0.0944
 1253loPI   C6A20044  10.473  11.602   8.773  0.2601  0.0612  0.1232
 1253loPI   C1B20045  10.118  11.965   6.789 -0.2148  0.0026 -0.1322
 1253loPI   C2B20046  10.144  11.952   7.231  0.1651  0.0767 -0.2221
 1253loPI   C3B20047  10.061  11.995   7.710 -0.3147  0.0614 -0.0144
 1253loPI   C4B20048  10.022  11.933   8.164 -0.1754  0.0194 -0.0545
 1254loPI    C120049  12.332   5.982   5.306  0.0875 -0.3497  0.1424
 1254loPI    C220050  12.214   5.738   5.011  0.0593  0.1532 -0.2770
 1254loPI    C320051  12.475   6.033   4.936  0.2339  0.1470  0.2590
 1254loPI   PO420052  12.156   6.013   5.466  0.0359  0.1398  0.0602
 1254loPI   GL120053  11.912   5.916   5.869  0.0829  0.2470 -0.0547
 1254loPI   GL220054  11.568   5.829   5.757  0.3242 -0.0779  0.0645
 1254loPI   C1A20055  11.955   5.793   6.284  0.1730  0.1787  0.1247
 1254loPI   C2A20056  11.969   5.861   6.707  0.1827  0.0161  0.1146
 1254loPI   C3A20057  12.069   5.834   7.003 -0.1200 -0.0120 -0.1335
 1254loPI   C4A20058  12.027   5.961   7.369 -0.0436  0.1498 -0.1823
 1254loPI   C5A20059  12.018   6.056   7.867  0.2481 -0.0733  0.0172
 1254loPI   C6A20060  11.974   6.371   8.193  0.3171  0.2745  0.1212
 1254loPI   C1B20061  11.512   6.000   6.160  0.2150 -0.3237 -0.0280
 1254loPI   C2B20062  11.489   6.008   6.604  0.5098 -0.2897 -0.2042
 1254loPI   C3B20063  11.575   6.018   7.074  0.1943 -0.0019 -0.2166
 1254loPI   C4B20064  11.629   6.182   7.513 -0.0156  0.1303  0.0832
 1255loPI    C120065   8.532  14.339   5.237  0.1123 -0.0488 -0.0805
 1255loPI    C220066   8.216  14.156   5.073  0.0819  0.0963 -0.1861
 1255loPI    C320067   8.586  14.066   4.949  0.0924 -0.1644  0.0244
 1255loPI   PO420068   8.430  14.528   5.416  0.1623  0.3844  0.5473
 1255loPI   GL120069   8.348  14.626   5.857 -0.1977 -0.1806 -0.0374
 1255loPI   GL220070   8.273  14.967   5.959 -0.0392 -0.0667 -0.2412
 1255loPI   C1A20071   8.373  14.519   6.311 -0.1274  0.2515 -0.0246
 1255loPI   C2A20072   8.331  14.582   6.780 -0.0632 -0.1435 -0.3738
 1255loPI   C3A20073   8.299  14.620   7.131  0.1678 -0.1752 -0.4123
 1255loPI   C4A20074   8.330  14.728   7.585 -0.1856  0.1643 -0.0567
 1255loPI   C5A20075   8.370  14.683   8.085 -0.0642 -0.0072 -0.0135
 1255loPI   C6A20076   8.054  14.683   8.351 -0.0016  0.1183 -0.1577
 1255loPI   C1B20077   8.200  14.973   6.395 -0.0345 -0.2557 -0.0931
 1255loPI   C2B20078   8.198  15.068   6.815 -0.0179  0.3871  0.2600
 1255loPI   C3B20079   8.230  15.103   7.207  0.2804  0.2723  0.1151
 1255loPI   C4B20080   8.256  15.212   7.588 -0.0889 -0.2442  0.0402
 1256loPI    C120081  15.162   6.391   5.230 -0.0196 -0.1536  0.0765
 1256loPI    C220082  15.456   6.280   4.982  0.0775  0.0863  0.0809
 1256loPI    C320083  15.106   6.087   4.977  0.1501 -0.0436 -0.0970
 1256loPI   PO420084  15.158   6.468   5.444 -0.0545 -0.0724  0.1814
 1256loPI   GL120085  14.949   6.466   5.777  0.1726  0.1917  0.1955
 1256loPI   GL220086  14.789   6.729   5.836  0.2297 -0.0591  0.0652
 1256loPI   C1A20087  15.054   6.438   6.187  0.1049 -0.0250 -0.0697
 1256loPI   C2A20088  15.059   6.516   6.541 -0.1807 -0.1963  0.1117
 1256loPI   C3A20089  14.953   6.560   6.974  0.1166  0.0902 -0.2483
 1256loPI   C4A20090  15.001   6.558   7.376  0.0819 -0.1608  0.0716
 1256loPI   C5A20091  15.240   6.885   7.685 -0.0092 -0.0100 -0.1467
 1256loPI   C6A20092  14.992   7.223   7.876 -0.0612 -0.0920 -0.1752
 1256loPI   C1B20093  14.647   6.708   6.413  0.1988  0.0766 -0.0905
 1256loPI   C2B20094  14.494   6.675   6.786 -0.2103  0.0573  0.3106
 1256loPI   C3B20095  14.451   6.762   7.111 -0.2253  0.0135  0.4128
 1256loPI   C4B20096  14.575   6.877   7.475 -0.2426 -0.2096  0.1871
 1257loPI    C120097   0.253   4.883   5.205 -0.1024 -0.0874 -0.0049
 1257loPI    C220098  -0.077   4.779   5.003 -0.0781 -0.0345 -0.0722
 1257loPI    C320099   0.284   4.729   4.838 -0.0647  0.1304 -0.0946
 1257loPI   PO420100   0.072   4.801   5.506 -0.0754 -0.0307  0.0513
 1257loPI   GL120101   0.018   4.675   5.862 -0.0799 -0.0237 -0.1593
 1257loPI   GL220102  -0.096   4.914   6.041  0.0926  0.1038 -0.1681
 1257loPI   C1A20103  -0.035   4.405   6.218  0.1493  0.0610  0.0692
 1257loPI   C2A20104   0.027   4.322   6.677 -0.0415  0.0249  0.0482
 1257loPI   C3A20105   0.017   4.432   7.093  0.1238 -0.1160 -0.0161
 1257loPI   C4A20106   0.074   4.317   7.461 -0.0668  0.3317  0.0614
 1257loPI   C5A20107  -0.032   4.241   7.894  0.2000  0.0592  0.0175
 1257loPI   C6A20108  -0.386   4.227   8.157 -0.3090 -0.3291 -0.0477
 1257loPI   C1B20109  -0.027   4.929   6.486 -0.0548 -0.1068 -0.0808
 1257loPI   C2B20110  -0.093   4.860   6.878 -0.0640 -0.0923 -0.3314
 1257loPI   C3B20111   0.000   4.936   7.275  0.1526  0.2653 -0.2928
 1257loPI   C4B20112  -0.017   4.842   7.684 -0.3547  0.2381  0.0667
 1258loPI    C120113   7.189   4.791   5.232 -0.1295  0.3125  0.2890
 1258loPI    C220114   7.448   5.076   5.121  0.0216  0.1371  0.1868
 1258loPI    C320115   7.129   4.994   4.892  0.1654 -0.0113  0.0362
 1258loPI   PO420116   7.230   4.814   5.491 -0.0102 -0.0297 -0.2079
 1258loPI   GL120117   7.155   4.666   5.767  0.0000 -0.0879  0.0047
 1258loPI   GL220118   7.417   4.471   5.875 -0.1126  0.0342 -0.1447
 1258loPI   C1A20119   7.148   4.859   6.210  0.2442 -0.1234  0.2341
 1258loPI   C2A20120   7.150   4.826   6.693  0.0029 -0.1811  0.0059
 1258loPI   C3A20121   7.314   4.770   7.046 -0.0116 -0.0493  0.0132
 1258loPI   C4A20122   7.216   4.783   7.524  0.1744 -0.2059  0.0304
 1258loPI   C5A20123   7.182   4.877   7.890 -0.2066 -0.0155 -0.2873
 1258loPI   C6A20124   7.152   5.093   8.283  0.0305 -0.1409 -0.0381
 1258loPI   C1B20125   7.304   4.334   6.330  0.4086  0.2799 -0.2166
 1258loPI   C2B20126   7.207   4.321   6.763  0.1333 -0.3546 -0.1203
 1258loPI   C3B20127   7.249   4.289   7.203 -0.0659 -0.0615  0.1270
 1258loPI   C4B20128   7.300   4.338   7.593  0.6784  0.1077 -0.0725
 1259loPI    C120129   4.574  14.271   5.534 -0.1165  0.0007 -0.0443
 1259loPI    C220130   4.852  14.474   5.330 -0.1645  0.0419 -0.0685
 1259loPI    C320131   4.770  14.095   5.232 -0.0291 -0.0106  0.0184
 1259loPI   PO420132   4.650  14.361   5.874 -0.2491 -0.0645  0.1597
 1259loPI   GL120133   4.535  14.363   6.319  0.2193  0.0814  0.0341
 1259loPI   GL220134   4.235  14.322   6.383 -0.1227 -0.2167 -0.0250
 1259loPI   C1A20135   4.685  14.500   6.681 -0.3748 -0.0362 -0.1814
 1259loPI   C2A20136   4.810  14.562   7.074  0.1847  0.4208 -0.0550
 1259loPI   C3A20137   4.709  14.647   7.448  0.0545 -0.0408  0.1457
 1259loPI   C4A20138   4.884  14.526   7.821  0.3408  0.0851 -0.0601
 1259loPI   C5A20139   5.146  14.495   8.153  0.2594 -0.2632 -0.3100
 1259loPI   C6A20140   5.239  14.169   8.415 -0.0109 -0.3345 -0.0136
 1259loPI   C1B20141   4.175  14.323   6.803 -0.0910 -0.1322 -0.1050
 1259loPI   C2B20142   4.441  14.242   7.123  0.0494  0.2075  0.1563
 1259loPI   C3B20143   4.444  14.305   7.561 -0.0059 -0.2556 -0.0232
 1259loPI   C4B20144   4.412  14.501   7.964 -0.0850 -0.1369 -0.0292
 1260loPI    C120145   9.941  12.427   5.727  0.0230 -0.3911 -0.0342
 1260loPI    C220146   9.622  12.492   5.495  0.0555  0.3838  0.1124
 1260loPI    C320147   9.958  12.343   5.337 -0.3606 -0.4505 -0.0418
 1260loPI   PO420148   9.833  12.358   5.920 -0.1562  0.0858  0.0452
 1260loPI   GL120149   9.655  12.440   6.237 -0.2277  0.2682  0.4298
 1260loPI   GL220150   9.838  12.653   6.323 -0.3749  0.2455  0.2557
 1260loPI   C1A20151   9.559  12.546   6.728 -0.0008 -0.0477  0.1147
 1260loPI   C2A20152   9.547  12.628   7.246 -0.1602 -0.1192  0.2438
 1260loPI   C3A20153   9.537  12.717   7.729 -0.0961  0.2234  0.1056
 1260loPI   C4A20154   9.549  12.764   8.105 -0.0559 -0.2518 -0.1177
 1260loPI   C5A20155   9.456  12.811   8.422  0.0351 -0.0296 -0.3229
 1260loPI   C6A20156   9.309  12.957   8.820 -0.1377  0.1385  0.1413
 1260loPI   C1B20157   9.916  12.887   6.644 -0.1464 -0.1587 -0.1822
 1260loPI   C2B20158   9.877  12.930   7.080  0.0085 -0.0761  0.0948
 1260loPI   C3B20159   9.884  13.040   7.483 -0.1172  0.1484 -0.3242
 1260loPI   C4B20160   9.928  13.079   7.949  0.1777 -0.2243 -0.0221
 1261loPI    C120161   9.923  17.263   5.331 -0.0376 -0.1867  0.1151
 1261loPI    C220162   9.829  17.651   5.350  0.2041 -0.1198 -0.0150
 1261loPI    C320163   9.559  17.387   5.219  0.0143 -0.0068  0.1422
 1261loPI   PO420164   9.955  17.184   5.630  0.2210  0.3548 -0.0221
 1261loPI   GL120165   9.991  17.591   5.883 -0.0004 -0.0050 -0.1155
 1261loPI   GL220166   9.745  17.483   6.168  0.1349 -0.0513  0.2381
 1261loPI   C1A20167  10.149  17.781   6.259  0.1439  0.0449 -0.1218
 1261loPI   C2A20168  10.024  17.700   6.662 -0.2299  0.3089 -0.0740
 1261loPI   C3A20169  10.146  17.820   7.037 -0.1260 -0.3607  0.1339
 1261loPI   C4A20170  10.305  17.815   7.467  0.1338 -0.0909 -0.0788
 1261loPI   C5A20171  10.253  17.730   7.953 -0.1287 -0.1087  0.2321
 1261loPI   C6A20172   9.907  17.778   8.247  0.0627  0.0466  0.0003
 1261loPI   C1B20173   9.682  17.293   6.560 -0.1633 -0.1135  0.0117
 1261loPI   C2B20174   9.736  17.399   7.020 -0.1141 -0.0903 -0.0918
 1261loPI   C3B20175   9.781  17.491   7.479 -0.2177  0.1595 -0.0141
 1261loPI   C4B20176   9.864  17.401   7.926  0.0499 -0.0757 -0.2561
 1262loPI    C120177  10.840  14.958   5.292 -0.0688  0.0281 -0.2616
 1262loPI    C220178  10.453  15.039   5.349 -0.0645 -0.1674  0.0705
 1262loPI    C320179  10.580  14.915   4.991 -0.3575 -0.3718  0.0339
 1262loPI   PO420180  10.912  14.864   5.457  0.0285 -0.2875 -0.0161
 1262loPI   GL120181  11.008  14.844   5.897 -0.4198  0.1082 -0.0342
 1262loPI   GL220182  10.927  14.942   6.238 -0.0509 -0.0364 -0.0410
 1262loPI   C1A20183  11.342  14.747   6.263  0.0236 -0.1236  0.2000
 1262loPI   C2A20184  11.447  14.790   6.761 -0.0180  0.4068  0.3489
 1262loPI   C3A20185  11.412  14.708   7.224 -0.0391 -0.0857  0.1904
 1262loPI   C4A20186  11.473  14.720   7.619 -0.2113 -0.3299  0.0664
 1262loPI   C5A20187  11.496  14.796   8.105 -0.1408  0.1523 -0.0651
 1262loPI   C6A20188  11.395  15.179   8.364 -0.0001  0.0388 -0.1602
 1262loPI   C1B20189  11.009  14.963   6.657  0.1312  0.0250 -0.3928
 1262loPI   C2B20190  10.918  14.951   7.089 -0.3061 -0.1890 -0.2029
 1262loPI   C3B20191  10.961  14.948   7.475 -0.1485  0.0812 -0.2500
 1262loPI   C4B20192  10.982  14.916   7.999  0.0668 -0.1792  0.1584
 1263loPI    C120193  11.784  14.398   5.376 -0.1230  0.2291  0.3275
 1263loPI    C220194  11.969  14.738   5.272 -0.1052  0.0696 -0.1906
 1263loPI    C320195  11.672  14.593   5.046 -0.0679 -0.2964 -0.0139
 1263loPI   PO420196  11.721  14.393   5.536 -0.1655 -0.2648 -0.0908
 1263loPI   GL120197  11.729  14.175   5.897 -0.3737 -0.0757 -0.0442
 1263loPI   GL220198  12.087  14.188   5.793 -0.1303 -0.4107 -0.2751
 1263loPI   C1A20199  11.524  14.174   6.209  0.2432  0.1410 -0.0050
 1263loPI   C2A20200  11.575  14.227   6.623 -0.2009  0.0223  0.2002
 1263loPI   C3A20201  11.449  14.256   7.048 -0.2356  0.1754  0.2453
 1263loPI   C4A20202  11.416  14.266   7.494 -0.2404  0.2351 -0.1741
 1263loPI   C5A20203  11.563  14.303   7.876 -0.0646  0.0053  0.0626
 1263loPI   C6A20204  11.483  14.125   8.293  0.0872  0.2670  0.4029
 1263loPI   C1B20205  12.067  14.359   6.114 -0.1916 -0.0386  0.2437
 1263loPI   C2B20206  12.381  14.422   6.504 -0.2908  0.1419  0.2114
 1263loPI   C3B20207  12.561  14.389   6.905  0.0307  0.1727  0.2029
 1263loPI   C4B20208  12.500  14.409   7.360  0.1186  0.2568 -0.1801
 1264loPI    C120209   4.515  12.402   5.860  0.0131 -0.1402 -0.1009
 1264loPI    C220210   4.337  12.291   5.519  0.0312  0.2731 -0.2507
 1264loPI    C320211   4.712  12.430   5.513  0.0827  0.1483 -0.0403
 1264loPI   PO420212   4.357  12.153   6.065 -0.2052 -0.1538 -0.2144
 1264loPI   GL120213   4.132  11.828   6.210 -0.0906  0.1152  0.1147
 1264loPI   GL220214   3.847  11.807   6.187  0.0830 -0.1898 -0.2333
 1264loPI   C1A20215   4.204  11.888   6.635 -0.1926 -0.2914 -0.2346
 1264loPI   C2A20216   4.281  12.029   7.045 -0.1268 -0.2646  0.1323
 1264loPI   C3A20217   4.467  12.179   7.359  0.0494 -0.1186  0.1676
 1264loPI   C4A20218   4.357  12.156   7.830  0.1786 -0.0021  0.2514
 1264loPI   C5A20219   4.321  11.988   8.212 -0.3164 -0.0719 -0.2681
 1264loPI   C6A20220   4.425  11.666   8.407  0.1300  0.0360 -0.0286
 1264loPI   C1B20221   3.663  11.850   6.563  0.0373  0.2598 -0.1180
 1264loPI   C2B20222   3.750  11.757   6.923 -0.0060  0.1436  0.0767
 1264loPI   C3B20223   4.162  11.581   7.051  0.3083  0.1181  0.1603
 1264loPI   C4B20224   4.563  11.559   7.017 -0.0960 -0.0128  0.0114
 1265loPI    C120225  -0.062   0.272   5.202  0.3092 -0.0027 -0.0665
 1265loPI    C220226   0.155  -0.060   5.149  0.2438 -0.0686  0.0749
 1265loPI    C320227   0.193   0.246   4.895  0.3407 -0.1649 -0.0275
 1265loPI   PO420228  -0.004   0.311   5.452 -0.2139  0.2695  0.1635
 1265loPI   GL120229  -0.120   0.442   5.892 -0.1555  0.1178  0.0313
 1265loPI   GL220230   0.196   0.339   5.977 -0.3264 -0.0746 -0.3808
 1265loPI   C1A20231  -0.259   0.549   6.236  0.0166  0.1060 -0.0744
 1265loPI   C2A20232  -0.314   0.625   6.686  0.3135 -0.1613  0.0548
 1265loPI   C3A20233  -0.308   0.589   7.132 -0.0962 -0.0017  0.0791
 1265loPI   C4A20234  -0.252   0.566   7.544  0.1506  0.1042  0.2180
 1265loPI   C5A20235  -0.189   0.464   7.985  0.0083  0.0416 -0.0201
 1265loPI   C6A20236  -0.466   0.393   8.373 -0.0973  0.0211 -0.0425
 1265loPI   C1B20237   0.163   0.398   6.471 -0.0539 -0.1652 -0.1645
 1265loPI   C2B20238   0.107   0.379   6.900  0.1553 -0.1392  0.1920
 1265loPI   C3B20239   0.173   0.416   7.295  0.1771 -0.1031 -0.2817
 1265loPI   C4B20240   0.226   0.364   7.750 -0.2666  0.0530 -0.0372
 1266loPI    C120241   5.933  13.489   5.375  0.0881  0.0976  0.0278
 1266loPI    C220242   6.134  13.697   5.098  0.1486 -0.0096 -0.0095
 1266loPI    C320243   6.101  13.300   5.065  0.0459 -0.0081  0.0692
 1266loPI   PO420244   6.144  13.496   5.683 -0.1512  0.2232 -0.2103
 1266loPI   GL120245   6.355  13.604   5.961  0.1164  0.1386  0.1201
 1266loPI   GL220246   6.244  13.869   6.009 -0.0604  0.2078  0.0794
 1266loPI   C1A20247   6.563  13.691   6.390  0.2081 -0.2677 -0.1618
 1266loPI   C2A20248   6.624  13.773   6.757 -0.1114  0.2348 -0.2802
 1266loPI   C3A20249   6.588  13.662   7.194 -0.0393  0.0211 -0.2239
 1266loPI   C4A20250   6.681  13.846   7.512 -0.2764 -0.0069 -0.4112
 1266loPI   C5A20251   6.735  13.878   7.926 -0.2616  0.0257 -0.0070
 1266loPI   C6A20252   6.686  13.794   8.387 -0.0545 -0.1185  0.0673
 1266loPI   C1B20253   6.134  13.901   6.449 -0.1620 -0.1444 -0.1596
 1266loPI   C2B20254   6.107  13.926   6.905  0.0823  0.0530  0.1739
 1266loPI   C3B20255   6.144  13.924   7.371 -0.0444  0.2399  0.1828
 1266loPI   C4B20256   6.207  14.033   7.779 -0.0811  0.4233 -0.2240
 1267loPI    C120257   6.532   1.620   5.299  0.2269  0.0452  0.0782
 1267loPI    C220258   6.365   1.490   4.960 -0.1295  0.1660  0.2029
 1267loPI    C320259   6.763   1.480   5.003 -0.0838  0.0910 -0.1913
 1267loPI   PO420260   6.436   1.532   5.524  0.4992  0.0123  0.1763
 1267loPI   GL120261   6.589   1.240   5.881  0.4408  0.0209 -0.0620
 1267loPI   GL220262   6.233   1.377   5.946 -0.0445 -0.1520  0.1871
 1267loPI   C1A20263   6.733   1.048   6.319 -0.1559 -0.0413  0.2155
 1267loPI   C2A20264   6.831   1.051   6.677 -0.0696 -0.0924 -0.2194
 1267loPI   C3A20265   6.811   1.098   7.093 -0.2628 -0.1130 -0.0788
 1267loPI   C4A20266   6.919   1.078   7.498 -0.0628  0.1743  0.0138
 1267loPI   C5A20267   7.000   1.126   7.906  0.1064  0.2482 -0.0781
 1267loPI   C6A20268   7.157   0.994   8.244 -0.0856  0.0374  0.2681
 1267loPI   C1B20269   6.321   1.288   6.307 -0.0604  0.0449  0.1234
 1267loPI   C2B20270   6.273   1.330   6.767  0.1632 -0.0112  0.0394
 1267loPI   C3B20271   6.422   1.353   7.147 -0.2341  0.1426  0.3613
 1267loPI   C4B20272   6.473   1.290   7.524 -0.0368 -0.0161 -0.2088
 1268loPI    C120273   5.408  17.672   5.207 -0.1712 -0.2158 -0.1446
 1268loPI    C220274   5.233  18.028   5.160 -0.0375 -0.1290  0.0065
 1268loPI    C320275   5.513  17.907   4.901  0.0225 -0.0602  0.0386
 1268loPI   PO420276   5.395  17.741   5.502 -0.2799  0.0061 -0.0994
 1268loPI   GL120277   5.384  17.800   5.910  0.1909  0.1558  0.1089
 1268loPI   GL220278   5.692  17.629   5.945 -0.0870 -0.2644 -0.1113
 1268loPI   C1A20279   5.115  17.780   6.298  0.2264 -0.1164 -0.1483
 1268loPI   C2A20280   5.112  17.810   6.739  0.0950  0.0281  0.1048
 1268loPI   C3A20281   5.203  17.796   7.076  0.2326 -0.0288  0.1302
 1268loPI   C4A20282   5.245  17.825   7.513 -0.3636 -0.1387 -0.0686
 1268loPI   C5A20283   5.053  17.696   7.820  0.1080 -0.1799 -0.0231
 1268loPI   C6A20284   4.707  17.471   7.893  0.2631  0.3597  0.3064
 1268loPI   C1B20285   5.590  17.640   6.449  0.0979 -0.0071 -0.5105
 1268loPI   C2B20286   5.685  17.577   6.935 -0.1031 -0.1528  0.1372
 1268loPI   C3B20287   5.707  17.738   7.348  0.1064 -0.1849 -0.1973
 1268loPI   C4B20288   5.636  17.663   7.770  0.2507  0.1773 -0.2139
 1269loPI    C120289  12.441  10.839   5.110  0.0141 -0.1227 -0.0791
 1269loPI    C220290  12.711  11.089   4.952  0.0930 -0.0701  0.1357
 1269loPI    C320291  12.340  11.074   4.803  0.0835  0.1859  0.1303
 1269loPI   PO420292  12.412  10.785   5.416 -0.1761 -0.1194 -0.0572
 1269loPI   GL120293  12.398  10.895   5.818  0.0083 -0.0502  0.1727
 1269loPI   GL220294  12.075  10.699   5.811  0.0985  0.0411  0.0716
 1269loPI   C1A20295  12.542  11.017   6.209  0.1349  0.2579 -0.0472
 1269loPI   C2A20296  12.577  10.937   6.537 -0.0584  0.2996 -0.0152
 1269loPI   C3A20297  12.500  10.965   6.975 -0.3030  0.2226  0.1595
 1269loPI   C4A20298  12.476  11.039   7.425 -0.3262  0.3758 -0.0749
 1269loPI   C5A20299  12.426  11.083   7.863 -0.1918 -0.1612  0.3412
 1269loPI   C6A20300  12.527  11.050   8.329  0.1721 -0.1390 -0.0325
 1269loPI   C1B20301  12.123  10.657   6.299 -0.2031  0.3326  0.0378
 1269loPI   C2B20302  12.119  10.691   6.756 -0.0236  0.1779  0.0789
 1269loPI   C3B20303  12.069  10.690   7.189 -0.2437  0.0701 -0.0070
 1269loPI   C4B20304  12.039  10.657   7.642 -0.3823 -0.0394 -0.2393
 1270loPI    C120305  12.432  10.202   5.000  0.0004  0.1038  0.0272
 1270loPI    C220306  12.074  10.029   4.961  0.1234 -0.1852  0.1482
 1270loPI    C320307  12.376   9.918   4.724  0.1505  0.0159  0.0864
 1270loPI   PO420308  12.427  10.264   5.201 -0.0787  0.0171 -0.3739
 1270loPI   GL120309  12.603  10.418   5.662  0.1712 -0.1467 -0.2807
 1270loPI   GL220310  12.347  10.323   5.685 -0.1548 -0.1042 -0.2752
 1270loPI   C1A20311  12.691  10.467   6.103  0.1621 -0.1368  0.1504
 1270loPI   C2A20312  12.675  10.468   6.537  0.0220  0.1298 -0.2005
 1270loPI   C3A20313  12.645  10.482   6.917  0.0655  0.1978  0.0914
 1270loPI   C4A20314  12.560  10.561   7.349  0.1916 -0.1580  0.2070
 1270loPI   C5A20315  12.625  10.633   7.691 -0.1411  0.1256 -0.1766
 1270loPI   C6A20316  12.627  10.517   8.107  0.1417  0.1382 -0.0355
 1270loPI   C1B20317  12.212  10.157   6.119  0.4023 -0.1563  0.0196
 1270loPI   C2B20318  12.257  10.212   6.558  0.3376  0.0175  0.2006
 1270loPI   C3B20319  12.171  10.147   7.011  0.1525  0.0906  0.0169
 1270loPI   C4B20320  12.199  10.196   7.446  0.3228 -0.2917 -0.3350
 1271loPI    C120321   8.831   0.461   5.579 -0.0566 -0.0865  0.0101
 1271loPI    C220322   9.069   0.533   5.266  0.0194  0.0974  0.1088
 1271loPI    C320323   8.674   0.588   5.234 -0.0051 -0.1467 -0.0357
 1271loPI   PO420324   8.848   0.288   5.704  0.0108 -0.2081 -0.1328
 1271loPI   GL120325   9.097   0.204   6.080  0.2083 -0.2219  0.2371
 1271loPI   GL220326   9.083   0.591   6.130  0.0841  0.0046  0.3760
 1271loPI   C1A20327   9.091   0.088   6.377  0.0653  0.0063  0.1329
 1271loPI   C2A20328   9.207   0.004   6.746  0.0775  0.2029 -0.1153
 1271loPI   C3A20329   9.255   0.201   7.198  0.0289  0.2877  0.1544
 1271loPI   C4A20330   9.315   0.195   7.641 -0.0189 -0.1185 -0.4061
 1271loPI   C5A20331   9.069   0.094   7.955 -0.2652  0.2685 -0.1069
 1271loPI   C6A20332   8.839  -0.286   8.080  0.1482 -0.0693 -0.2152
 1271loPI   C1B20333   9.037   0.596   6.647 -0.1736  0.1935  0.2057
 1271loPI   C2B20334   9.229   0.712   7.024  0.1913  0.0169  0.3460
 1271loPI   C3B20335   9.229   0.898   7.480  0.2179 -0.1361 -0.2012
 1271loPI   C4B20336   9.338   0.724   7.891 -0.0327  0.2456 -0.2400
 1272loPI    C120337   2.782   0.747   5.491  0.0474 -0.2515 -0.0361
 1272loPI    C220338   2.655   0.676   5.118 -0.0055  0.1874 -0.1073
 1272loPI    C320339   2.987   0.891   5.179  0.0628  0.0268  0.0990
 1272loPI   PO420340   2.597   0.813   5.617 -0.0911  0.3169 -0.1745
 1272loPI   GL120341   2.476   0.642   6.052 -0.1477  0.1836  0.3682
 1272loPI   GL220342   2.872   0.699   5.986  0.0396 -0.1283  0.1723
 1272loPI   C1A20343   2.351   0.560   6.469  0.2368 -0.1094  0.1211
 1272loPI   C2A20344   2.394   0.493   6.898 -0.0734  0.0734 -0.1633
 1272loPI   C3A20345   2.397   0.547   7.348 -0.0227 -0.0487 -0.3885
 1272loPI   C4A20346   2.336   0.493   7.779 -0.0427 -0.2147 -0.0829
 1272loPI   C5A20347   2.298   0.554   8.264 -0.0563  0.0449  0.0603
 1272loPI   C6A20348   2.400   0.748   8.632  0.1820 -0.4293  0.2450
 1272loPI   C1B20349   2.824   0.803   6.392 -0.0825 -0.1562  0.0987
 1272loPI   C2B20350   2.733   0.848   6.776 -0.4159 -0.1815  0.3647
 1272loPI   C3B20351   2.848   0.885   7.148 -0.2222  0.5423  0.3119
 1272loPI   C4B20352   2.767   0.871   7.655  0.2057 -0.1752  0.2980
 1273loPI    C120353  15.399  10.180   5.462 -0.0757  0.1424 -0.1367
 1273loPI    C220354  15.036  10.097   5.316 -0.0627 -0.2537  0.0447
 1273loPI    C320355  15.363   9.982   5.116 -0.0417 -0.3308  0.1228
 1273loPI   PO420356  15.336  10.431   5.597 -0.0811  0.3669  0.1576
 1273loPI   GL120357  15.427  10.351   6.026  0.1407 -0.1846  0.2782
 1273loPI   GL220358  15.651  10.573   6.168  0.1029  0.2883  0.0886
 1273loPI   C1A20359  15.314  10.170   6.486 -0.3237  0.3048  0.1506
 1273loPI   C2A20360  15.336  10.277   7.027 -0.1476  0.2787  0.3672
 1273loPI   C3A20361  15.379  10.343   7.478  0.0837  0.0311  0.1330
 1273loPI   C4A20362  15.405  10.353   8.020  0.1997  0.0117  0.2105
 1273loPI   C5A20363  15.164  10.383   8.445  0.1625 -0.3403 -0.1560
 1273loPI   C6A20364  14.829  10.336   8.543  0.3791 -0.0485  0.1336
 1273loPI   C1B20365  15.694  10.541   6.607 -0.0472  0.0997 -0.2964
 1273loPI   C2B20366  15.755  10.612   7.026  0.1466  0.0204 -0.0044
 1273loPI   C3B20367  15.723  10.714   7.500  0.0373 -0.2485 -0.0452
 1273loPI   C4B20368  15.733  10.718   7.901 -0.2860  0.3104 -0.1567
 1274loPI    C120369  14.671   6.629   5.366  0.2749  0.0353  0.2507
 1274loPI    C220370  14.708   6.347   5.084 -0.0369  0.0996  0.1419
 1274loPI    C320371  14.820   6.723   5.006  0.0040  0.0894  0.1508
 1274loPI   PO420372  14.402   6.554   5.534 -0.0102  0.2512  0.2715
 1274loPI   GL120373  14.307   6.627   6.005  0.0813  0.2060 -0.1484
 1274loPI   GL220374  14.145   6.896   5.984  0.2709  0.0758  0.1540
 1274loPI   C1A20375  14.175   6.456   6.476  0.0532 -0.5414  0.0759
 1274loPI   C2A20376  14.095   6.329   6.868 -0.2273 -0.0727 -0.0255
 1274loPI   C3A20377  14.063   6.460   7.315 -0.1192  0.3645 -0.1036
 1274loPI   C4A20378  14.099   6.468   7.666 -0.1814 -0.3371  0.1112
 1274loPI   C5A20379  14.327   6.299   7.995  0.1942 -0.1320  0.0159
 1274loPI   C6A20380  14.524   5.950   8.069 -0.0162 -0.1491 -0.0652
 1274loPI   C1B20381  14.051   6.921   6.393  0.0414 -0.2108  0.2807
 1274loPI   C2B20382  13.997   6.998   6.820 -0.2560 -0.0726  0.2973
 1274loPI   C3B20383  14.074   7.070   7.199 -0.1517 -0.0175 -0.0900
 1274loPI   C4B20384  14.021   7.007   7.643  0.0849  0.0778  0.0650
 1275loPI    C120385  15.355   8.371   4.972 -0.1596 -0.2599 -0.0384
 1275loPI    C220386  15.463   8.639   4.695 -0.2404  0.0516  0.2254
 1275loPI    C320387  15.221   8.337   4.596 -0.0429 -0.0033 -0.1058
 1275loPI   PO420388  15.277   8.519   5.177 -0.0175  0.0274 -0.0817
 1275loPI   GL120389  15.211   8.598   5.588  0.2372 -0.3453  0.2512
 1275loPI   GL220390  14.990   8.725   5.758  0.2671 -0.0668 -0.0406
 1275loPI   C1A20391  15.195   8.409   6.080 -0.0804  0.1522 -0.3769
 1275loPI   C2A20392  15.097   8.357   6.443 -0.0102  0.1482  0.0304
 1275loPI   C3A20393  15.217   8.325   6.928  0.1391 -0.1192  0.1313
 1275loPI   C4A20394  15.129   8.451   7.341  0.1239 -0.1365 -0.3224
 1275loPI   C5A20395  15.203   8.496   7.799 -0.0782 -0.2010  0.1531
 1275loPI   C6A20396  15.423   8.644   8.173  0.0341  0.0891 -0.0567
 1275loPI   C1B20397  15.031   8.827   6.135  0.0252  0.1213 -0.2298
 1275loPI   C2B20398  15.058   8.892   6.569 -0.0910  0.0711 -0.2243
 1275loPI   C3B20399  15.103   8.949   6.949  0.1058  0.2737  0.0038
 1275loPI   C4B20400  15.182   8.958   7.455  0.0232 -0.1655 -0.0325
 1276loPI    C120401  17.002   5.583   5.553  0.0684 -0.0984  0.0931
 1276loPI    C220402  16.875   5.900   5.345  0.0723 -0.0884  0.1058
 1276loPI    C320403  16.963   5.559   5.156  0.3162 -0.0021  0.0614
 1276loPI   PO420404  16.838   5.572   5.741 -0.1173  0.5217 -0.0100
 1276loPI   GL120405  16.870   5.459   6.142 -0.1045 -0.0675 -0.2172
 1276loPI   GL220406  16.593   5.348   6.188  0.1332 -0.2788 -0.0154
 1276loPI   C1A20407  16.935   5.795   6.407 -0.0900 -0.1031 -0.0984
 1276loPI   C2A20408  17.047   5.791   6.813  0.0598 -0.4562  0.0715
 1276loPI   C3A20409  16.988   5.803   7.185 -0.3090 -0.0017  0.1639
 1276loPI   C4A20410  17.006   5.859   7.626  0.2048  0.0842 -0.0443
 1276loPI   C5A20411  17.081   5.720   8.080 -0.0390  0.1747 -0.0462
 1276loPI   C6A20412  16.889   5.610   8.467  0.0665 -0.0147 -0.3325
 1276loPI   C1B20413  16.605   5.445   6.680  0.3229 -0.1464  0.0851
 1276loPI   C2B20414  16.558   5.503   7.157 -0.0513 -0.0015 -0.1287
 1276loPI   C3B20415  16.554   5.466   7.564  0.2783  0.0812 -0.1549
 1276loPI   C4B20416  16.539   5.527   8.029 -0.2278 -0.0841 -0.1596
 1277loPI    C120417   6.728   8.407   5.738 -0.0185  0.1069 -0.0900
 1277loPI    C220418   6.884   8.776   5.735  0.0330  0.0855 -0.0523
 1277loPI    C320419   6.734   8.619   5.399 -0.1548  0.2109 -0.0286
 1277loPI   PO420420   6.507   8.459   5.988 -0.2146 -0.2586  0.0603
 1277loPI   GL120421   6.469   8.611   6.373 -0.1566  0.2769 -0.0032
 1277loPI   GL220422   6.717   8.434   6.540 -0.0516  0.0259  0.0915
 1277loPI   C1A20423   6.329   8.646   6.740  0.0860  0.0506  0.1487
 1277loPI   C2A20424   6.267   8.589   7.168 -0.4734  0.0106  0.1412
 1277loPI   C3A20425   6.094   8.613   7.608  0.1079 -0.2068  0.0130
 1277loPI   C4A20426   6.037   9.033   7.867 -0.1450  0.1288 -0.0190
 1277loPI   C5A20427   6.145   9.340   8.165 -0.1914  0.0273  0.0118
 1277loPI   C6A20428   6.329   9.550   8.453  0.4562  0.2899 -0.0954
 1277loPI   C1B20429   6.732   8.377   6.954 -0.1010 -0.1501  0.0252
 1277loPI   C2B20430   6.650   8.369   7.392  0.1063 -0.1465 -0.1364
 1277loPI   C3B20431   6.567   8.439   7.815  0.0877 -0.0395  0.1355
 1277loPI   C4B20432   6.280   8.522   8.061  0.0733  0.1524  0.1301
 1278loPI    C120433   0.152   7.850   5.606  0.1232  0.2854  0.2499
 1278loPI    C220434   0.494   7.929   5.414  0.0429  0.1716  0.0564
 1278loPI    C320435   0.162   7.848   5.206 -0.0686  0.1398  0.2443
 1278loPI   PO420436   0.116   8.009   5.778  0.0298 -0.0578 -0.0237
 1278loPI   GL120437   0.222   7.933   6.208  0.0091  0.0651 -0.1989
 1278loPI   GL220438   0.135   8.280   6.279 -0.0386 -0.2006  0.1852
 1278loPI   C1A20439   0.052   7.878   6.610 -0.2646  0.0568  0.0939
 1278loPI   C2A20440   0.050   7.824   7.033  0.1867  0.1032  0.1090
 1278loPI   C3A20441  -0.027   7.773   7.488  0.0419 -0.1086  0.1442
 1278loPI   C4A20442  -0.036   7.852   7.975  0.0648  0.3048 -0.2263
 1278loPI   C5A20443  -0.096   8.107   8.362  0.2478 -0.0427  0.1523
 1278loPI   C6A20444  -0.014   8.568   8.316 -0.0863 -0.0779 -0.0790
 1278loPI   C1B20445  -0.045   8.334   6.674  0.0930 -0.2320  0.1617
 1278loPI   C2B20446   0.048   8.324   7.077 -0.0038  0.0745  0.1169
 1278loPI   C3B20447  -0.070   8.283   7.525  0.3125 -0.1245 -0.1492
 1278loPI   C4B20448  -0.219   8.350   7.966  0.2812 -0.2298  0.1977
 1279loPI    C120449   5.308  13.704   5.749  0.0468  0.1191 -0.1017
 1279loPI    C220450   5.073  13.423   5.588  0.1301  0.0567 -0.1153
 1279loPI    C320451   5.169  13.748   5.377 -0.0967  0.1731 -0.0423
 1279loPI   PO420452   5.306  13.711   6.027 -0.1963 -0.1587 -0.0860
 1279loPI   GL120453   5.310  13.598   6.390 -0.2108 -0.2227 -0.0824
 1279loPI   GL220454   5.258  13.894   6.551  0.1932 -0.0331 -0.0189
 1279loPI   C1A20455   5.699  13.645   6.638  0.1177  0.0161  0.3084
 1279loPI   C2A20456   5.735  13.561   7.060 -0.1312  0.1131  0.3202
 1279loPI   C3A20457   5.391  13.302   7.350  0.1308  0.1361 -0.0701
 1279loPI   C4A20458   5.043  13.147   7.479 -0.0476 -0.0752  0.1397
 1279loPI   C5A20459   4.539  13.201   7.314  0.0029  0.0180  0.2980
 1279loPI   C6A20460   4.288  13.173   7.042 -0.1398  0.2525 -0.0395
 1279loPI   C1B20461   5.303  13.945   7.025 -0.1647 -0.2399 -0.4782
 1279loPI   C2B20462   5.421  13.846   7.424 -0.2261  0.3298  0.1348
 1279loPI   C3B20463   5.787  13.630   7.555 -0.1292 -0.0899  0.1697
 1279loPI   C4B20464   5.971  13.583   7.908  0.3722 -0.0321  0.2812
 1280loPI    C120465   1.288   4.590   5.457  0.0968 -0.2785  0.0439
 1280loPI    C220466   1.197   4.251   5.266 -0.0721  0.0180 -0.4168
 1280loPI    C320467   1.192   4.599   5.069 -0.0360  0.3092  0.0819
 1280loPI   PO420468   1.112   4.603   5.677 -0.0278  0.2021 -0.1901
 1280loPI   GL120469   1.127   4.515   6.103 -0.1446  0.0527 -0.1331
 1280loPI   GL220470   0.739   4.396   5.932  0.1156  0.0436  0.2038
 1280loPI   C1A20471   1.242   4.328   6.546  0.2700 -0.0008  0.1502
 1280loPI   C2A20472   1.401   4.278   6.949 -0.0607 -0.1724  0.1311
 1280loPI   C3A20473   1.382   4.368   7.282  0.3136  0.1736 -0.0784
 1280loPI   C4A20474   1.367   4.342   7.718 -0.5480 -0.0179  0.0069
 1280loPI   C5A20475   1.443   4.317   8.152  0.1733  0.1325 -0.1757
 1280loPI   C6A20476   1.433   4.002   8.444 -0.1449  0.3144  0.1073
 1280loPI   C1B20477   0.712   4.494   6.395  0.2897  0.0542  0.3081
 1280loPI   C2B20478   0.860   4.536   6.765 -0.0989  0.0224  0.0019
 1280loPI   C3B20479   0.900   4.562   7.280 -0.1024  0.0316 -0.1348
 1280loPI   C4B20480   0.900   4.447   7.756  0.2012 -0.1249  0.0222
 1281loPI    C120481   6.509  15.168   5.684 -0.1168  0.1030 -0.1784
 1281loPI    C220482   6.752  15.078   5.379  0.1696 -0.0413  0.0866
 1281loPI    C320483   6.882  15.312   5.677 -0.0814  0.0351  0.1389
 1281loPI   PO420484   6.501  15.008   5.810  0.0304  0.0518  0.1725
 1281loPI   GL120485   6.765  15.034   6.126  0.1652  0.0093 -0.3763
 1281loPI   GL220486   6.773  15.443   6.131 -0.3040  0.0584 -0.4333
 1281loPI   C1A20487   6.916  15.128   6.564 -0.4478 -0.0922  0.0986
 1281loPI   C2A20488   6.906  15.168   7.042 -0.0852 -0.0405  0.0297
 1281loPI   C3A20489   6.888  15.155   7.442 -0.3890  0.1662 -0.2097
 1281loPI   C4A20490   6.915  15.216   7.926 -0.1867  0.0390  0.1710
 1281loPI   C5A20491   6.874  15.489   8.193 -0.1044  0.2034  0.2202
 1281loPI   C6A20492   6.751  15.877   8.320 -0.1900  0.0309  0.0046
 1281loPI   C1B20493   6.720  15.672   6.461 -0.0992 -0.1428 -0.0684
 1281loPI   C2B20494   6.846  15.575   6.802 -0.0054 -0.3063 -0.1602
 1281loPI   C3B20495   6.814  15.656   7.231 -0.3699  0.0028 -0.0601
 1281loPI   C4B20496   6.851  15.673   7.643  0.0917  0.0242 -0.1493
 1282loPI    C120497   4.088   6.177   5.707 -0.3282  0.0424 -0.3394
 1282loPI    C220498   4.146   5.933   5.395 -0.2037 -0.1082 -0.2000
 1282loPI    C320499   4.278   6.310   5.381 -0.1659 -0.1254 -0.3153
 1282loPI   PO420500   4.059   6.088   5.895  0.2638  0.0860  0.4003
 1282loPI   GL120501   4.226   5.825   6.168 -0.2823  0.0036  0.2095
 1282loPI   GL220502   4.367   5.478   6.207 -0.0580 -0.3855  0.1756
 1282loPI   C1A20503   4.307   6.022   6.595  0.0928  0.1654  0.1217
 1282loPI   C2A20504   4.343   6.046   7.021  0.1573  0.2516  0.1489
 1282loPI   C3A20505   4.311   5.988   7.466  0.0123 -0.0704  0.3506
 1282loPI   C4A20506   4.410   5.849   7.908  0.2590  0.0303 -0.0109
 1282loPI   C5A20507   4.590   5.917   8.342  0.0452  0.3975 -0.1560
 1282loPI   C6A20508   4.302   5.688   8.672  0.1513  0.1822 -0.1542
 1282loPI   C1B20509   4.414   5.536   6.598  0.2513 -0.0302  0.1933
 1282loPI   C2B20510   4.447   5.387   7.113  0.2179 -0.4120 -0.0819
 1282loPI   C3B20511   4.441   5.465   7.521 -0.2777 -0.3214  0.1066
 1282loPI   C4B20512   4.602   5.402   8.015  0.2371 -0.2076 -0.1138
 1283loPI    C120513   9.298  15.559   5.437  0.0731  0.0473 -0.1031
 1283loPI    C220514   9.508  15.372   5.153 -0.0259 -0.1093 -0.0743
 1283loPI    C320515   9.475  15.770   5.147 -0.0188 -0.1106 -0.2764
 1283loPI   PO420516   9.397  15.422   5.639 -0.0480 -0.0065  0.2113
 1283loPI   GL120517   9.520  15.593   6.104 -0.2348 -0.0675  0.1111
 1283loPI   GL220518   9.792  15.668   5.958  0.1394 -0.0452 -0.1571
 1283loPI   C1A20519   9.469  15.409   6.459  0.1113  0.1713 -0.0195
 1283loPI   C2A20520   9.562  15.493   6.919 -0.0789  0.0642  0.0022
 1283loPI   C3A20521   9.561  15.661   7.345 -0.3016 -0.0619 -0.2225
 1283loPI   C4A20522   9.408  15.647   7.777  0.0216  0.0791 -0.1434
 1283loPI   C5A20523   9.081  15.782   8.218 -0.0774  0.0356  0.1922
 1283loPI   C6A20524   9.091  15.978   8.578  0.1602  0.2962 -0.1445
 1283loPI   C1B20525   9.933  15.853   6.351 -0.3197  0.1234  0.0678
 1283loPI   C2B20526   9.903  15.844   6.776 -0.1605 -0.1096  0.0882
 1283loPI   C3B20527   9.948  15.964   7.165  0.0085  0.1223 -0.3715
 1283loPI   C4B20528   9.956  15.848   7.577  0.2421  0.0929 -0.3106
 1284loPI    C120529  16.781  11.227   5.400 -0.0194 -0.0117 -0.0473
 1284loPI    C220530  16.635  11.017   5.093  0.0955 -0.1605 -0.0015
 1284loPI    C320531  16.762  11.392   5.037  0.1191 -0.1882 -0.1363
 1284loPI   PO420532  16.684  11.183   5.601  0.0292 -0.0963 -0.1019
 1284loPI   GL120533  16.740  11.360   6.071  0.1035 -0.0988 -0.0346
 1284loPI   GL220534  16.519  11.105   6.165  0.3919  0.2682 -0.1893
 1284loPI   C1A20535  16.899  11.500   6.416 -0.2464  0.0852 -0.0234
 1284loPI   C2A20536  16.989  11.589   6.983  0.2730  0.2848 -0.2902
 1284loPI   C3A20537  16.920  11.575   7.371 -0.1300 -0.0326 -0.0403
 1284loPI   C4A20538  16.777  11.642   7.772  0.2133  0.0449 -0.1241
 1284loPI   C5A20539  16.735  11.542   8.180  0.2783  0.0137  0.1161
 1284loPI   C6A20540  16.902  11.459   8.567  0.0446 -0.1925  0.1973
 1284loPI   C1B20541  16.507  11.209   6.602  0.3390  0.0374  0.5054
 1284loPI   C2B20542  16.570  11.215   7.050  0.1393 -0.0353  0.0093
 1284loPI   C3B20543  16.399  11.323   7.429  0.1818 -0.1244  0.0338
 1284loPI   C4B20544  16.443  11.282   7.870 -0.0756  0.2115 -0.1854
 1285loPI    C120545   6.594  16.278   5.621  0.1687 -0.0734  0.0359
 1285loPI    C220546   6.425  16.403   5.281  0.1370  0.0847  0.1089
 1285loPI    C320547   6.266  16.096   5.482 -0.0256  0.1887  0.1415
 1285loPI   PO420548   6.608  16.415   5.787  0.1206 -0.0441  0.0167
 1285loPI   GL120549   6.873  16.708   6.047 -0.0822  0.0090  0.0815
 1285loPI   GL220550   7.047  16.967   6.046  0.0593 -0.0889  0.3665
 1285loPI   C1A20551   6.700  16.660   6.445  0.2184  0.0647 -0.0988
 1285loPI   C2A20552   6.632  16.767   6.863  0.2965 -0.1450 -0.2642
 1285loPI   C3A20553   6.652  16.760   7.316  0.0771  0.1775 -0.2539
 1285loPI   C4A20554   6.604  16.653   7.783 -0.2026  0.1856 -0.5291
 1285loPI   C5A20555   6.657  16.521   8.245 -0.1499 -0.0992 -0.1469
 1285loPI   C6A20556   6.587  16.603   8.712  0.1282  0.3741 -0.0078
 1285loPI   C1B20557   7.105  16.964   6.533  0.3207  0.1244 -0.2061
 1285loPI   C2B20558   7.047  17.033   6.903 -0.0376 -0.3170  0.0827
 1285loPI   C3B20559   7.002  17.095   7.322  0.0613 -0.0584  0.2119
 1285loPI   C4B20560   6.990  17.181   7.716  0.0392 -0.3591  0.0252
 1286loPI    C120561  17.289  16.712   5.274 -0.1583 -0.0885  0.0598
 1286loPI    C220562  17.364  17.028   5.040  0.2848 -0.1903  0.0550
 1286loPI    C320563  17.240  16.685   4.878  0.1462 -0.1251  0.0218
 1286loPI   PO420564  17.183  16.786   5.538  0.0969 -0.0074  0.1000
 1286loPI   GL120565  17.025  16.624   5.988  0.1688 -0.2655 -0.1544
 1286loPI   GL220566  16.970  16.915   5.966 -0.1429  0.0603  0.1175
 1286loPI   C1A20567  17.120  16.362   6.384 -0.2787 -0.0831 -0.0032
 1286loPI   C2A20568  17.124  16.368   6.834 -0.4236 -0.0155  0.0163
 1286loPI   C3A20569  17.016  16.469   7.330 -0.2073 -0.0173  0.0258
 1286loPI   C4A20570  17.060  16.543   7.841 -0.2003 -0.0611 -0.1429
 1286loPI   C5A20571  17.298  16.761   8.266  0.0957 -0.3129 -0.1882
 1286loPI   C6A20572  17.485  16.857   8.649 -0.0385  0.1329 -0.0269
 1286loPI   C1B20573  17.010  16.892   6.535 -0.0055 -0.3225  0.0025
 1286loPI   C2B20574  17.043  17.036   6.918  0.0032  0.1989 -0.3936
 1286loPI   C3B20575  17.125  16.971   7.286  0.1552 -0.0995 -0.1068
 1286loPI   C4B20576  16.971  17.001   7.659  0.0502 -0.2436 -0.2567
 1287loPI    C120577  10.707  16.527   5.176  0.3732  0.1519 -0.0338
 1287loPI    C220578  10.430  16.740   4.981  0.1516 -0.0766  0.0264
 1287loPI    C320579  10.711  16.543   4.776 -0.0273 -0.2436 -0.0620
 1287loPI   PO420580  10.631  16.553   5.479  0.3491 -0.1672  0.1433
 1287loPI   GL120581  10.587  16.451   5.940 -0.3955  0.3576 -0.5812
 1287loPI   GL220582  10.304  16.503   5.812  0.1724  0.0893  0.0805
 1287loPI   C1A20583  10.732  16.444   6.341 -0.2210  0.3015 -0.0286
 1287loPI   C2A20584  10.824  16.557   6.729  0.2132  0.0810  0.0224
 1287loPI   C3A20585  10.826  16.576   7.169 -0.1154 -0.1769 -0.0548
 1287loPI   C4A20586  10.840  16.544   7.675  0.0760 -0.0161 -0.0292
 1287loPI   C5A20587  10.845  16.707   8.126 -0.3258 -0.1989  0.1196
 1287loPI   C6A20588  10.604  16.872   8.411  0.2314  0.0875 -0.1191
 1287loPI   C1B20589  10.185  16.685   6.106  0.0787  0.0750  0.2156
 1287loPI   C2B20590  10.362  16.671   6.562 -0.0206  0.1812 -0.2232
 1287loPI   C3B20591  10.339  16.753   6.909  0.1082 -0.0463  0.0946
 1287loPI   C4B20592  10.388  16.711   7.369  0.2088  0.3877  0.0068
 1288loPI    C120593   2.801   7.482   5.912  0.1875  0.0165  0.2524
 1288loPI    C220594   3.013   7.238   5.676 -0.0125  0.1001 -0.0192
 1288loPI    C320595   2.992   7.629   5.592 -0.0975  0.1282  0.1297
 1288loPI   PO420596   2.868   7.414   6.175  0.1911  0.0976  0.4690
 1288loPI   GL120597   2.636   7.650   6.446  0.1389 -0.3477 -0.0411
 1288loPI   GL220598   2.262   7.432   6.430 -0.1047 -0.3169 -0.0175
 1288loPI   C1A20599   2.681   7.623   6.896  0.0749 -0.4332  0.0228
 1288loPI   C2A20600   2.654   7.635   7.396 -0.0300 -0.1372  0.1775
 1288loPI   C3A20601   2.724   7.742   7.882  0.1247  0.0009  0.3413
 1288loPI   C4A20602   2.712   8.046   8.253 -0.0819 -0.0784  0.3736
 1288loPI   C5A20603   2.816   8.335   8.515 -0.3623 -0.2137  0.2161
 1288loPI   C6A20604   2.832   8.665   8.818  0.0113 -0.2452 -0.6042
 1288loPI   C1B20605   2.233   7.289   6.852 -0.0095  0.2807  0.1696
 1288loPI   C2B20606   2.310   7.326   7.214 -0.0843  0.0792 -0.0298
 1288loPI   C3B20607   2.338   7.405   7.735  0.2445  0.0701  0.3385
 1288loPI   C4B20608   2.405   7.293   8.056 -0.4452  0.1065 -0.1418
 1289loPI    C120609   2.872  10.811   5.897  0.0041  0.1131 -0.0824
 1289loPI    C220610   2.595  10.618   5.682  0.1167 -0.0489 -0.0844
 1289loPI    C320611   2.954  10.693   5.524  0.1714 -0.0935  0.0177
 1289loPI   PO420612   2.772  10.996   6.092 -0.0881  0.3160  0.2020
 1289loPI   GL120613   2.841  10.847   6.452  0.1764  0.0261 -0.1628
 1289loPI   GL220614   3.012  10.537   6.652 -0.1357 -0.1576  0.0319
 1289loPI   C1A20615   2.554  10.975   6.837  0.2959  0.1299  0.0944
 1289loPI   C2A20616   2.185  10.888   7.046  0.0736 -0.0560 -0.0154
 1289loPI   C3A20617   2.031  10.836   7.485 -0.0383 -0.1743 -0.0661
 1289loPI   C4A20618   1.966  10.889   7.903 -0.1780  0.3130  0.1529
 1289loPI   C5A20619   1.920  10.666   8.421 -0.1608  0.1484  0.1811
 1289loPI   C6A20620   1.959  10.327   8.663 -0.1500 -0.0909  0.0378
 1289loPI   C1B20621   2.772  10.344   7.030 -0.0023 -0.0397 -0.2591
 1289loPI   C2B20622   2.490  10.509   7.394 -0.2086  0.2661 -0.0004
 1289loPI   C3B20623   2.383  10.589   7.807 -0.2658  0.1146 -0.0691
 1289loPI   C4B20624   2.493  10.454   8.327  0.0904  0.1844 -0.1845
 1290loPI    C120625  11.331   8.754   5.454 -0.2149  0.3485  0.2210
 1290loPI    C220626  11.014   8.663   5.227  0.0152  0.0006  0.0306
 1290loPI    C320627  11.292   8.916   5.090  0.0854 -0.1044 -0.0231
 1290loPI   PO420628  11.291   8.800   5.635  0.1635  0.2489 -0.1411
 1290loPI   GL120629  11.035   8.859   5.994 -0.2330 -0.0622  0.0607
 1290loPI   GL220630  10.999   9.194   5.970 -0.2526  0.0767 -0.0461
 1290loPI   C1A20631  11.069   8.637   6.354  0.0176  0.3436  0.1669
 1290loPI   C2A20632  11.059   8.710   6.785  0.0441 -0.1283 -0.0324
 1290loPI   C3A20633  11.122   8.711   7.191 -0.1155  0.3843 -0.0551
 1290loPI   C4A20634  11.060   8.726   7.690 -0.1632 -0.0564 -0.3517
 1290loPI   C5A20635  11.170   8.723   8.072  0.1966  0.1111  0.1543
 1290loPI   C6A20636  11.139   8.714   8.434  0.0140 -0.2428  0.2158
 1290loPI   C1B20637  10.982   9.169   6.416 -0.0326 -0.0574  0.2159
 1290loPI   C2B20638  11.024   9.296   6.895 -0.0376 -0.0209 -0.0393
 1290loPI   C3B20639  11.032   9.211   7.267 -0.1684 -0.1849  0.0515
 1290loPI   C4B20640  11.076   9.215   7.650  0.0606  0.2333 -0.2626
 1291loPI    C120641   9.313   8.864   5.241  0.1943 -0.1570  0.0228
 1291loPI    C220642   9.566   9.127   5.078 -0.1711  0.2078  0.0273
 1291loPI    C320643   9.251   8.996   4.869 -0.0985 -0.0819  0.0949
 1291loPI   PO420644   9.335   8.898   5.544  0.1790  0.0310 -0.0245
 1291loPI   GL120645   9.207   9.155   5.906 -0.1149  0.3571 -0.1067
 1291loPI   GL220646   9.181   9.406   5.998 -0.0348  0.0374  0.0471
 1291loPI   C1A20647   8.873   8.933   6.292 -0.2146  0.0058 -0.0538
 1291loPI   C2A20648   8.888   9.100   6.693  0.1144 -0.1910  0.0904
 1291loPI   C3A20649   8.740   9.154   7.047 -0.2076 -0.1030 -0.0614
 1291loPI   C4A20650   8.656   9.235   7.561 -0.1960 -0.1348 -0.0958
 1291loPI   C5A20651   8.847   9.103   7.941 -0.2972  0.3362  0.0027
 1291loPI   C6A20652   8.995   9.015   8.435  0.0735 -0.2914 -0.1486
 1291loPI   C1B20653   9.144   9.438   6.440 -0.0999  0.2398 -0.3234
 1291loPI   C2B20654   9.205   9.413   6.860 -0.0249 -0.1772 -0.1575
 1291loPI   C3B20655   9.136   9.511   7.246 -0.0251 -0.2387  0.0419
 1291loPI   C4B20656   9.160   9.528   7.634  0.0375  0.1945  0.2504
 1292loPI    C120657  15.619   7.864   5.210 -0.1309  0.0113  0.1313
 1292loPI    C220658  15.670   8.238   5.345 -0.2811  0.1162 -0.0964
 1292loPI    C320659  15.922   8.086   5.074 -0.2704  0.0827 -0.0678
 1292loPI   PO420660  15.550   7.753   5.394  0.0396  0.0703 -0.0511
 1292loPI   GL120661  15.645   7.781   5.790  0.0627 -0.1150  0.2925
 1292loPI   GL220662  15.375   7.830   5.966 -0.3123  0.1990  0.0546
 1292loPI   C1A20663  15.805   7.669   6.218  0.0688  0.1625 -0.0066
 1292loPI   C2A20664  15.746   7.739   6.633  0.0357 -0.3652 -0.0644
 1292loPI   C3A20665  15.796   7.692   7.142 -0.3425 -0.0066  0.5187
 1292loPI   C4A20666  15.730   7.714   7.591  0.0559 -0.1218  0.6067
 1292loPI   C5A20667  15.671   7.942   7.908 -0.3151  0.4490 -0.0453
 1292loPI   C6A20668  15.670   8.344   7.890  0.3667 -0.3090  0.1436
 1292loPI   C1B20669  15.289   7.911   6.427  0.1920  0.3121  0.3431
 1292loPI   C2B20670  15.321   7.874   6.839 -0.0677  0.3186 -0.2278
 1292loPI   C3B20671  15.357   7.920   7.245 -0.1334 -0.4865 -0.2482
 1292loPI   C4B20672  15.197   7.978   7.696 -0.1759  0.2113  0.2093
 1293loPI    C120673  14.086   2.800   5.329  0.0014 -0.1235  0.0111
 1293loPI    C220674  14.203   2.774   4.947 -0.1032  0.1532 -0.0424
 1293loPI    C320675  13.887   2.563   5.075  0.0715 -0.1179 -0.0494
 1293loPI   PO420676  14.357   2.796   5.494 -0.1100 -0.3185 -0.1278
 1293loPI   GL120677  14.286   2.634   5.865  0.1320 -0.0225  0.0688
 1293loPI   GL220678  14.027   2.835   5.871 -0.2277  0.1839  0.0510
 1293loPI   C1A20679  14.283   2.526   6.317  0.3066 -0.0269 -0.1562
 1293loPI   C2A20680  14.282   2.461   6.853 -0.1319  0.1347 -0.0742
 1293loPI   C3A20681  14.308   2.501   7.303  0.1484 -0.3060  0.1676
 1293loPI   C4A20682  14.286   2.574   7.728 -0.1019  0.3470  0.0643
 1293loPI   C5A20683  14.205   2.353   8.056  0.3655  0.0736  0.3415
 1293loPI   C6A20684  14.377   1.895   8.165  0.0630  0.0266 -0.2300
 1293loPI   C1B20685  14.205   2.997   6.294  0.2000  0.0438  0.4193
 1293loPI   C2B20686  14.256   2.923   6.594 -0.2150 -0.1933 -0.0848
 1293loPI   C3B20687  14.241   2.997   7.084 -0.2429  0.0251 -0.2642
 1293loPI   C4B20688  14.201   2.966   7.436 -0.2403 -0.1404 -0.1369
 1294loPI    C120689   7.998   1.713   5.165 -0.0613  0.1749 -0.0321
 1294loPI    C220690   7.998   1.662   4.768 -0.0353 -0.0153 -0.0083
 1294loPI    C320691   8.305   1.527   4.988  0.0351  0.2469  0.0578
 1294loPI   PO420692   8.038   1.939   5.239 -0.2033  0.0679  0.0232
 1294loPI   GL120693   8.092   2.024   5.633  0.0623 -0.0008 -0.2899
 1294loPI   GL220694   7.928   1.750   5.739  0.2389  0.0206  0.1248
 1294loPI   C1A20695   7.959   2.179   5.971  0.2382 -0.1689 -0.0704
 1294loPI   C2A20696   7.945   2.081   6.465  0.2257 -0.2401  0.2321
 1294loPI   C3A20697   8.096   2.051   6.861 -0.1383  0.2440 -0.1411
 1294loPI   C4A20698   8.047   2.097   7.252  0.3059  0.1855 -0.1456
 1294loPI   C5A20699   8.075   2.068   7.611 -0.1096 -0.1228 -0.2441
 1294loPI   C6A20700   7.958   2.106   8.051 -0.1980  0.0704 -0.1758
 1294loPI   C1B20701   7.564   1.793   6.050 -0.0886 -0.2069 -0.2056
 1294loPI   C2B20702   7.533   1.806   6.504  0.0592  0.0916 -0.0577
 1294loPI   C3B20703   7.613   1.690   6.875  0.1283 -0.0803  0.1929
 1294loPI   C4B20704   7.626   1.805   7.321  0.0267  0.4145  0.1074
 1295loPI    C120705  10.335  10.308   5.191 -0.0695 -0.1510  0.1777
 1295loPI    C220706  10.012  10.526   5.100 -0.0276 -0.0963  0.1592
 1295loPI    C320707  10.134  10.236   4.853  0.1446  0.1175 -0.0114
 1295loPI   PO420708  10.255  10.228   5.430 -0.1068  0.2403 -0.0589
 1295loPI   GL120709  10.403  10.287   5.801 -0.2124  0.1310  0.0499
 1295loPI   GL220710  10.437   9.979   5.937 -0.1393 -0.1171 -0.1482
 1295loPI   C1A20711  10.407  10.384   6.178  0.0796  0.1574 -0.3039
 1295loPI   C2A20712  10.405  10.398   6.607  0.0349 -0.0284  0.0365
 1295loPI   C3A20713  10.364  10.489   7.045  0.0920 -0.2726 -0.1348
 1295loPI   C4A20714  10.317  10.449   7.522 -0.3875  0.0448 -0.1379
 1295loPI   C5A20715  10.341  10.481   7.897  0.0060  0.1721 -0.1722
 1295loPI   C6A20716  10.063  10.772   8.179 -0.0798  0.0365 -0.1972
 1295loPI   C1B20717  10.549   9.954   6.377  0.1757 -0.0012 -0.1938
 1295loPI   C2B20718  10.418   9.907   6.875  0.0431  0.1145 -0.0915
 1295loPI   C3B20719  10.384   9.974   7.310 -0.0095  0.1706 -0.0175
 1295loPI   C4B20720  10.389  10.006   7.758  0.1457 -0.2738 -0.0572
 1296loPI    C120721   4.503  10.121   5.994  0.1369  0.0214 -0.0469
 1296loPI    C220722   4.557  10.507   5.906  0.0424  0.0024 -0.1914
 1296loPI    C320723   4.603  10.229   5.622  0.2764 -0.1081 -0.0483
 1296loPI   PO420724   4.580  10.011   6.193  0.0939 -0.0330  0.2033
 1296loPI   GL120725   4.557   9.963   6.648 -0.1301  0.0180 -0.1357
 1296loPI   GL220726   4.825  10.149   6.677 -0.0142  0.1437  0.2787
 1296loPI   C1A20727   4.679   9.694   7.045 -0.1770  0.0487  0.1198
 1296loPI   C2A20728   4.726   9.694   7.477  0.1258 -0.1341  0.3451
 1296loPI   C3A20729   4.451   9.979   7.763  0.0907 -0.1994 -0.3415
 1296loPI   C4A20730   4.212  10.403   7.801 -0.2516 -0.0367 -0.1960
 1296loPI   C5A20731   3.834  10.640   7.790 -0.2839  0.1247 -0.2179
 1296loPI   C6A20732   3.578  10.795   7.486 -0.2014 -0.0263 -0.0788
 1296loPI   C1B20733   4.939  10.199   7.054 -0.1275  0.1182  0.0628
 1296loPI   C2B20734   5.170   9.970   7.340  0.2902  0.0417  0.2347
 1296loPI   C3B20735   4.941   9.981   7.792 -0.2476 -0.0609 -0.0841
 1296loPI   C4B20736   4.910  10.106   8.277  0.2624 -0.3596  0.0010
 1297loPI    C120737   8.063  14.201   5.574 -0.2191 -0.0754  0.0218
 1297loPI    C220738   7.975  14.592   5.578  0.0207 -0.0185 -0.0921
 1297loPI    C320739   7.807  14.352   5.306 -0.0534  0.0228 -0.0830
 1297loPI   PO420740   8.126  14.177   5.817  0.2535 -0.1643 -0.1395
 1297loPI   GL120741   8.204  13.860   6.067 -0.1511 -0.0665 -0.1631
 1297loPI   GL220742   7.845  14.084   6.195 -0.1993  0.0295 -0.1739
 1297loPI   C1A20743   8.376  13.971   6.482  0.1433  0.3616  0.2319
 1297loPI   C2A20744   8.387  14.063   6.925  0.0162  0.1975 -0.0658
 1297loPI   C3A20745   8.387  14.140   7.389 -0.1263 -0.2977  0.0757
 1297loPI   C4A20746   8.435  14.270   7.730 -0.1698  0.1789 -0.2064
 1297loPI   C5A20747   8.374  14.126   8.091  0.1306 -0.3527  0.2290
 1297loPI   C6A20748   8.244  14.018   8.502 -0.1930  0.0290 -0.0187
 1297loPI   C1B20749   7.982  14.243   6.621 -0.0070  0.1257  0.0210
 1297loPI   C2B20750   7.913  14.133   7.050 -0.0921  0.1224  0.4390
 1297loPI   C3B20751   7.976  14.383   7.429  0.0325 -0.5606 -0.1161
 1297loPI   C4B20752   7.999  14.338   7.838 -0.1629  0.2665  0.1394
 1298loPI    C120753   2.055   8.050   5.848 -0.1713 -0.1323  0.1409
 1298loPI    C220754   1.822   8.315   5.658 -0.2761 -0.1717  0.2134
 1298loPI    C320755   2.066   8.077   5.449 -0.2137 -0.0485  0.1451
 1298loPI   PO420756   1.915   7.888   5.991 -0.0001 -0.1166  0.3385
 1298loPI   GL120757   1.876   7.813   6.373 -0.0132  0.0048 -0.1380
 1298loPI   GL220758   1.761   8.123   6.405  0.0440 -0.0765  0.3230
 1298loPI   C1A20759   2.129   7.836   6.796 -0.1197  0.0826  0.0301
 1298loPI   C2A20760   2.271   7.844   7.208 -0.4564  0.0941 -0.0714
 1298loPI   C3A20761   2.289   7.932   7.697 -0.1330  0.2856  0.2105
 1298loPI   C4A20762   2.248   7.836   8.091  0.0422  0.2473 -0.0436
 1298loPI   C5A20763   2.449   7.707   8.476 -0.0581  0.1341 -0.1883
 1298loPI   C6A20764   2.703   7.918   8.776 -0.0852  0.2940 -0.0490
 1298loPI   C1B20765   1.508   7.876   6.725 -0.0309 -0.3231 -0.0374
 1298loPI   C2B20766   1.346   7.778   7.084  0.0153  0.0577  0.2615
 1298loPI   C3B20767   1.331   7.762   7.497 -0.1156  0.1504 -0.1445
 1298loPI   C4B20768   1.339   7.747   7.873 -0.0102 -0.1444  0.0104
 1299loPI    C120769  15.531  10.913   5.238 -0.1151 -0.2216 -0.0446
 1299loPI    C220770  15.296  11.023   4.934 -0.0097 -0.1492 -0.1004
 1299loPI    C320771  15.607  10.780   4.869 -0.0176 -0.1751 -0.0417
 1299loPI   PO420772  15.301  10.914   5.481  0.1219  0.0649 -0.3432
 1299loPI   GL120773  15.252  10.857   5.937 -0.0954  0.1159  0.2359
 1299loPI   GL220774  15.013  10.739   5.968 -0.2641  0.2794 -0.0782
 1299loPI   C1A20775  15.281  11.207   6.201  0.1208  0.3403  0.0755
 1299loPI   C2A20776  15.197  11.366   6.521 -0.1237  0.0645  0.1131
 1299loPI   C3A20777  15.242  11.385   6.919 -0.2636  0.1957  0.0325
 1299loPI   C4A20778  15.157  11.487   7.358  0.0825 -0.0609 -0.0665
 1299loPI   C5A20779  15.171  11.481   7.747 -0.1081 -0.0220  0.0044
 1299loPI   C6A20780  15.185  11.188   8.040  0.1739  0.1188  0.0972
 1299loPI   C1B20781  15.234  10.761   6.426  0.1154 -0.0942  0.1267
 1299loPI   C2B20782  15.288  10.798   6.851 -0.1768 -0.0232 -0.2545
 1299loPI   C3B20783  15.299  10.868   7.238 -0.4548  0.0416 -0.0867
 1299loPI   C4B20784  15.268  10.834   7.682  0.2698  0.0497 -0.0417
 1300loPI    C120785  16.174  11.080   5.584  0.0331  0.1505  0.0217
 1300loPI    C220786  15.918  11.370   5.480 -0.0229  0.0240 -0.2001
 1300loPI    C320787  16.257  11.319   5.274  0.3320  0.3789  0.2711
 1300loPI   PO420788  16.209  11.060   5.768 -0.1847  0.3240  0.2612
 1300loPI   GL120789  16.032  11.257   6.106 -0.1284  0.1570  0.0080
 1300loPI   GL220790  15.776  11.178   6.027  0.0191  0.1002  0.3995
 1300loPI   C1A20791  16.068  11.395   6.528  0.0813 -0.1429 -0.3399
 1300loPI   C2A20792  16.081  11.411   7.028  0.0586 -0.0899  0.1092
 1300loPI   C3A20793  15.932  11.556   7.455 -0.0461  0.2838 -0.2497
 1300loPI   C4A20794  16.006  11.502   7.887  0.2086  0.1252 -0.0904
 1300loPI   C5A20795  16.232  11.359   8.359 -0.1593 -0.1110 -0.2255
 1300loPI   C6A20796  16.358  11.258   8.685  0.2483 -0.2508  0.2796
 1300loPI   C1B20797  15.694  11.023   6.424 -0.0653 -0.0224  0.2289
 1300loPI   C2B20798  15.675  11.178   6.813  0.4612 -0.2058  0.0282
 1300loPI   C3B20799  15.650  11.186   7.220  0.0139  0.5172  0.0115
 1300loPI   C4B20800  15.584  11.246   7.638 -0.1251  0.1508  0.2642
 1301loPI    C120801   3.691  10.378   5.833  0.1335 -0.0763 -0.0061
 1301loPI    C220802   4.077  10.336   5.734  0.0980 -0.1282 -0.1251
 1301loPI    C320803   3.831  10.545   5.497  0.1134  0.1451  0.0933
 1301loPI   PO420804   3.669  10.464   6.138  0.2168  0.0074 -0.0949
 1301loPI   GL120805   3.778  10.554   6.613  0.0180 -0.0454  0.2028
 1301loPI   GL220806   3.548  10.671   6.614 -0.0145  0.1792  0.0838
 1301loPI   C1A20807   3.872  10.727   7.019 -0.0474 -0.1735  0.1562
 1301loPI   C2A20808   3.845  11.182   7.125  0.0883  0.4351  0.0498
 1301loPI   C3A20809   3.732  11.409   7.377 -0.2086 -0.3536  0.3001
 1301loPI   C4A20810   3.602  11.618   7.721 -0.1496  0.0434  0.1062
 1301loPI   C5A20811   3.386  11.623   8.036  0.2198  0.1136  0.1334
 1301loPI   C6A20812   3.306  11.846   8.450 -0.4823 -0.2229 -0.1595
 1301loPI   C1B20813   3.381  10.637   6.978  0.0989  0.1325  0.0615
 1301loPI   C2B20814   3.252  10.431   7.358 -0.3695 -0.0277  0.0121
 1301loPI   C3B20815   2.951  10.191   7.459 -0.1527 -0.3609  0.1353
 1301loPI   C4B20816   2.582   9.933   7.367  0.4059  0.1146 -0.2348
 1302loPI    C120817  13.282  16.238   5.197  0.0465  0.3228 -0.0548
 1302loPI    C220818  13.671  16.288   5.117  0.0543  0.0277 -0.2162
 1302loPI    C320819  13.417  16.192   4.823 -0.1039  0.0047 -0.0737
 1302loPI   PO420820  13.273  16.456   5.403  0.1467  0.1422  0.1300
 1302loPI   GL120821  13.369  16.511   5.798 -0.1987 -0.1598  0.0756
 1302loPI   GL220822  13.702  16.612   5.775  0.0046  0.1937 -0.0611
 1302loPI   C1A20823  13.055  16.482   6.186 -0.2757 -0.2095  0.2257
 1302loPI   C2A20824  12.995  16.589   6.598  0.1977 -0.3035 -0.1564
 1302loPI   C3A20825  12.990  16.565   6.975 -0.0132  0.1325  0.1775
 1302loPI   C4A20826  12.961  16.589   7.387 -0.0409  0.4260  0.0385
 1302loPI   C5A20827  12.990  16.560   7.765 -0.0076  0.0555 -0.0798
 1302loPI   C6A20828  13.402  16.510   7.942 -0.1524  0.2003 -0.2419
 1302loPI   C1B20829  13.593  16.362   6.233 -0.3893  0.3244  0.1156
 1302loPI   C2B20830  13.535  16.358   6.620  0.1825  0.0473  0.2451
 1302loPI   C3B20831  13.500  16.347   7.058  0.2622 -0.3296 -0.0875
 1302loPI   C4B20832  13.602  16.372   7.515  0.0464 -0.2151 -0.2006
 1303loPI    C120833   1.449  16.263   5.213 -0.1827  0.1488  0.0795
 1303loPI    C220834   1.520  16.466   4.875 -0.1655  0.3212  0.1854
 1303loPI    C320835   1.321  16.119   4.862  0.0930  0.1773 -0.0354
 1303loPI   PO420836   1.379  16.431   5.345 -0.0952 -0.1773  0.1085
 1303loPI   GL120837   1.266  16.512   5.760  0.2354 -0.3987 -0.0793
 1303loPI   GL220838   1.158  16.318   6.009 -0.1516 -0.3011 -0.1348
 1303loPI   C1A20839   1.190  16.815   6.127 -0.1521 -0.3661  0.0017
 1303loPI   C2A20840   1.314  17.005   6.528  0.0547  0.1426  0.0094
 1303loPI   C3A20841   1.291  17.038   6.985  0.0244 -0.0886  0.2876
 1303loPI   C4A20842   1.263  17.062   7.446 -0.3268  0.0468 -0.6099
 1303loPI   C5A20843   1.282  17.008   7.898 -0.0096 -0.0554  0.4825
 1303loPI   C6A20844   1.171  17.395   8.221  0.1886 -0.1624  0.0131
 1303loPI   C1B20845   1.297  16.394   6.408  0.1921  0.1198 -0.0596
 1303loPI   C2B20846   1.256  16.546   6.783 -0.3093 -0.2666 -0.0260
 1303loPI   C3B20847   1.366  16.580   7.298  0.1705  0.1185 -0.1109
 1303loPI   C4B20848   1.383  16.558   7.669  0.1198  0.1206 -0.0915
 1304loPI    C120849  17.855  10.840   5.407  0.0658 -0.1136 -0.1846
 1304loPI    C220850  18.159  11.090   5.478 -0.1173  0.0360  0.0896
 1304loPI    C320851  17.832  11.222   5.290 -0.0506 -0.1025 -0.1270
 1304loPI   PO420852  17.821  10.771   5.731  0.0681  0.2105  0.1691
 1304loPI   GL120853  17.946  10.905   6.100 -0.3968  0.0503  0.0251
 1304loPI   GL220854  17.559  10.981   6.093 -0.1112 -0.2452 -0.4218
 1304loPI   C1A20855  18.076  10.726   6.460  0.0823 -0.1847  0.0222
 1304loPI   C2A20856  17.972  10.690   6.899  0.0955  0.0312  0.0020
 1304loPI   C3A20857  17.988  10.710   7.317  0.0427  0.1077  0.0577
 1304loPI   C4A20858  17.938  10.809   7.712 -0.1268  0.0234  0.1117
 1304loPI   C5A20859  17.829  10.606   8.068  0.2970 -0.0735  0.0370
 1304loPI   C6A20860  17.898  10.436   8.429 -0.1556  0.1843 -0.4224
 1304loPI   C1B20861  17.522  10.855   6.541  0.0162 -0.0736 -0.0528
 1304loPI   C2B20862  17.456  10.858   6.917  0.1031  0.0147  0.3054
 1304loPI   C3B20863  17.477  10.898   7.433  0.3146 -0.4911  0.1606
 1304loPI   C4B20864  17.409  10.872   7.883  0.1088 -0.3393  0.0703
 1305loPI    C120865  14.367   0.917   4.944 -0.0293 -0.0631 -0.0560
 1305loPI    C220866  14.143   1.247   4.917 -0.0671 -0.0858 -0.0195
 1305loPI    C320867  13.975   0.887   4.872 -0.0088 -0.0965 -0.1551
 1305loPI   PO420868  14.470   0.933   5.224 -0.1079 -0.2592  0.3699
 1305loPI   GL120869  14.537   0.929   5.636  0.3771 -0.1427  0.0019
 1305loPI   GL220870  14.234   1.037   5.787 -0.1859 -0.3082  0.1033
 1305loPI   C1A20871  14.601   0.945   6.083  0.1504 -0.3962  0.1240
 1305loPI   C2A20872  14.468   0.842   6.402  0.2314 -0.0370 -0.1145
 1305loPI   C3A20873  14.532   0.924   6.831 -0.1346  0.1383 -0.1143
 1305loPI   C4A20874  14.523   0.940   7.279  0.1413 -0.0937  0.0082
 1305loPI   C5A20875  14.410   1.024   7.703  0.3591  0.1416  0.1860
 1305loPI   C6A20876  14.597   1.039   8.149 -0.1285 -0.1832  0.2390
 1305loPI   C1B20877  14.075   0.992   6.200 -0.1379 -0.0858 -0.0056
 1305loPI   C2B20878  14.075   1.086   6.608  0.0543  0.0814  0.0883
 1305loPI   C3B20879  14.082   1.166   6.997 -0.1935 -0.0935 -0.0461
 1305loPI   C4B20880  14.028   1.217   7.329 -0.1584 -0.0649 -0.0569
 1306loPI    C120881   1.659   5.200   5.567  0.0323 -0.0307 -0.1650
 1306loPI    C220882   1.905   4.977   5.344  0.0710  0.1112 -0.2653
 1306loPI    C320883   1.514   4.990   5.259  0.0352 -0.0778 -0.1342
 1306loPI   PO420884   1.624   5.183   5.856 -0.2671  0.0344 -0.0435
 1306loPI   GL120885   1.588   5.006   6.240  0.3196 -0.2176 -0.0854
 1306loPI   GL220886   1.344   4.886   6.381  0.0292  0.1287 -0.1161
 1306loPI   C1A20887   1.692   5.160   6.616 -0.1522  0.1389  0.0276
 1306loPI   C2A20888   1.698   5.115   7.012  0.2898 -0.0675 -0.1424
 1306loPI   C3A20889   1.738   5.164   7.417  0.1171  0.0286  0.2079
 1306loPI   C4A20890   1.663   5.238   7.830  0.1143  0.0784  0.1217
 1306loPI   C5A20891   1.750   5.294   8.254 -0.0417 -0.1860  0.0745
 1306loPI   C6A20892   1.762   5.318   8.732  0.1304  0.1170  0.0772
 1306loPI   C1B20893   1.320   4.811   6.832 -0.0507 -0.0842  0.0329
 1306loPI   C2B20894   1.297   4.864   7.211 -0.1771  0.3737 -0.0368
 1306loPI   C3B20895   1.326   4.842   7.668  0.0636 -0.0568  0.0471
 1306loPI   C4B20896   1.197   4.729   8.101  0.2635  0.1085 -0.0815
 1307loPI    C120897  13.553  14.852   5.362  0.0545  0.0167 -0.0963
 1307loPI    C220898  13.320  14.546   5.251  0.2899 -0.1935 -0.0200
 1307loPI    C320899  13.470  14.794   4.975  0.1863 -0.2106 -0.0921
 1307loPI   PO420900  13.401  14.931   5.584  0.4240 -0.0930 -0.1601
 1307loPI   GL120901  13.471  14.871   6.049  0.3751 -0.1231 -0.0522
 1307loPI   GL220902  13.220  14.541   6.117 -0.0078 -0.1743 -0.0992
 1307loPI   C1A20903  13.261  14.964   6.390  0.1898  0.0638 -0.0481
 1307loPI   C2A20904  13.280  15.047   6.757  0.1193  0.0164 -0.0715
 1307loPI   C3A20905  13.290  14.982   7.259 -0.0279 -0.1405  0.0745
 1307loPI   C4A20906  13.284  15.028   7.703 -0.0658  0.0862  0.0032
 1307loPI   C5A20907  13.212  15.169   8.141 -0.0028  0.3134 -0.1015
 1307loPI   C6A20908  13.102  15.152   8.586  0.1167 -0.2586  0.1085
 1307loPI   C1B20909  13.346  14.506   6.592  0.1019  0.0770 -0.2049
 1307loPI   C2B20910  13.375  14.508   7.036 -0.1083 -0.3065 -0.0178
 1307loPI   C3B20911  13.300  14.541   7.475  0.0197 -0.0887 -0.3385
 1307loPI   C4B20912  13.386  14.598   7.895  0.3750  0.2962  0.2227
 1308loPI    C120913  16.743   7.277   5.377  0.0321 -0.1503  0.2772
 1308loPI    C220914  17.068   7.206   5.155 -0.0983  0.4423 -0.1254
 1308loPI    C320915  16.706   7.107   5.018 -0.1406  0.3589  0.0444
 1308loPI   PO420916  16.782   7.088   5.604  0.0652 -0.0442  0.3362
 1308loPI   GL120917  17.003   7.105   5.988 -0.1503 -0.1575 -0.0473
 1308loPI   GL220918  16.739   7.253   6.090  0.0716  0.0791 -0.0118
 1308loPI   C1A20919  16.878   6.871   6.326  0.1187  0.1541 -0.0665
 1308loPI   C2A20920  16.869   6.836   6.780  0.2503 -0.1956 -0.1525
 1308loPI   C3A20921  16.778   6.825   7.228 -0.0115 -0.0789 -0.2426
 1308loPI   C4A20922  16.763   6.902   7.645  0.0256 -0.2132 -0.3113
 1308loPI   C5A20923  16.480   6.970   7.995  0.3045  0.1040  0.0251
 1308loPI   C6A20924  16.442   6.971   8.414  0.3540 -0.3159  0.3434
 1308loPI   C1B20925  16.784   7.361   6.519  0.1154  0.1559 -0.1373
 1308loPI   C2B20926  16.734   7.308   6.899  0.2108  0.0218  0.1125
 1308loPI   C3B20927  16.751   7.312   7.371  0.1224  0.0909 -0.2090
 1308loPI   C4B20928  16.684   7.405   7.808 -0.1254 -0.0132  0.0660
 1309loPI    C120929   1.687   9.551   5.268  0.0627 -0.3562  0.1674
 1309loPI    C220930   1.422   9.546   4.969  0.1645  0.2149  0.0552
 1309loPI    C320931   1.749   9.316   4.951  0.1120  0.1590 -0.2174
 1309loPI   PO420932   1.477   9.556   5.516 -0.0938  0.1126  0.0855
 1309loPI   GL120933   1.687   9.569   5.935  0.1922 -0.0398  0.1229
 1309loPI   GL220934   1.926   9.581   6.157 -0.1785  0.0173  0.0582
 1309loPI   C1A20935   1.498   9.697   6.349  0.0585  0.1461  0.3063
 1309loPI   C2A20936   1.484   9.956   6.629 -0.1025 -0.2022 -0.0429
 1309loPI   C3A20937   1.444  10.199   6.970 -0.1341 -0.0874 -0.0222
 1309loPI   C4A20938   1.488  10.161   7.455  0.1543  0.0464  0.2480
 1309loPI   C5A20939   1.521   9.948   7.921 -0.2846  0.1289 -0.0157
 1309loPI   C6A20940   1.753   9.609   8.063  0.0733 -0.0817 -0.0889
 1309loPI   C1B20941   1.814   9.466   6.644  0.1431 -0.1989  0.1921
 1309loPI   C2B20942   1.836   9.276   6.893 -0.1620 -0.2479  0.1788
 1309loPI   C3B20943   1.649   9.067   7.257 -0.0711  0.0940  0.3557
 1309loPI   C4B20944   1.558   9.084   7.702 -0.0169  0.0853  0.1104
 1310loPI    C120945   9.517   3.001   5.456  0.0998  0.3626  0.1373
 1310loPI    C220946   9.461   2.709   5.723 -0.1236  0.1472 -0.1378
 1310loPI    C320947   9.818   2.754   5.548 -0.1104 -0.0124 -0.1531
 1310loPI   PO420948   9.366   3.193   5.593 -0.1204 -0.1734 -0.0669
 1310loPI   GL120949   9.516   3.524   5.946 -0.0273 -0.1570 -0.0927
 1310loPI   GL220950   9.286   3.442   6.033  0.0610  0.2153  0.1615
 1310loPI   C1A20951   9.581   3.444   6.415  0.0970 -0.2048  0.1611
 1310loPI   C2A20952   9.700   3.384   6.819 -0.0318 -0.0197  0.1336
 1310loPI   C3A20953   9.710   3.400   7.242  0.0871  0.0705 -0.0771
 1310loPI   C4A20954   9.691   3.419   7.629  0.0809  0.2495 -0.1088
 1310loPI   C5A20955   9.869   3.513   8.076 -0.2577 -0.0901 -0.3433
 1310loPI   C6A20956   9.781   3.299   8.543 -0.0210 -0.0441  0.1923
 1310loPI   C1B20957   9.063   3.536   6.440 -0.2422  0.0340  0.0769
 1310loPI   C2B20958   9.176   3.600   6.897 -0.0271  0.2427 -0.1705
 1310loPI   C3B20959   9.211   3.607   7.401  0.0491  0.2002  0.3185
 1310loPI   C4B20960   9.242   3.546   7.876  0.1949 -0.0117  0.2125
 1311loPI    C120961  15.174   3.606   5.541 -0.0115 -0.1330 -0.1313
 1311loPI    C220962  14.925   3.723   5.251 -0.0248 -0.0138 -0.0724
 1311loPI    C320963  14.897   3.886   5.615  0.2507  0.1259 -0.1111
 1311loPI   PO420964  15.198   3.344   5.500  0.1824 -0.0329 -0.1975
 1311loPI   GL120965  15.477   3.138   5.856  0.0325 -0.2190  0.0364
 1311loPI   GL220966  15.370   3.428   5.994 -0.0319  0.5922 -0.0837
 1311loPI   C1A20967  15.601   2.969   6.266  0.0121 -0.3290 -0.0188
 1311loPI   C2A20968  15.576   2.996   6.728  0.0088 -0.1615  0.2064
 1311loPI   C3A20969  15.681   2.879   7.088 -0.0762 -0.0573  0.2859
 1311loPI   C4A20970  15.655   2.809   7.539 -0.2126  0.0930 -0.1630
 1311loPI   C5A20971  15.538   2.937   8.040  0.1744 -0.2527 -0.0332
 1311loPI   C6A20972  15.235   3.265   8.298  0.3391 -0.2968 -0.1544
 1311loPI   C1B20973  15.434   3.428   6.462  0.4388  0.0090  0.3424
 1311loPI   C2B20974  15.476   3.514   6.929 -0.0518 -0.0235 -0.1546
 1311loPI   C3B20975  15.550   3.485   7.343 -0.5146 -0.2756  0.0849
 1311loPI   C4B20976  15.641   3.368   7.791 -0.0676 -0.0647 -0.0947
 1312loPI    C120977   1.246   3.131   5.199  0.0607 -0.0417  0.0930
 1312loPI    C220978   1.210   2.772   5.371 -0.0160 -0.1186 -0.0812
 1312loPI    C320979   0.885   2.961   5.234  0.0336 -0.0170 -0.0588
 1312loPI   PO420980   1.368   3.232   5.451  0.0298 -0.3070 -0.0300
 1312loPI   GL120981   1.204   3.315   5.957  0.4289 -0.1601 -0.0193
 1312loPI   GL220982   1.093   3.624   5.925 -0.3884  0.1832 -0.0589
 1312loPI   C1A20983   1.453   3.253   6.325  0.1813  0.1404  0.1450
 1312loPI   C2A20984   1.541   3.297   6.778 -0.1027  0.0368  0.1754
 1312loPI   C3A20985   1.607   3.314   7.234 -0.1973  0.3003 -0.2286
 1312loPI   C4A20986   1.536   3.215   7.602 -0.3109 -0.2345 -0.0689
 1312loPI   C5A20987   1.550   3.192   8.038 -0.0923 -0.1300  0.2047
 1312loPI   C6A20988   1.483   3.001   8.460 -0.0222 -0.0573  0.4195
 1312loPI   C1B20989   1.042   3.541   6.394 -0.0301 -0.2998 -0.0614
 1312loPI   C2B20990   0.999   3.421   6.768 -0.2088  0.4972  0.2683
 1312loPI   C3B20991   1.087   3.368   7.165 -0.1030  0.1672 -0.5543
 1312loPI   C4B20992   1.112   3.541   7.569  0.2617 -0.4616  0.0655
 1313loPI    C120993   0.923   7.093   5.784 -0.1552  0.0665 -0.1239
 1313loPI    C220994   1.182   7.203   5.500  0.1171 -0.3269 -0.0359
 1313loPI    C320995   0.844   7.013   5.400 -0.1170  0.1317 -0.1455
 1313loPI   PO420996   0.932   7.363   5.918  0.0477  0.0954 -0.1241
 1313loPI   GL120997   1.020   7.529   6.272 -0.0075  0.1876  0.0666
 1313loPI   GL220998   0.760   7.643   6.317 -0.2170  0.1465  0.1805
 1313loPI   C1A20999   1.094   7.519   6.730  0.0857  0.2218  0.0099
 1313loPI   C2A21000   0.962   7.465   7.141  0.3039 -0.3212  0.0735
 1313loPI   C3A21001   0.935   7.469   7.594 -0.2248  0.3604 -0.2693
 1313loPI   C4A21002   0.994   7.332   8.074  0.0887 -0.0505  0.1847
 1313loPI   C5A21003   0.940   7.211   8.524  0.3615  0.0953  0.1287
 1313loPI   C6A21004   1.172   7.467   8.890 -0.1177 -0.1167 -0.3929
 1313loPI   C1B21005   0.562   7.658   6.739 -0.0062  0.0614  0.2057
 1313loPI   C2B21006   0.505   7.635   7.220  0.1764 -0.1866  0.1522
 1313loPI   C3B21007   0.432   7.548   7.643  0.1129  0.0591 -0.0597
 1313loPI   C4B21008   0.379   7.642   8.097 -0.2521 -0.2290  0.1804
 1314loPI    C121009   0.084   3.978   5.218 -0.0408 -0.1580  0.1579
 1314loPI    C221010   0.215   4.356   5.221  0.0824 -0.1970 -0.0896
 1314loPI    C321011   0.105   4.185   4.876 -0.2308 -0.3003  0.0581
 1314loPI   PO421012   0.027   3.947   5.461 -0.1404 -0.1307  0.2923
 1314loPI   GL121013  -0.117   3.880   5.824 -0.1481 -0.2717  0.0324
 1314loPI   GL221014   0.180   3.703   5.885 -0.1048 -0.1995  0.1638
 1314loPI   C1A21015  -0.068   3.809   6.256  0.0240  0.0245  0.0761
 1314loPI   C2A21016   0.039   3.821   6.700 -0.1592  0.1703 -0.1140
 1314loPI   C3A21017   0.082   3.821   7.126 -0.1739 -0.0453 -0.1689
 1314loPI   C4A21018   0.113   3.833   7.594 -0.0876 -0.1282 -0.3549
 1314loPI   C5A21019   0.321   3.687   7.971  0.0774  0.1898  0.1204
 1314loPI   C6A21020   0.688   3.579   7.959 -0.3185  0.1984 -0.0101
 1314loPI   C1B21021   0.401   3.573   6.229  0.0448  0.0307 -0.1113
 1314loPI   C2B21022   0.548   3.600   6.663  0.1035  0.0700 -0.0214
 1314loPI   C3B21023   0.599   3.675   7.038 -0.1159 -0.0613 -0.2286
 1314loPI   C4B21024   0.611   3.748   7.468  0.1014  0.1028  0.2748
 1315loPI    C121025  12.264   4.660   5.388  0.2581  0.0751 -0.1019
 1315loPI    C221026  12.156   5.045   5.381 -0.0273 -0.0035 -0.1401
 1315loPI    C321027  12.044   4.801   5.085 -0.1410 -0.1924  0.0560
 1315loPI   PO421028  12.228   4.624   5.686  0.0568  0.1009 -0.1805
 1315loPI   GL121029  12.275   4.679   6.134  0.1671  0.1823  0.1679
 1315loPI   GL221030  12.264   4.347   6.093 -0.0734 -0.1769 -0.1074
 1315loPI   C1A21031  12.118   4.758   6.588  0.1751  0.0904  0.0501
 1315loPI   C2A21032  12.145   4.822   7.038 -0.2504  0.1773  0.0779
 1315loPI   C3A21033  12.177   4.921   7.504  0.0373 -0.0271  0.2999
 1315loPI   C4A21034  11.995   4.996   7.932 -0.3419 -0.2894  0.2900
 1315loPI   C5A21035  11.692   5.224   8.045 -0.1335  0.3454  0.0952
 1315loPI   C6A21036  11.356   5.182   8.325 -0.1915  0.2690 -0.0735
 1315loPI   C1B21037  12.280   4.211   6.442  0.1522  0.3606 -0.1587
 1315loPI   C2B21038  12.175   4.324   6.891 -0.0106 -0.4379  0.0812
 1315loPI   C3B21039  12.330   4.296   7.288  0.0138 -0.1956 -0.1811
 1315loPI   C4B21040  12.261   4.398   7.611  0.0932 -0.0989  0.1622
 1316loPI    C121041  16.242  13.799   5.172 -0.1513 -0.0433  0.1473
 1316loPI    C221042  16.397  13.446   5.068  0.1329  0.1152  0.0221
 1316loPI    C321043  16.120  13.619   4.837 -0.0220 -0.0335  0.0946
 1316loPI   PO421044  16.333  13.795   5.447  0.1160  0.3548  0.1743
 1316loPI   GL121045  16.410  13.620   5.881  0.0322 -0.1219  0.0868
 1316loPI   GL221046  16.815  13.632   6.041  0.2399 -0.1625  0.3135
 1316loPI   C1A21047  16.301  13.801   6.202  0.0840  0.1342 -0.0331
 1316loPI   C2A21048  16.228  13.864   6.648  0.0833  0.0026  0.2231
 1316loPI   C3A21049  16.132  13.798   7.141 -0.2013  0.0471  0.2027
 1316loPI   C4A21050  16.127  13.956   7.580  0.0933 -0.1141  0.1416
 1316loPI   C5A21051  16.107  13.915   8.063  0.0760 -0.1462  0.0255
 1316loPI   C6A21052  15.779  13.780   8.336 -0.1390 -0.0269  0.0616
 1316loPI   C1B21053  16.675  13.685   6.477 -0.1854  0.1169  0.0675
 1316loPI   C2B21054  16.589  13.597   6.960  0.2272  0.1614  0.1336
 1316loPI   C3B21055  16.595  13.766   7.391 -0.0697 -0.0227 -0.1345
 1316loPI   C4B21056  16.624  13.726   7.824  0.0758  0.2643  0.1722
 1317loPI    C121057   7.895   3.036   5.157 -0.1347 -0.0844 -0.0131
 1317loPI    C221058   7.736   2.725   4.962  0.1806 -0.0347 -0.3605
 1317loPI    C321059   8.116   2.831   4.893  0.1583  0.2647 -0.0471
 1317loPI   PO421060   7.844   3.053   5.419  0.0979  0.0824 -0.2297
 1317loPI   GL121061   7.651   3.085   5.717  0.2314 -0.3263  0.2338
 1317loPI   GL221062   7.843   3.252   5.884  0.0151 -0.0254 -0.2492
 1317loPI   C1A21063   7.482   2.866   5.995 -0.1068  0.1812  0.1051
 1317loPI   C2A21064   7.387   2.790   6.436 -0.1836 -0.0091  0.0879
 1317loPI   C3A21065   7.463   2.764   6.840  0.0022 -0.1532  0.0729
 1317loPI   C4A21066   7.490   2.768   7.236 -0.1926  0.0742  0.0426
 1317loPI   C5A21067   7.525   2.775   7.750  0.0144 -0.1570  0.0342
 1317loPI   C6A21068   7.514   2.785   8.185  0.2443 -0.2179  0.3722
 1317loPI   C1B21069   7.781   3.161   6.283 -0.1282 -0.0747 -0.0545
 1317loPI   C2B21070   7.859   3.091   6.719 -0.0920  0.0413 -0.1623
 1317loPI   C3B21071   7.926   3.184   7.236 -0.1696  0.0049 -0.1828
 1317loPI   C4B21072   7.932   3.115   7.705  0.0462  0.0930 -0.3829
 1318loPI    C121073  17.719  11.687   5.445 -0.0945 -0.2947 -0.1386
 1318loPI    C221074  17.599  11.980   5.201 -0.1527 -0.0482  0.1792
 1318loPI    C321075  17.983  11.958   5.312 -0.0784 -0.2976 -0.1125
 1318loPI   PO421076  17.534  11.693   5.601 -0.1396  0.0068 -0.1080
 1318loPI   GL121077  17.464  11.768   6.005  0.0354  0.3466 -0.1370
 1318loPI   GL221078  17.427  11.479   6.105  0.1480  0.1194 -0.2095
 1318loPI   C1A21079  17.274  11.830   6.463  0.2192  0.3408  0.0621
 1318loPI   C2A21080  17.334  11.917   6.810  0.2418 -0.0907 -0.2039
 1318loPI   C3A21081  17.308  11.922   7.280  0.1166  0.0200  0.1450
 1318loPI   C4A21082  17.368  11.918   7.689  0.1872 -0.0641  0.0670
 1318loPI   C5A21083  17.243  11.825   8.023  0.0173 -0.2611 -0.1972
 1318loPI   C6A21084  17.424  11.656   8.359 -0.2805  0.2656  0.0800
 1318loPI   C1B21085  17.435  11.373   6.549 -0.0235  0.3280  0.1250
 1318loPI   C2B21086  17.413  11.346   7.044 -0.0413  0.0938 -0.1890
 1318loPI   C3B21087  17.364  11.461   7.548  0.0473  0.1440 -0.0875
 1318loPI   C4B21088  17.558  11.365   7.956 -0.3130  0.0115 -0.0830
 1319loPI    C121089  15.911   6.423   5.114  0.2925  0.1798 -0.0899
 1319loPI    C221090  16.158   6.420   4.799  0.1164 -0.0773 -0.2295
 1319loPI    C321091  15.822   6.636   4.787  0.1610 -0.0044 -0.1758
 1319loPI   PO421092  16.086   6.447   5.318  0.1179 -0.4403 -0.0089
 1319loPI   GL121093  16.124   6.396   5.726  0.1554 -0.1347  0.0096
 1319loPI   GL221094  15.942   6.116   5.893 -0.1830  0.1286  0.1787
 1319loPI   C1A21095  16.350   6.301   6.079 -0.2597  0.1343  0.1199
 1319loPI   C2A21096  16.408   6.423   6.433  0.2323 -0.1686 -0.0516
 1319loPI   C3A21097  16.482   6.503   6.905  0.2308  0.0517 -0.1338
 1319loPI   C4A21098  16.391   6.473   7.430  0.0061 -0.1267  0.1914
 1319loPI   C5A21099  16.465   6.388   7.892  0.1411  0.1637 -0.2122
 1319loPI   C6A21100  16.377   6.445   8.360 -0.4120 -0.0337 -0.0333
 1319loPI   C1B21101  15.913   5.984   6.283 -0.0414  0.3598 -0.2524
 1319loPI   C2B21102  15.991   6.137   6.803  0.0685 -0.3589 -0.0959
 1319loPI   C3B21103  15.979   6.205   7.177 -0.1750  0.1607 -0.0892
 1319loPI   C4B21104  15.991   6.158   7.632 -0.0910  0.0897  0.0815
 1320loPI    C121105   3.805   4.264   5.701 -0.1072  0.1181 -0.0669
 1320loPI    C221106   3.871   4.304   5.308  0.1152  0.1224 -0.0305
 1320loPI    C321107   3.497   4.263   5.445  0.0236  0.2763 -0.2282
 1320loPI   PO421108   3.915   4.092   5.815  0.2815  0.0258  0.3797
 1320loPI   GL121109   4.037   4.108   6.154 -0.4280  0.0621  0.4126
 1320loPI   GL221110   3.760   4.308   6.219 -0.0091 -0.0180  0.0446
 1320loPI   C1A21111   4.181   4.240   6.540  0.3435  0.1901 -0.0832
 1320loPI   C2A21112   4.134   4.165   6.975 -0.3868 -0.1911 -0.2301
 1320loPI   C3A21113   4.035   4.115   7.353 -0.2449 -0.3265 -0.1083
 1320loPI   C4A21114   4.072   4.144   7.734 -0.1198 -0.0452 -0.3321
 1320loPI   C5A21115   4.175   4.290   8.208  0.2291 -0.0274 -0.2813
 1320loPI   C6A21116   3.830   4.357   8.525 -0.4283  0.1130  0.0527
 1320loPI   C1B21117   3.630   4.312   6.703  0.1346  0.0729 -0.0010
 1320loPI   C2B21118   3.637   4.367   7.153 -0.1987  0.2507  0.2090
 1320loPI   C3B21119   3.645   4.372   7.578 -0.0696  0.3333  0.2083
 1320loPI   C4B21120   3.698   4.328   7.968 -0.1105 -0.1260 -0.0831
 1321loPI    C121121  10.284  11.987   5.334 -0.0796  0.0507  0.0655
 1321loPI    C221122  10.582  11.823   5.124  0.0043  0.1853  0.0777
 1321loPI    C321123  10.352  12.105   4.958  0.0879  0.3109  0.1741
 1321loPI   PO421124  10.459  11.823   5.580  0.2076 -0.1557 -0.0598
 1321loPI   GL121125  10.550  11.774   6.032 -0.2171 -0.2740  0.0756
 1321loPI   GL221126  10.836  11.682   5.958  0.1446  0.1922  0.0354
 1321loPI   C1A21127  10.646  11.799   6.482  0.0362  0.0585 -0.0577
 1321loPI   C2A21128  10.513  11.760   6.885  0.0343 -0.2539  0.1537
 1321loPI   C3A21129  10.701  11.748   7.336  0.0092 -0.1226 -0.1468
 1321loPI   C4A21130  10.554  11.838   7.690  0.1906  0.1952 -0.0570
 1321loPI   C5A21131  10.525  11.804   8.090 -0.0537 -0.1406  0.0967
 1321loPI   C6A21132  10.747  11.850   8.502 -0.0495 -0.0602  0.0317
 1321loPI   C1B21133  11.039  11.539   6.269  0.0954 -0.1856 -0.0579
 1321loPI   C2B21134  11.139  11.582   6.739  0.0054  0.3373 -0.1098
 1321loPI   C3B21135  11.130  11.520   7.144 -0.0651 -0.1231 -0.1504
 1321loPI   C4B21136  11.106  11.593   7.566  0.0377  0.4946 -0.1281
 1322loPI    C121137  13.107  11.262   5.322 -0.2149 -0.0848 -0.0962
 1322loPI    C221138  13.020  11.555   5.065 -0.0464 -0.1134 -0.1875
 1322loPI    C321139  13.282  11.271   4.963  0.1139 -0.0573  0.0610
 1322loPI   PO421140  13.177  11.378   5.524  0.2959 -0.0734 -0.2120
 1322loPI   GL121141  13.253  11.274   5.971  0.3368  0.0414 -0.0378
 1322loPI   GL221142  13.296  11.565   6.032  0.0256 -0.2656  0.0481
 1322loPI   C1A21143  13.373  11.100   6.269 -0.0222 -0.1747 -0.1350
 1322loPI   C2A21144  13.392  11.163   6.729 -0.2274 -0.2611  0.2819
 1322loPI   C3A21145  13.391  11.003   7.146  0.4085 -0.1396 -0.0318
 1322loPI   C4A21146  13.355  11.199   7.500 -0.0310 -0.0289  0.0804
 1322loPI   C5A21147  13.597  11.266   7.972  0.1563  0.0681 -0.2268
 1322loPI   C6A21148  13.843  11.370   8.246  0.3929 -0.1716  0.1429
 1322loPI   C1B21149  13.286  11.577   6.417 -0.1091 -0.0885  0.0748
 1322loPI   C2B21150  13.326  11.642   6.833  0.2266  0.2083  0.3574
 1322loPI   C3B21151  13.280  11.664   7.248 -0.0424  0.0119  0.0118
 1322loPI   C4B21152  13.325  11.666   7.733 -0.3206 -0.0233 -0.1289
 1323loPI    C121153   9.938   5.628   5.249  0.2943  0.1649 -0.2674
 1323loPI    C221154   9.617   5.412   5.148 -0.0628  0.3913  0.3254
 1323loPI    C321155   9.958   5.374   4.941 -0.2596 -0.3600  0.1079
 1323loPI   PO421156   9.902   5.536   5.549  0.2133 -0.1382  0.0266
 1323loPI   GL121157   9.777   5.676   5.935  0.2077  0.1625 -0.1261
 1323loPI   GL221158   9.798   5.337   5.971  0.2914  0.1068 -0.1975
 1323loPI   C1A21159   9.654   5.701   6.362  0.0710  0.3157 -0.1787
 1323loPI   C2A21160   9.760   5.735   6.783 -0.0110  0.0898  0.1430
 1323loPI   C3A21161   9.797   5.741   7.233  0.3292 -0.2034  0.1087
 1323loPI   C4A21162   9.758   5.887   7.693 -0.1383  0.0256  0.1539
 1323loPI   C5A21163   9.736   5.718   8.032  0.2225  0.1769  0.0827
 1323loPI   C6A21164   9.693   5.662   8.481  0.0546 -0.2423  0.1278
 1323loPI   C1B21165   9.856   5.190   6.426  0.0807  0.2114  0.1021
 1323loPI   C2B21166   9.795   5.226   6.890  0.4840  0.0858  0.0436
 1323loPI   C3B21167   9.901   5.254   7.295  0.0186 -0.0365 -0.2438
 1323loPI   C4B21168   9.990   5.454   7.693  0.3747 -0.0464  0.2528
 1324loPI    C121169   8.665  11.740   5.307  0.0429  0.1329  0.1699
 1324loPI    C221170   9.008  11.837   5.127 -0.0677 -0.0786 -0.1632
 1324loPI    C321171   8.659  11.942   4.962 -0.1689 -0.1041  0.0315
 1324loPI   PO421172   8.750  11.772   5.568 -0.2198 -0.2504 -0.1061
 1324loPI   GL121173   9.018  11.620   5.947  0.0949  0.1327 -0.1242
 1324loPI   GL221174   8.682  11.514   6.034 -0.2492 -0.0386  0.0394
 1324loPI   C1A21175   8.734  11.880   6.319 -0.0259  0.4027  0.1455
 1324loPI   C2A21176   8.656  11.900   6.663  0.0453  0.0546  0.0136
 1324loPI   C3A21177   8.782  11.988   7.031 -0.2741  0.1005  0.0047
 1324loPI   C4A21178   8.702  12.010   7.478 -0.2096 -0.2335 -0.0860
 1324loPI   C5A21179   8.622  12.116   7.958 -0.4143  0.2613  0.0568
 1324loPI   C6A21180   8.544  12.307   8.376 -0.0045  0.2611 -0.2236
 1324loPI   C1B21181   8.890  11.410   6.447 -0.2397  0.1897 -0.0663
 1324loPI   C2B21182   8.824  11.491   6.926  0.2540 -0.1197 -0.0635
 1324loPI   C3B21183   8.754  11.516   7.378 -0.0037 -0.0152  0.1606
 1324loPI   C4B21184   8.777  11.629   7.877  0.0208 -0.1074 -0.3688
 1325loPI    C121185  14.090  16.476   5.135 -0.0667 -0.1773 -0.0543
 1325loPI    C221186  14.140  16.871   5.168 -0.2287 -0.1519 -0.1062
 1325loPI    C321187  14.381  16.659   4.930  0.1751 -0.1595  0.2958
 1325loPI   PO421188  14.021  16.370   5.453  0.1450  0.3779 -0.2399
 1325loPI   GL121189  14.173  16.451   5.835  0.0518 -0.0190  0.2140
 1325loPI   GL221190  13.935  16.158   5.932 -0.1949  0.1160  0.3845
 1325loPI   C1A21191  14.047  16.656   6.218  0.0140  0.3411  0.1215
 1325loPI   C2A21192  14.012  16.710   6.697  0.3477 -0.3894 -0.2865
 1325loPI   C3A21193  13.888  16.692   7.162 -0.0739 -0.1700 -0.2852
 1325loPI   C4A21194  13.976  16.709   7.601  0.0827 -0.0862  0.1371
 1325loPI   C5A21195  13.884  16.642   7.972  0.2511  0.2328  0.3137
 1325loPI   C6A21196  13.782  16.513   8.329 -0.0329 -0.3292  0.2276
 1325loPI   C1B21197  13.997  16.125   6.389  0.0005 -0.0871  0.2483
 1325loPI   C2B21198  13.987  16.171   6.875 -0.0836 -0.0664 -0.1591
 1325loPI   C3B21199  14.015  16.188   7.284  0.1130 -0.0223  0.2260
 1325loPI   C4B21200  14.094  16.226   7.617 -0.0914 -0.0345  0.1714
 1326loPI    C121201   2.653   9.368   5.390  0.0187 -0.0775 -0.0885
 1326loPI    C221202   2.842   9.066   5.208 -0.0427 -0.1469 -0.0380
 1326loPI    C321203   3.053   9.361   5.378  0.0141 -0.0262 -0.3125
 1326loPI   PO421204   2.467   9.428   5.562 -0.2696 -0.0280 -0.2760
 1326loPI   GL121205   2.457   9.678   6.028  0.1165  0.3517 -0.0087
 1326loPI   GL221206   2.249   9.959   6.181  0.1785  0.0423 -0.0840
 1326loPI   C1A21207   2.376   9.601   6.551 -0.0360 -0.0431  0.0371
 1326loPI   C2A21208   2.236   9.533   6.958  0.2152  0.0322  0.1024
 1326loPI   C3A21209   2.095   9.415   7.300 -0.1261  0.1094 -0.0853
 1326loPI   C4A21210   2.059   9.299   7.746  0.3438 -0.1281 -0.1849
 1326loPI   C5A21211   1.911   9.181   8.265  0.4380 -0.0559 -0.0697
 1326loPI   C6A21212   1.839   9.493   8.614  0.0551  0.0762  0.0279
 1326loPI   C1B21213   2.068  10.040   6.511 -0.2082 -0.0215 -0.1348
 1326loPI   C2B21214   1.905   9.884   6.882 -0.0716 -0.1593 -0.1090
 1326loPI   C3B21215   1.660   9.717   7.179  0.2281 -0.0810 -0.2353
 1326loPI   C4B21216   1.652   9.652   7.526 -0.2492  0.1608 -0.2281
 1327loPI    C121217   8.691  13.652   5.562  0.1630  0.3579  0.0828
 1327loPI    C221218   8.405  13.891   5.419 -0.0673 -0.0118 -0.0900
 1327loPI    C321219   8.619  13.664   5.169  0.1661  0.0301  0.0691
 1327loPI   PO421220   8.663  13.735   5.825 -0.2265  0.2529  0.1092
 1327loPI   GL121221   8.778  14.039   6.156  0.1547  0.0531  0.0274
 1327loPI   GL221222   9.014  13.765   6.239  0.3479  0.1224 -0.0627
 1327loPI   C1A21223   8.799  14.246   6.525 -0.0400  0.1017 -0.1528
 1327loPI   C2A21224   8.835  14.271   7.008 -0.0344  0.0688 -0.2473
 1327loPI   C3A21225   8.733  14.477   7.360 -0.0529  0.2020 -0.0410
 1327loPI   C4A21226   8.847  14.530   7.857 -0.0356 -0.0679 -0.2302
 1327loPI   C5A21227   8.770  14.375   8.327  0.1729 -0.1852 -0.0036
 1327loPI   C6A21228   8.664  14.214   8.830 -0.3106  0.0074 -0.3222
 1327loPI   C1B21229   8.898  13.776   6.724 -0.0226  0.1599  0.0308
 1327loPI   C2B21230   8.885  13.815   7.246  0.1481 -0.0472 -0.1232
 1327loPI   C3B21231   8.853  14.007   7.704 -0.0608  0.2659 -0.0095
 1327loPI   C4B21232   8.825  13.928   8.259  0.1838  0.2590  0.3710
 1328loPI    C121233   0.217   6.615   5.838 -0.4465  0.1243 -0.0852
 1328loPI    C221234   0.134   6.414   5.502  0.2062  0.0384 -0.2097
 1328loPI    C321235   0.409   6.704   5.498  0.1700  0.0867  0.2390
 1328loPI   PO421236   0.010   6.625   5.952  0.2454 -0.0441 -0.0048
 1328loPI   GL121237  -0.292   6.379   6.147 -0.0627 -0.1618  0.2931
 1328loPI   GL221238  -0.498   6.230   5.968  0.2083  0.0540 -0.1578
 1328loPI   C1A21239  -0.265   6.543   6.595 -0.0138 -0.1440 -0.1189
 1328loPI   C2A21240  -0.164   6.362   6.961  0.1204 -0.3676  0.0813
 1328loPI   C3A21241  -0.244   6.491   7.305  0.0139  0.0302 -0.0033
 1328loPI   C4A21242  -0.245   6.501   7.714  0.0326  0.3208  0.1063
 1328loPI   C5A21243  -0.392   6.445   8.075  0.0809  0.2102 -0.0396
 1328loPI   C6A21244  -0.672   6.104   8.243 -0.0701 -0.1464 -0.1903
 1328loPI   C1B21245  -0.589   6.116   6.476  0.3380 -0.1977  0.0499
 1328loPI   C2B21246  -0.555   6.165   6.896  0.1448 -0.4007  0.0189
 1328loPI   C3B21247  -0.649   6.185   7.279  0.0332 -0.1728  0.0340
 1328loPI   C4B21248  -0.637   6.168   7.755  0.0400  0.1221  0.2359
 1329loPI    C121249   2.826  18.090   5.208  0.0526 -0.0704 -0.2193
 1329loPI    C221250   3.002  17.894   5.509 -0.1028  0.0551 -0.0445
 1329loPI    C321251   3.044  17.762   5.134  0.1505 -0.0622  0.0223
 1329loPI   PO421252   2.649  18.222   5.353  0.1484  0.1697  0.1088
 1329loPI   GL121253   2.633  18.212   5.845 -0.1580  0.4130  0.0793
 1329loPI   GL221254   2.668  17.911   5.983 -0.1807 -0.0673  0.3885
 1329loPI   C1A21255   2.859  18.279   6.237  0.1725  0.1153  0.0368
 1329loPI   C2A21256   2.841  18.315   6.665 -0.1589 -0.0244 -0.0262
 1329loPI   C3A21257   2.885  18.338   7.145 -0.1483 -0.1638  0.1582
 1329loPI   C4A21258   2.835  18.314   7.567  0.1061  0.2793 -0.1581
 1329loPI   C5A21259   2.784  18.360   7.953 -0.1395 -0.1178  0.2116
 1329loPI   C6A21260   2.785  18.728   8.124 -0.0377  0.3039 -0.1565
 1329loPI   C1B21261   2.489  18.018   6.398  0.0658  0.1525 -0.0146
 1329loPI   C2B21262   2.435  17.992   6.883 -0.0191  0.0412  0.0523
 1329loPI   C3B21263   2.419  17.994   7.234 -0.0552 -0.2261  0.2054
 1329loPI   C4B21264   2.460  18.020   7.787 -0.0760  0.1389 -0.1320
 1330loPI    C121265   8.679  15.961   4.992  0.0205 -0.0850 -0.0051
 1330loPI    C221266   8.467  15.623   5.004 -0.3121  0.1282  0.3563
 1330loPI    C321267   8.480  15.838   4.668  0.0936 -0.3527  0.0488
 1330loPI   PO421268   8.622  16.097   5.243  0.1107  0.1830  0.4976
 1330loPI   GL121269   8.824  16.199   5.691  0.1278 -0.1296 -0.2049
 1330loPI   GL221270   8.593  15.957   5.745 -0.0925 -0.0726  0.3775
 1330loPI   C1A21271   8.898  16.085   6.154 -0.1406  0.0689  0.0077
 1330loPI   C2A21272   8.990  16.142   6.627  0.1645 -0.1167  0.3181
 1330loPI   C3A21273   8.965  16.247   7.022 -0.2751 -0.0523  0.0657
 1330loPI   C4A21274   8.952  16.388   7.503  0.1767  0.3086  0.0241
 1330loPI   C5A21275   9.038  16.338   7.984  0.3534 -0.5399  0.0904
 1330loPI   C6A21276   9.345  16.276   8.291 -0.0637 -0.1034  0.0800
 1330loPI   C1B21277   8.503  15.809   6.119 -0.3434 -0.0417  0.2887
 1330loPI   C2B21278   8.596  15.746   6.473 -0.3582 -0.0709 -0.2645
 1330loPI   C3B21279   8.629  15.900   6.914 -0.0124  0.3536  0.2011
 1330loPI   C4B21280   8.577  15.990   7.377 -0.1559 -0.2464 -0.0772
 1331loPI    C121281  11.965  12.256   5.154 -0.0192  0.1518  0.0073
 1331loPI    C221282  11.578  12.354   5.139 -0.1002 -0.1721 -0.1112
 1331loPI    C321283  11.789  12.322   4.801 -0.0018 -0.1220 -0.0551
 1331loPI   PO421284  11.953  12.302   5.447 -0.0292 -0.2978  0.3358
 1331loPI   GL121285  11.943  12.189   5.850  0.1794 -0.0144  0.2465
 1331loPI   GL221286  11.802  12.591   5.832  0.1894 -0.1010 -0.0988
 1331loPI   C1A21287  11.845  12.163   6.262  0.0385 -0.2378 -0.1232
 1331loPI   C2A21288  11.848  12.176   6.737 -0.1214  0.2991 -0.0860
 1331loPI   C3A21289  11.837  12.231   7.199 -0.0870 -0.0431  0.0785
 1331loPI   C4A21290  11.829  12.190   7.634  0.0250  0.0264 -0.0335
 1331loPI   C5A21291  11.895  11.991   8.029  0.1354  0.1123 -0.3002
 1331loPI   C6A21292  11.689  11.719   8.387  0.0844 -0.0124 -0.0942
 1331loPI   C1B21293  11.749  12.665   6.327 -0.0054 -0.0169  0.0228
 1331loPI   C2B21294  11.789  12.699   6.738  0.0635  0.1046 -0.1814
 1331loPI   C3B21295  11.770  12.786   7.133  0.1315 -0.1576  0.0555
 1331loPI   C4B21296  11.784  12.817   7.575  0.0522 -0.0992 -0.2589
 1332loPI    C121297  11.669   5.813   5.155  0.1524  0.0497 -0.0021
 1332loPI    C221298  11.764   5.809   4.767 -0.0879  0.4004 -0.0694
 1332loPI    C321299  11.414   5.660   4.888  0.2192 -0.2264  0.0893
 1332loPI   PO421300  11.773   5.621   5.385 -0.0256  0.1921 -0.2116
 1332loPI   GL121301  11.915   5.372   5.695  0.1221  0.2538 -0.0298
 1332loPI   GL221302  12.092   5.120   5.868  0.2814  0.0114  0.0286
 1332loPI   C1A21303  11.723   5.347   6.128 -0.3842  0.0071  0.3003
 1332loPI   C2A21304  11.558   5.480   6.522  0.0234  0.1632 -0.0221
 1332loPI   C3A21305  11.636   5.566   6.976  0.2324 -0.2868 -0.0514
 1332loPI   C4A21306  11.564   5.629   7.390  0.5443 -0.0613 -0.3081
 1332loPI   C5A21307  11.633   5.695   7.774 -0.2537  0.3037  0.3293
 1332loPI   C6A21308  11.562   5.879   8.183 -0.3430 -0.3247 -0.0225
 1332loPI   C1B21309  12.167   5.192   6.269  0.1977  0.2553  0.0386
 1332loPI   C2B21310  11.974   5.291   6.595  0.2614  0.2495  0.1659
 1332loPI   C3B21311  12.065   5.278   7.069  0.0454 -0.0107  0.2626
 1332loPI   C4B21312  12.023   5.443   7.410 -0.0073 -0.2710  0.2776
 1333loPI    C121313   7.642  17.573   5.241 -0.0608 -0.0369  0.0077
 1333loPI    C221314   7.888  17.884   5.187  0.0192 -0.0437  0.3168
 1333loPI    C321315   7.528  17.882   5.014  0.1594  0.0537  0.0176
 1333loPI   PO421316   7.575  17.507   5.496  0.2112  0.1150 -0.0198
 1333loPI   GL121317   7.516  17.676   5.868 -0.4415  0.2108 -0.2833
 1333loPI   GL221318   7.405  17.381   5.934  0.3299 -0.1783  0.2113
 1333loPI   C1A21319   7.430  17.863   6.268  0.1885  0.0579  0.1810
 1333loPI   C2A21320   7.419  17.952   6.673 -0.0347 -0.2307 -0.0464
 1333loPI   C3A21321   7.418  17.845   7.042  0.3394 -0.3563 -0.2153
 1333loPI   C4A21322   7.475  17.953   7.484 -0.3293  0.1231  0.2171
 1333loPI   C5A21323   7.559  17.832   7.812 -0.3133  0.2020 -0.0442
 1333loPI   C6A21324   7.533  17.652   8.167  0.1851  0.1671 -0.3883
 1333loPI   C1B21325   7.548  17.340   6.275 -0.2425 -0.1110  0.2392
 1333loPI   C2B21326   7.543  17.369   6.752 -0.0660  0.2523  0.4257
 1333loPI   C3B21327   7.537  17.327   7.211  0.2383  0.0445 -0.1695
 1333loPI   C4B21328   7.483  17.417   7.595  0.0008 -0.0038 -0.3295
 1334loPI    C121329   2.851   2.195   5.729  0.2184  0.0215  0.1485
 1334loPI    C221330   2.772   2.490   5.470  0.2392 -0.0801  0.0253
 1334loPI    C321331   3.123   2.298   5.454  0.2273 -0.1090  0.1076
 1334loPI   PO421332   2.728   2.277   5.923  0.1187 -0.0907  0.2094
 1334loPI   GL121333   2.634   2.493   6.263 -0.3363  0.0367 -0.1216
 1334loPI   GL221334   2.961   2.585   6.269  0.1375 -0.1362 -0.0184
 1334loPI   C1A21335   2.507   2.394   6.800 -0.0312  0.0366  0.0238
 1334loPI   C2A21336   2.596   2.423   7.262  0.0020 -0.1785  0.1916
 1334loPI   C3A21337   2.622   2.324   7.689  0.2002  0.2432  0.1470
 1334loPI   C4A21338   2.573   2.238   8.171 -0.2879  0.0647  0.0087
 1334loPI   C5A21339   2.648   1.940   8.412 -0.0242 -0.2912  0.1819
 1334loPI   C6A21340   2.549   1.551   8.367 -0.1805 -0.0127  0.0409
 1334loPI   C1B21341   2.944   2.707   6.766 -0.1299 -0.0257  0.2544
 1334loPI   C2B21342   3.004   2.795   7.212  0.0639 -0.2200  0.0365
 1334loPI   C3B21343   2.951   2.699   7.621 -0.1468  0.1315  0.3410
 1334loPI   C4B21344   2.899   2.591   8.024  0.2937  0.1004  0.0190
 1335loPI    C121345  14.190   1.886   5.352  0.1919 -0.0336  0.0349
 1335loPI    C221346  13.996   1.676   5.072  0.0586 -0.1019  0.1771
 1335loPI    C321347  14.396   1.685   5.075  0.0595  0.0602 -0.1333
 1335loPI   PO421348  14.064   1.814   5.544 -0.1431 -0.1356 -0.2227
 1335loPI   GL121349  13.880   2.057   5.818  0.0400 -0.4495 -0.3760
 1335loPI   GL221350  13.937   2.317   6.008 -0.3782  0.1436 -0.0205
 1335loPI   C1A21351  13.880   1.980   6.345  0.0517 -0.3354 -0.1644
 1335loPI   C2A21352  13.883   2.211   6.696 -0.0788 -0.1204 -0.0252
 1335loPI   C3A21353  13.939   2.147   7.098 -0.1903 -0.1546  0.3277
 1335loPI   C4A21354  13.950   2.231   7.557  0.1422  0.0148 -0.2968
 1335loPI   C5A21355  13.936   1.857   7.913 -0.0187 -0.1702 -0.0577
 1335loPI   C6A21356  13.882   1.920   8.394  0.1363 -0.2366  0.0724
 1335loPI   C1B21357  13.760   2.598   6.403 -0.0320  0.1127 -0.0512
 1335loPI   C2B21358  13.801   2.670   6.859 -0.0541  0.0139  0.2031
 1335loPI   C3B21359  13.857   2.685   7.339 -0.1450  0.2779 -0.2914
 1335loPI   C4B21360  13.840   2.770   7.809  0.1349 -0.1246  0.0770
 1336loPI    C121361  14.576   2.472   5.196 -0.2206  0.3103 -0.1888
 1336loPI    C221362  14.281   2.270   5.018 -0.1676  0.1133 -0.0561
 1336loPI    C321363  14.576   2.427   4.799 -0.2422  0.1005 -0.1663
 1336loPI   PO421364  14.596   2.294   5.456 -0.1318  0.0549 -0.0803
 1336loPI   GL121365  14.377   2.130   5.869 -0.0747 -0.0568  0.0536
 1336loPI   GL221366  14.273   1.845   6.008 -0.1794 -0.4405 -0.2746
 1336loPI   C1A21367  14.654   2.237   6.160  0.1023 -0.1989  0.3231
 1336loPI   C2A21368  14.754   2.274   6.517  0.0690  0.0929 -0.0791
 1336loPI   C3A21369  14.749   2.226   6.900  0.0723  0.1348 -0.2647
 1336loPI   C4A21370  14.812   2.316   7.340  0.1994 -0.1082  0.0608
 1336loPI   C5A21371  14.787   2.326   7.815  0.3974 -0.0099 -0.3237
 1336loPI   C6A21372  14.709   2.292   8.222 -0.1058 -0.0054 -0.0133
 1336loPI   C1B21373  14.318   2.039   6.483  0.4630 -0.0068 -0.1802
 1336loPI   C2B21374  14.308   1.935   6.841 -0.0571 -0.0754  0.0143
 1336loPI   C3B21375  14.405   1.998   7.256 -0.0956  0.0690 -0.1624
 1336loPI   C4B21376  14.389   2.046   7.651 -0.1347 -0.1848 -0.0053
 1337loPI    C121377   1.974  15.006   5.374  0.1799 -0.0144  0.1042
 1337loPI    C221378   2.184  15.259   5.145 -0.0057 -0.0068 -0.0607
 1337loPI    C321379   1.843  15.101   5.008  0.0853 -0.3144  0.0575
 1337loPI   PO421380   1.848  15.081   5.662 -0.2274 -0.0146  0.3538
 1337loPI   GL121381   1.732  15.028   6.083  0.0876 -0.2430  0.2330
 1337loPI   GL221382   2.059  15.174   6.086  0.1133  0.0772  0.0475
 1337loPI   C1A21383   1.572  14.913   6.427  0.2254  0.1399 -0.3039
 1337loPI   C2A21384   1.620  14.890   6.874 -0.2149  0.1842 -0.1302
 1337loPI   C3A21385   1.545  15.020   7.373  0.1257  0.0081 -0.4073
 1337loPI   C4A21386   1.444  14.967   7.749 -0.2357  0.0646  0.2453
 1337loPI   C5A21387   1.497  15.048   8.198  0.1723  0.2401  0.2032
 1337loPI   C6A21388   1.945  15.017   8.401  0.3979  0.1385 -0.3647
 1337loPI   C1B21389   1.915  15.229   6.638  0.1089 -0.3013  0.1306
 1337loPI   C2B21390   1.941  15.284   7.126  0.0947  0.1198 -0.2103
 1337loPI   C3B21391   1.998  15.236   7.529  0.2613  0.0132  0.0249
 1337loPI   C4B21392   1.970  14.947   7.831  0.0427 -0.4650  0.1773
 1338loPI    C121393  12.939  10.760   5.215 -0.0015 -0.0489 -0.0266
 1338loPI    C221394  13.323  10.774   5.102  0.0003 -0.0966 -0.0266
 1338loPI    C321395  13.058  10.564   4.887 -0.0831  0.1713 -0.1904
 1338loPI   PO421396  12.924  10.795   5.516 -0.0527  0.0963  0.0722
 1338loPI   GL121397  12.904  10.897   5.872 -0.1707 -0.0658  0.0898
 1338loPI   GL221398  12.781  11.256   5.863  0.2244 -0.1002  0.0870
 1338loPI   C1A21399  13.028  10.789   6.258 -0.3395 -0.1686  0.0878
 1338loPI   C2A21400  13.119  10.812   6.608  0.1840  0.1271  0.2406
 1338loPI   C3A21401  12.993  10.849   6.947 -0.0011  0.0979  0.3833
 1338loPI   C4A21402  13.013  10.798   7.406  0.3123 -0.3573 -0.2200
 1338loPI   C5A21403  13.010  10.867   7.909 -0.1477 -0.1775  0.2066
 1338loPI   C6A21404  13.136  10.759   8.320 -0.1113 -0.0620  0.0723
 1338loPI   C1B21405  12.885  11.299   6.362 -0.1327  0.2153 -0.3322
 1338loPI   C2B21406  12.882  11.284   6.776  0.2129  0.2766 -0.0714
 1338loPI   C3B21407  12.896  11.264   7.188  0.3991 -0.1582 -0.0174
 1338loPI   C4B21408  12.866  11.311   7.707  0.0070  0.2902  0.0245
 1339loPI    C121409   5.848  12.085   5.508  0.0335 -0.0797  0.0039
 1339loPI    C221410   5.939  12.113   5.120  0.4413  0.1818  0.1123
 1339loPI    C321411   5.570  12.201   5.245  0.1967 -0.2700 -0.2579
 1339loPI   PO421412   6.013  12.106   5.628  0.1695  0.0105  0.1976
 1339loPI   GL121413   6.096  12.161   6.105 -0.2561 -0.2398 -0.3432
 1339loPI   GL221414   6.395  12.302   6.207 -0.2018  0.2961 -0.0170
 1339loPI   C1A21415   5.935  12.070   6.559  0.1433  0.1381 -0.0795
 1339loPI   C2A21416   5.989  12.094   6.897  0.2419 -0.1175  0.1183
 1339loPI   C3A21417   5.886  12.059   7.397  0.2632  0.4156  0.3146
 1339loPI   C4A21418   5.977  12.094   7.882 -0.1273  0.1570  0.0346
 1339loPI   C5A21419   5.833  11.871   8.252 -0.2243  0.1995 -0.1472
 1339loPI   C6A21420   5.772  11.529   8.580 -0.0082 -0.1904  0.1968
 1339loPI   C1B21421   6.371  12.353   6.619 -0.0412 -0.2510  0.2010
 1339loPI   C2B21422   6.397  12.423   6.970 -0.3100 -0.0319  0.0701
 1339loPI   C3B21423   6.330  12.342   7.477  0.2425 -0.0217  0.0088
 1339loPI   C4B21424   6.345  12.481   7.882 -0.0924  0.0841  0.0560
 1340loPI    C121425  13.300  12.364   5.262 -0.1296  0.0784 -0.1957
 1340loPI    C221426  13.186  11.993   5.163  0.0327 -0.0887  0.2182
 1340loPI    C321427  13.474  12.176   4.955 -0.1023 -0.1616 -0.0369
 1340loPI   PO421428  13.326  12.362   5.518  0.0325  0.0969 -0.2214
 1340loPI   GL121429  13.227  12.372   5.927 -0.3961 -0.1892  0.2610
 1340loPI   GL221430  13.500  12.127   5.980  0.3821 -0.0171  0.2564
 1340loPI   C1A21431  13.205  12.577   6.412  0.0059  0.1892 -0.3233
 1340loPI   C2A21432  13.158  12.596   6.873 -0.1348  0.0605 -0.0620
 1340loPI   C3A21433  13.140  12.711   7.247  0.2852 -0.0413  0.0618
 1340loPI   C4A21434  13.069  12.734   7.678  0.0859 -0.0265  0.1916
 1340loPI   C5A21435  13.277  12.616   8.002  0.0555 -0.0767  0.3204
 1340loPI   C6A21436  13.305  12.759   8.406 -0.0716 -0.3900 -0.2354
 1340loPI   C1B21437  13.263  12.058   6.279 -0.0953 -0.0227 -0.2623
 1340loPI   C2B21438  13.201  12.109   6.708 -0.4593 -0.1185 -0.0900
 1340loPI   C3B21439  13.211  12.195   7.155  0.3095 -0.1669  0.2371
 1340loPI   C4B21440  13.200  12.290   7.604  0.2325  0.2073  0.0624
 1341loPI    C121441   2.459   4.111   5.467  0.0235  0.2067  0.2491
 1341loPI    C221442   2.694   3.870   5.251 -0.1347  0.2296  0.0485
 1341loPI    C321443   2.464   4.142   5.068 -0.2335  0.2834  0.2499
 1341loPI   PO421444   2.595   4.079   5.694  0.0075  0.2156  0.1635
 1341loPI   GL121445   2.459   3.806   6.058 -0.0907 -0.2278 -0.3055
 1341loPI   GL221446   2.581   3.618   6.141 -0.0687 -0.1586  0.1601
 1341loPI   C1A21447   2.381   3.976   6.568 -0.0635 -0.1134 -0.0943
 1341loPI   C2A21448   2.378   3.920   7.074  0.3366 -0.1320  0.0714
 1341loPI   C3A21449   2.303   4.004   7.483  0.2505 -0.2957  0.1553
 1341loPI   C4A21450   2.380   3.847   7.819 -0.1213  0.0851 -0.1018
 1341loPI   C5A21451   2.424   4.031   8.247  0.2111  0.1259  0.0112
 1341loPI   C6A21452   2.459   4.023   8.736  0.1857  0.1987  0.0207
 1341loPI   C1B21453   2.434   3.481   6.577 -0.2183  0.2075  0.1541
 1341loPI   C2B21454   2.421   3.428   6.957 -0.0372 -0.4861 -0.0874
 1341loPI   C3B21455   2.398   3.490   7.396 -0.1067  0.2259  0.2315
 1341loPI   C4B21456   2.407   3.322   7.713  0.1315  0.2053 -0.0504
 1342loPI    C121457   4.560  -0.129   5.279  0.3198 -0.0860 -0.1934
 1342loPI    C221458   4.327  -0.039   4.967  0.0021  0.1887  0.1143
 1342loPI    C321459   4.654   0.179   5.042  0.0077  0.2029  0.0490
 1342loPI   PO421460   4.389  -0.204   5.509  0.2532  0.0437 -0.0899
 1342loPI   GL121461   4.456  -0.243   5.859  0.0993  0.0887  0.3052
 1342loPI   GL221462   4.653   0.035   5.970  0.1394  0.5812  0.0654
 1342loPI   C1A21463   4.303  -0.238   6.304 -0.0765  0.1772  0.2759
 1342loPI   C2A21464   4.336  -0.241   6.808 -0.3371 -0.0617 -0.2910
 1342loPI   C3A21465   4.366  -0.334   7.330 -0.2552 -0.0924  0.1516
 1342loPI   C4A21466   4.228  -0.306   7.767 -0.1534 -0.0003  0.0909
 1342loPI   C5A21467   4.484  -0.070   8.137 -0.0381  0.1795  0.1223
 1342loPI   C6A21468   4.857   0.178   8.274  0.2315  0.0837  0.0519
 1342loPI   C1B21469   4.688  -0.015   6.444  0.1282  0.2203 -0.0485
 1342loPI   C2B21470   4.714   0.109   6.812 -0.1318  0.2396 -0.4629
 1342loPI   C3B21471   4.728   0.064   7.228  0.1932  0.0355  0.3228
 1342loPI   C4B21472   4.651  -0.033   7.597 -0.1049 -0.0456  0.0081
 1343loPI    C121473   4.032  10.839   6.286 -0.0917  0.2384 -0.0678
 1343loPI    C221474   3.993  10.796   5.890  0.0073 -0.0380 -0.0495
 1343loPI    C321475   3.724  11.010   6.095 -0.1595 -0.0652 -0.2364
 1343loPI   PO421476   4.235  10.908   6.338 -0.0233  0.0666 -0.0938
 1343loPI   GL121477   4.327  10.723   6.723 -0.0621  0.2101  0.0324
 1343loPI   GL221478   4.373  10.981   6.816 -0.2215 -0.0967 -0.3494
 1343loPI   C1A21479   4.614  10.553   7.086 -0.1652  0.2775  0.1556
 1343loPI   C2A21480   4.867  10.406   7.522 -0.2445  0.0815  0.1887
 1343loPI   C3A21481   4.756  10.453   7.946 -0.0503 -0.1338 -0.0806
 1343loPI   C4A21482   4.505  10.350   8.293 -0.0007  0.1133 -0.0422
 1343loPI   C5A21483   4.382  10.092   8.412  0.1184  0.0051  0.0809
 1343loPI   C6A21484   4.614   9.740   8.148 -0.0576  0.6313 -0.3014
 1343loPI   C1B21485   4.339  11.083   7.137  0.0900  0.0647  0.1779
 1343loPI   C2B21486   4.250  11.403   7.468  0.1730 -0.0808  0.0016
 1343loPI   C3B21487   4.100  11.710   7.530 -0.0336 -0.2669  0.0163
 1343loPI   C4B21488   3.934  11.857   7.938  0.2508  0.1080 -0.0096
 1344loPI    C121489   3.004   4.342   5.537  0.0824  0.2585  0.1018
 1344loPI    C221490   2.699   4.518   5.347 -0.0160  0.0549  0.0695
 1344loPI    C321491   3.060   4.506   5.176 -0.1065 -0.1372 -0.1136
 1344loPI   PO421492   2.975   4.416   5.805  0.0353 -0.0590  0.3291
 1344loPI   GL121493   2.988   4.613   6.134 -0.1263  0.1648 -0.0705
 1344loPI   GL221494   3.323   4.420   6.281 -0.1100  0.1061  0.4289
 1344loPI   C1A21495   2.721   4.714   6.567  0.0127  0.1308  0.2247
 1344loPI   C2A21496   2.661   4.681   7.009 -0.0843  0.0603 -0.1944
 1344loPI   C3A21497   2.712   4.696   7.416 -0.0209 -0.0809 -0.0836
 1344loPI   C4A21498   2.613   4.814   7.770  0.0037 -0.0157 -0.1367
 1344loPI   C5A21499   2.565   4.905   8.252 -0.1844  0.0621  0.0852
 1344loPI   C6A21500   2.813   5.281   8.406 -0.0661 -0.1965 -0.1306
 1344loPI   C1B21501   3.175   4.519   6.628  0.1945 -0.0094  0.0186
 1344loPI   C2B21502   3.149   4.565   7.085 -0.1683  0.2692 -0.3295
 1344loPI   C3B21503   3.153   4.477   7.451  0.3017  0.0433 -0.2264
 1344loPI   C4B21504   3.199   4.470   7.844 -0.1906 -0.0026 -0.0014
 1345loPI    C121505   6.801   8.009   5.234 -0.0144 -0.0935 -0.0170
 1345loPI    C221506   6.579   8.206   4.965 -0.0677  0.0103  0.1018
 1345loPI    C321507   6.949   8.333   5.051 -0.1589  0.1525  0.2912
 1345loPI   PO421508   6.644   7.938   5.464  0.2755 -0.2134 -0.0480
 1345loPI   GL121509   6.749   7.905   5.924  0.4292 -0.0438 -0.1824
 1345loPI   GL221510   6.696   8.022   6.218 -0.2778 -0.1178  0.1810
 1345loPI   C1A21511   6.778   7.506   6.239 -0.2861 -0.1997 -0.0705
 1345loPI   C2A21512   6.853   7.435   6.716 -0.0280 -0.0547  0.1631
 1345loPI   C3A21513   6.882   7.424   7.182 -0.0748 -0.0191  0.2410
 1345loPI   C4A21514   6.771   7.378   7.634 -0.0813  0.0960  0.0463
 1345loPI   C5A21515   6.776   7.410   8.073  0.2905  0.0754 -0.0842
 1345loPI   C6A21516   6.692   7.231   8.572 -0.0338 -0.0864  0.0445
 1345loPI   C1B21517   6.793   7.982   6.709  0.0707  0.0748  0.0546
 1345loPI   C2B21518   6.840   7.896   7.168  0.1678  0.1789 -0.1354
 1345loPI   C3B21519   6.776   7.927   7.554 -0.0450 -0.1242 -0.1164
 1345loPI   C4B21520   6.689   7.888   8.042 -0.0594 -0.0599  0.5452
 1346loPI    C121521   6.492   9.747   5.600 -0.1799 -0.0814  0.4147
 1346loPI    C221522   6.796   9.862   5.833  0.0661  0.1344  0.0002
 1346loPI    C321523   6.852   9.814   5.440 -0.3309 -0.2627 -0.0168
 1346loPI   PO421524   6.332  10.013   5.712 -0.2440 -0.2820  0.0878
 1346loPI   GL121525   6.326  10.128   6.145 -0.1327 -0.1495  0.2698
 1346loPI   GL221526   6.565  10.414   6.192 -0.1898 -0.1509 -0.0020
 1346loPI   C1A21527   6.368  10.102   6.610 -0.2083  0.0914 -0.0443
 1346loPI   C2A21528   6.454   9.968   7.109  0.0353 -0.1963  0.0533
 1346loPI   C3A21529   6.519   9.851   7.504  0.2327  0.1528 -0.2854
 1346loPI   C4A21530   6.846   9.683   7.660  0.1235 -0.0682 -0.1249
 1346loPI   C5A21531   6.899   9.287   7.441  0.1107  0.1923  0.1979
 1346loPI   C6A21532   7.003   9.163   6.963  0.1264 -0.0859 -0.1519
 1346loPI   C1B21533   6.801  10.407   6.518 -0.1203  0.2449  0.0712
 1346loPI   C2B21534   6.649  10.426   6.972  0.0018 -0.0899  0.2758
 1346loPI   C3B21535   6.577  10.365   7.398 -0.1189  0.0494  0.2248
 1346loPI   C4B21536   6.593  10.345   7.771  0.2503  0.2361  0.0383
 1347loPI    C121537  13.087   7.414   5.099  0.1403  0.1771  0.0156
 1347loPI    C221538  13.415   7.560   4.922  0.2402 -0.1172 -0.0478
 1347loPI    C321539  13.336   7.168   4.905  0.0877 -0.1048  0.2968
 1347loPI   PO421540  13.107   7.426   5.342 -0.2485  0.2400 -0.0635
 1347loPI   GL121541  13.195   7.206   5.770 -0.1800 -0.0538  0.1268
 1347loPI   GL221542  12.832   7.191   5.806  0.2407 -0.2389  0.0155
 1347loPI   C1A21543  13.070   7.267   6.220  0.1073  0.4242  0.1452
 1347loPI   C2A21544  13.117   7.275   6.668 -0.3454  0.0599 -0.1288
 1347loPI   C3A21545  13.142   7.432   7.052 -0.0749 -0.2646 -0.3024
 1347loPI   C4A21546  13.090   7.404   7.396  0.1441  0.1987  0.2663
 1347loPI   C5A21547  13.077   7.390   7.853  0.1803 -0.0785 -0.1263
 1347loPI   C6A21548  13.023   7.734   8.197 -0.0188 -0.2294  0.1234
 1347loPI   C1B21549  12.615   7.040   6.122  0.2469  0.0093  0.1340
 1347loPI   C2B21550  12.717   6.896   6.521  0.2226 -0.1224  0.3003
 1347loPI   C3B21551  12.742   7.058   6.896  0.0375  0.1576 -0.0208
 1347loPI   C4B21552  12.727   7.095   7.463 -0.0258  0.0849  0.2150
 1348loPI    C121553   8.572   2.878   5.278  0.0622  0.0661 -0.0374
 1348loPI    C221554   8.494   3.212   5.072 -0.1531 -0.1259 -0.2739
 1348loPI    C321555   8.835   3.013   5.009 -0.0281  0.0423 -0.1384
 1348loPI   PO421556   8.329   2.839   5.372  0.0284 -0.2116 -0.0394
 1348loPI   GL121557   8.059   2.773   5.805  0.1346 -0.2665  0.0674
 1348loPI   GL221558   8.222   2.985   6.030  0.1190  0.0445  0.0442
 1348loPI   C1A21559   7.888   2.645   6.153  0.0525 -0.0697  0.1154
 1348loPI   C2A21560   7.937   2.610   6.579 -0.1991  0.1801 -0.1258
 1348loPI   C3A21561   7.954   2.580   7.015 -0.0778  0.3945 -0.0867
 1348loPI   C4A21562   7.943   2.690   7.434 -0.2286 -0.0550 -0.2450
 1348loPI   C5A21563   7.943   2.525   7.850  0.0040  0.0445 -0.2120
 1348loPI   C6A21564   8.240   2.524   8.151 -0.0756 -0.0928 -0.0009
 1348loPI   C1B21565   8.282   2.929   6.472 -0.1330 -0.0628 -0.1371
 1348loPI   C2B21566   8.304   2.933   6.975 -0.0177 -0.0713  0.1637
 1348loPI   C3B21567   8.400   2.986   7.341  0.0535  0.1857 -0.0138
 1348loPI   C4B21568   8.332   2.817   7.716 -0.0927  0.1393 -0.1632
 1349loPI    C121569  11.458   6.242   4.856  0.3740  0.1858 -0.0597
 1349loPI    C221570  11.423   6.032   4.517  0.0658 -0.1300  0.1609
 1349loPI    C321571  11.355   6.426   4.516 -0.0907 -0.1556 -0.1131
 1349loPI   PO421572  11.315   6.144   5.068  0.1886 -0.1861  0.1235
 1349loPI   GL121573  11.210   6.259   5.594  0.0901  0.3586 -0.1660
 1349loPI   GL221574  11.292   6.650   5.691 -0.0733 -0.2004 -0.1542
 1349loPI   C1A21575  10.976   6.257   6.058  0.0075 -0.0868  0.1925
 1349loPI   C2A21576  11.006   6.238   6.497  0.1383 -0.2346  0.1692
 1349loPI   C3A21577  11.000   6.354   6.969 -0.0169 -0.0446  0.2282
 1349loPI   C4A21578  11.111   6.346   7.437  0.0002 -0.1160  0.2174
 1349loPI   C5A21579  11.061   6.302   7.908  0.1465 -0.0259  0.4176
 1349loPI   C6A21580  11.252   6.206   8.307  0.0574  0.0257 -0.0451
 1349loPI   C1B21581  11.349   6.571   6.155 -0.3938  0.0064 -0.0404
 1349loPI   C2B21582  11.436   6.489   6.550 -0.1812  0.1492  0.1515
 1349loPI   C3B21583  11.470   6.646   6.986 -0.0101  0.1240  0.0239
 1349loPI   C4B21584  11.444   6.700   7.532 -0.0024 -0.1929  0.0026
 1350loPI    C121585   2.966   4.981   5.349  0.1101 -0.0756 -0.2255
 1350loPI    C221586   2.607   5.000   5.175 -0.0159 -0.0281  0.0342
 1350loPI    C321587   2.901   5.243   5.055 -0.0616 -0.0835 -0.1954
 1350loPI   PO421588   2.844   4.915   5.713 -0.1109  0.1180  0.0609
 1350loPI   GL121589   2.734   5.284   6.010 -0.1166  0.1009  0.1779
 1350loPI   GL221590   2.525   5.167   6.202  0.0998 -0.0144 -0.1327
 1350loPI   C1A21591   3.059   5.442   6.263 -0.0201 -0.1707 -0.3962
 1350loPI   C2A21592   2.957   5.556   6.739  0.1117 -0.2125 -0.3315
 1350loPI   C3A21593   3.024   5.619   7.146 -0.2135 -0.3889  0.2381
 1350loPI   C4A21594   2.943   5.669   7.600 -0.3280 -0.4187  0.1884
 1350loPI   C5A21595   3.012   5.522   7.967 -0.1855  0.0037 -0.0211
 1350loPI   C6A21596   3.044   5.075   8.067 -0.0648 -0.1260  0.0385
 1350loPI   C1B21597   2.656   5.251   6.548 -0.1046 -0.0704  0.2525
 1350loPI   C2B21598   2.603   5.289   7.035  0.1513  0.0005  0.0717
 1350loPI   C3B21599   2.624   5.238   7.480  0.3216 -0.1284 -0.2493
 1350loPI   C4B21600   2.542   5.309   7.925 -0.1087 -0.2350 -0.0467
 1351loPI    C121601   0.688   5.322   5.336  0.0823  0.2556 -0.0314
 1351loPI    C221602   0.621   5.632   5.091 -0.0576  0.0846 -0.2132
 1351loPI    C321603   0.315   5.409   5.220  0.0575 -0.0780 -0.2165
 1351loPI   PO421604   0.761   5.388   5.566  0.0532 -0.0247  0.0383
 1351loPI   GL121605   0.737   5.358   6.027  0.0191  0.2839 -0.1813
 1351loPI   GL221606   0.430   5.339   6.184 -0.0222 -0.1298  0.1887
 1351loPI   C1A21607   0.775   5.536   6.437 -0.1926 -0.0029 -0.3579
 1351loPI   C2A21608   0.805   5.517   6.898 -0.2601 -0.2369  0.3675
 1351loPI   C3A21609   0.755   5.598   7.322 -0.0486 -0.3922  0.0663
 1351loPI   C4A21610   0.734   5.511   7.705  0.1640 -0.0292  0.0805
 1351loPI   C5A21611   0.703   5.453   8.168 -0.1375 -0.0658  0.1890
 1351loPI   C6A21612   0.582   5.523   8.437 -0.1035  0.1732  0.2516
 1351loPI   C1B21613   0.356   5.199   6.579 -0.1005  0.3473 -0.1799
 1351loPI   C2B21614   0.379   5.219   6.992  0.0654  0.0623  0.0949
 1351loPI   C3B21615   0.412   5.287   7.385  0.0643  0.0704 -0.0095
 1351loPI   C4B21616   0.351   5.170   7.741 -0.1464 -0.1512 -0.1829
 1352loPI    C121617   7.348  14.565   5.466  0.1083 -0.0026 -0.1528
 1352loPI    C221618   7.450  14.739   5.120 -0.0035  0.3385 -0.0188
 1352loPI    C321619   7.066  14.721   5.229 -0.0314 -0.2941 -0.1818
 1352loPI   PO421620   7.510  14.752   5.624 -0.0068  0.0950  0.3050
 1352loPI   GL121621   7.566  14.697   5.979  0.1436  0.3352 -0.1034
 1352loPI   GL221622   7.864  14.567   6.155  0.4375  0.1287  0.4115
 1352loPI   C1A21623   7.319  14.912   6.305  0.0427  0.1680 -0.1039
 1352loPI   C2A21624   7.406  14.919   6.757  0.0074 -0.0792  0.1605
 1352loPI   C3A21625   7.352  15.027   7.188  0.0388  0.0749 -0.0413
 1352loPI   C4A21626   7.397  14.995   7.671 -0.1073 -0.2914  0.2385
 1352loPI   C5A21627   7.398  15.138   8.138  0.1385  0.2965  0.0826
 1352loPI   C6A21628   7.193  15.356   8.545 -0.0727  0.0491  0.1259
 1352loPI   C1B21629   7.740  14.662   6.469 -0.0134 -0.1659 -0.2062
 1352loPI   C2B21630   7.799  14.758   6.956  0.1192  0.4302 -0.1430
 1352loPI   C3B21631   7.859  14.843   7.383 -0.2024 -0.0451  0.1509
 1352loPI   C4B21632   7.903  14.835   7.881  0.0031  0.2293  0.1846
 1353W        W21633   0.655  17.573  15.340 -0.1950 -0.0136 -0.0679
 1354W        W21634   6.137   8.681  12.922  0.0343  0.1168  0.0286
 1355W        W21635   1.996   8.163  13.226  0.2542 -0.2066 -0.1458
 1356W        W21636   2.360  12.728  14.989 -0.0556 -0.0321  0.1227
 1357W        W21637   4.553  10.170   4.710  0.0404  0.0812  0.3285
 1358W        W21638   0.999   9.652  14.973 -0.0076 -0.0600  0.2951
 1359W        W21639   7.310   6.207  16.601  0.1503  0.2454 -0.0811
 1360W        W21640  10.246  16.810  16.621 -0.2359  0.0403 -0.0476
 1361W        W21641   2.965   2.216   1.489  0.0274  0.0657 -0.3117
 1362W        W21642  15.178   5.861   0.623 -0.2955  0.1980  0.0214
 1363W        W21643   2.460   3.724  12.728 -0.1105 -0.0967  0.0378
 1364W        W21644   1.203   1.869   4.632  0.0175 -0.1016 -0.1010
 1365W        W21645  12.447   3.303   3.358 -0.1837 -0.2175 -0.0242
 1366W        W21646  13.124   1.024  13.020 -0.4012 -0.0518  0.0541
 1367W        W21647  12.458  11.549  14.212  0.4003 -0.0890 -0.5146
 1368W        W21648  14.979   6.914  12.456 -0.3298 -0.3734 -0.0419
 1369W        W21649  17.296  14.436   2.316  0.2593 -0.2981 -0.4621
 1370W        W21650   1.369  15.371   2.042 -0.0220 -0.0127 -0.0364
 1371W        W21651   3.724   5.242  12.587 -0.1307  0.0579  0.2115
 1372W        W21652   2.800   5.897   4.008  0.4072 -0.2730 -0.1844
 1373W        W21653  15.892  17.783   3.459 -0.0428 -0.1507 -0.2325
 1374W        W21654   4.452   0.268  13.411 -0.0514  0.0811 -0.0738
 1375W        W21655   0.733  13.255   4.299 -0.0814 -0.1268  0.0586
 1376W        W21656  17.094   1.597   4.609 -0.1009 -0.0617 -0.1338
 1377W        W21657   4.512   8.117  14.546  0.1649 -0.0920  0.2352
 1378W        W21658   2.488  12.704   1.700 -0.4505 -0.0053  0.0255
 1379W        W21659  15.920  13.237  13.643 -0.0206 -0.2479 -0.3457
 1380W        W21660  15.395   6.901   1.858  0.2697  0.3131  0.1670
 1381W        W21661   6.230   8.496   0.518  0.1870 -0.1565 -0.1445
 1382W        W21662   9.710  13.001   4.696  0.1396 -0.0945  0.1948
 1383W        W21663  13.512   1.848  14.201  0.2478 -0.0433 -0.0613
 1384W        W21664   7.566   8.038  16.047 -0.0564 -0.3318  0.2471
 1385W        W21665  15.842   3.353  15.409  0.3442  0.1711  0.0001
 1386W        W21666   1.544  15.796   1.832 -0.0673  0.0011  0.0309
 1387W        W21667  14.357  14.855   1.154 -0.1599 -0.0804 -0.0544
 1388W        W21668   1.500   6.945   0.133 -0.0973  0.3029  0.2964
 1389W        W21669   4.564   1.026   1.315 -0.1076  0.1530 -0.2452
 1390W        W21670  12.642  13.311  13.715 -0.2345 -0.1912  0.2571
 1391W        W21671  14.438  11.029   4.721  0.1899  0.0950 -0.2783
 1392W        W21672  12.119  17.670   1.279 -0.0983 -0.0167 -0.0393
 1393W        W21673   9.907   8.340   3.424 -0.1328 -0.1157  0.2293
 1394W        W21674  14.059  10.730  14.824  0.3404 -0.3126  0.1561
 1395W        W21675   0.160  10.071  13.409  0.1041 -0.2120  0.0488
 1396W        W21676   4.116   8.227   0.748  0.0854  0.3908 -0.0632
 1397W        W21677  11.529  11.463  13.438  0.1313 -0.1498 -0.2884
 1398W        W21678   6.619   5.863   3.509  0.0796 -0.2684  0.0920
 1399W        W21679   0.327   4.039  12.391  0.0736  0.1568  0.1487
 1400W        W21680   1.121   2.923  12.955  0.0738 -0.2248  0.0758
 1401W        W21681   9.537   3.854   2.670  0.1715  0.1389  0.1877
 1402W        W21682   7.341   5.784   4.307  0.3990  0.1459  0.2427
 1403W        W21683  16.821   6.377   0.147 -0.1906 -0.4960 -0.1351
 1404W        W21684  12.021   5.354   1.857  0.0710  0.1028 -0.2054
 1405W        W21685  12.614   5.663   4.598  0.1738 -0.0457  0.0101
 1406W        W21686  13.364   7.747  13.917 -0.0638  0.0748 -0.0985
 1407W        W21687  13.830  12.650   0.069 -0.3669  0.2545 -0.0257
 1408W        W21688  10.932   5.960  15.825  0.1753  0.0270 -0.2628
 1409W        W21689  17.056   3.144   4.745 -0.0671  0.2517  0.0951
 1410W        W21690   9.777   4.033  12.942  0.3158 -0.3660  0.3448
 1411W        W21691  14.122  12.554  14.371  0.3459  0.1103  0.2244
 1412W        W21692  11.384  13.376  13.302 -0.1949 -0.2020  0.1462
 1413W        W21693   1.056   7.381  12.575 -0.1010 -0.2306  0.2149
 1414W        W21694  16.320   9.763  13.587 -0.1638  0.2340  0.0172
 1415W        W21695  13.482  10.301  16.543  0.1932  0.1419  0.0869
 1416W        W21696   3.147   2.237  12.924  0.2101  0.1431  0.1350
 1417W        W21697  15.057   9.816  15.906  0.0866 -0.0020  0.1159
 1418W        W21698   7.624   6.077   4.679 -0.0464  0.2949  0.0970
 1419W        W21699   7.481  12.473  12.387  0.4998 -0.1354  0.2515
 1420W        W21700  12.569   8.489  16.374 -0.3927 -0.0266  0.3882
 1421W        W21701   7.945   4.015  13.786 -0.2109 -0.2583  0.1712
 1422W        W21702   1.134   3.016   0.962  0.1730  0.1344  0.2884
 1423W        W21703   0.157   6.454  14.655  0.2096 -0.2164 -0.2894
 1424W        W21704  14.740   2.937   2.986  0.0045 -0.1935  0.2510
 1425W        W21705  11.942   6.994  13.848 -0.1721 -0.1220 -0.1139
 1426W        W21706   1.931   1.360   0.240 -0.2524 -0.3230  0.0499
 1427W        W21707   8.509   3.744   5.016  0.2956  0.1987  0.1084
 1428W        W21708   8.537   6.845  13.690  0.1530  0.0208 -0.2149
 1429W        W21709   0.976  13.867  13.298  0.3060  0.0064  0.1416
 1430W        W21710  11.078  11.733   4.810 -0.1649  0.0713  0.0257
 1431W        W21711  15.966   9.934   4.052  0.1429 -0.2654 -0.0397
 1432W        W21712  17.535  12.305  14.942 -0.0256 -0.1239 -0.3059
 1433W        W21713  16.328   5.740  14.795  0.1935 -0.4891 -0.2825
 1434W        W21714   4.859   2.357   3.971  0.1347  0.3220 -0.2938
 1435W        W21715   8.699  10.385  16.385 -0.3358 -0.0369  0.0565
 1436W        W21716  16.116   1.887  14.777  0.0792  0.2108 -0.0664
 1437W        W21717  12.646   5.885   2.265  0.1793 -0.1388  0.1244
 1438W        W21718   6.810   9.402  12.259 -0.3482  0.0653 -0.1821
 1439W        W21719   8.717  16.229   0.659  0.1698  0.0232 -0.1188
 1440W        W21720   3.324  17.647   0.475 -0.0611 -0.0125 -0.0737
 1441W        W21721   9.570  16.609   2.460 -0.1955 -0.0747  0.0375
 1442W        W21722  17.089   7.802   0.578  0.1263  0.2184 -0.2792
 1443W        W21723   4.582   6.142   3.788  0.0680  0.0327 -0.3184
 1444W        W21724  15.210   1.937  12.859 -0.1251 -0.2418 -0.1041
 1445W        W21725   1.908  15.708  15.723  0.3033 -0.2305  0.0708
 1446W        W21726  13.980  17.377   4.176 -0.1658  0.0107  0.2429
 1447W        W21727   8.644   7.271   0.374 -0.3084  0.0922  0.0802
 1448W        W21728   1.719   1.472  15.708  0.2654  0.1363  0.0385
 1449W        W21729   6.946   1.947  14.253  0.0089 -0.1542 -0.0277
 1450W        W21730  17.186   8.727   0.984 -0.0633  0.0686 -0.2660
 1451W        W21731   1.020  11.764   4.626 -0.0726  0.0639 -0.0220
 1452W        W21732   9.899   0.716   1.784 -0.1808 -0.0167 -0.1614
 1453W        W21733   2.554   7.820   0.090 -0.1159 -0.2626 -0.1037
 1454W        W21734   7.341   2.349  14.135  0.1303  0.1079 -0.2419
 1455W        W21735  17.426  14.020  15.390 -0.0538 -0.1118  0.1083
 1456W        W21736   5.055  17.018   4.557 -0.1885  0.2928 -0.3820
 1457W        W21737   0.594  16.616  16.118 -0.3408  0.0387 -0.2884
 1458W        W21738   9.351   2.634   4.254  0.1531  0.1130  0.0829
 1459W        W21739  14.098  17.585  15.975  0.0207 -0.3898 -0.1466
 1460W        W21740   0.676   0.965  13.638 -0.1379  0.2678  0.0110
 1461W        W21741  13.092   2.582   5.723  0.3211 -0.1362 -0.3245
 1462W        W21742   3.963   1.118   2.492 -0.5492  0.0446 -0.1255
 1463W        W21743  15.968   6.695  14.987  0.0808 -0.1710  0.3291
 1464W        W21744   2.909  10.922   3.172 -0.1258  0.0852  0.0523
 1465W        W21745  10.927   4.667   1.973 -0.0258 -0.3037 -0.2822
 1466W        W21746   4.398   7.411  14.823  0.1892  0.3157 -0.4286
 1467W        W21747   4.376  17.490  14.676  0.1899 -0.1118  0.0988
 1468W        W21748   2.188  13.159   2.941 -0.2582  0.0990 -0.1383
 1469W        W21749  17.378  16.599  13.080 -0.1630 -0.3336  0.1297
 1470W        W21750   8.001   1.909  16.641  0.2103  0.1381 -0.1931
 1471W        W21751   2.240   0.535  12.731 -0.0889 -0.2406  0.3510
 1472W        W21752   3.910   2.940  12.003  0.0149  0.1229 -0.3375
 1473W        W21753  16.950  14.833   0.093 -0.3114  0.3100  0.0145
 1474W        W21754  16.572   3.907  13.897  0.1924  0.2378 -0.0182
 1475W        W21755   5.526  11.205   2.348  0.0042 -0.0607 -0.0156
 1476W        W21756   9.510  16.628   3.447  0.2322 -0.0532 -0.2158
 1477W        W21757  15.948  14.094  14.890 -0.2296  0.1246  0.0480
 1478W        W21758   5.406   9.507   3.190  0.0167  0.0271 -0.0788
 1479W        W21759  13.284   2.497  11.978 -0.3234 -0.1302  0.1330
 1480W        W21760  15.288  12.410   4.603  0.1117  0.1132  0.0525
 1481W        W21761  10.495  13.170   3.462 -0.1458  0.0989  0.1107
 1482W        W21762  14.137   3.431   2.535 -0.0089  0.2989  0.1924
 1483W        W21763   1.782  16.384   1.195 -0.0066  0.1670 -0.2757
 1484W        W21764  14.830   8.423  15.787 -0.1771  0.1377  0.1687
 1485W        W21765   1.580   6.927   0.655 -0.2130  0.3217  0.1735
 1486W        W21766   0.550  17.846   3.267 -0.0211 -0.1778 -0.0084
 1487W        W21767   0.213  14.526  16.400 -0.0416 -0.0828 -0.4216
 1488W        W21768  10.211   3.201   3.961  0.0649 -0.0690 -0.0333
 1489W        W21769  11.763  17.058   1.807  0.0495 -0.1062 -0.3653
 1490W        W21770  16.210   0.782  13.621  0.2277 -0.1531  0.0826
 1491W        W21771   4.984   2.153   0.347 -0.1960 -0.0418 -0.0463
 1492W        W21772   5.567  14.974  12.552 -0.2158  0.3002 -0.2045
 1493W        W21773  16.859  12.633  12.629 -0.1292 -0.0332 -0.1856
 1494W        W21774  11.575   0.942  12.346 -0.1169  0.2474  0.0743
 1495W        W21775  13.944   5.805  16.044  0.0416  0.0046  0.0780
 1496W        W21776  13.002   0.268   0.638 -0.0376  0.0842  0.3179
 1497W        W21777   6.985  15.267   4.071 -0.0822 -0.1439 -0.0235
 1498W        W21778   2.790  13.842  16.322 -0.2255  0.0701 -0.0556
 1499W        W21779   6.921  17.929  11.954 -0.0069 -0.2100  0.4022
 1500W        W21780  14.502   3.819  14.137  0.0106 -0.1357  0.1052
 1501W        W21781  14.405   3.795   2.955 -0.1538  0.0316  0.1576
 1502W        W21782  16.842  12.130  12.689  0.1175  0.2291 -0.2027
 1503W        W21783   6.449   8.450  14.233 -0.0612 -0.1717  0.1375
 1504W        W21784  17.638   5.129   1.085 -0.0563  0.0938 -0.2252
 1505W        W21785   8.979   6.900  14.401  0.1477  0.4666 -0.1662
 1506W        W21786  17.965   5.498   4.391  0.0505 -0.0351  0.1537
 1507W        W21787   4.118   8.687  12.524  0.2300  0.1269  0.3526
 1508W        W21788  10.570   8.690  14.255 -0.1957  0.2851  0.1013
 1509W        W21789   5.155   0.462   4.450 -0.4227  0.0319 -0.0279
 1510W        W21790   5.575  12.601  12.244  0.4250  0.3240 -0.0351
 1511W        W21791  10.975   9.597   4.125 -0.1062  0.0935 -0.0020
 1512W        W21792  11.930   0.975  16.359 -0.0268 -0.0229 -0.2297
 1513W        W21793  16.675  13.023   4.381  0.1579  0.0478 -0.0212
 1514W        W21794   4.725   2.897  15.432 -0.3583  0.1100  0.2022
 1515W        W21795   8.878   7.472  15.608 -0.2253 -0.3804 -0.2824
 1516W        W21796   2.703  12.502   2.711 -0.2426 -0.4167 -0.2884
 1517W        W21797   0.633   5.058   4.843  0.0222  0.3859  0.0893
 1518W        W21798   1.897   7.524  16.296  0.2508  0.1508  0.2355
 1519W        W21799   8.318   5.512   3.164  0.3683  0.1483 -0.1815
 1520W        W21800  11.974   0.000  13.672 -0.0846  0.0326 -0.2826
 1521W        W21801   3.153  16.298  15.454  0.2075 -0.0847 -0.1317
 1522W        W21802   0.603  13.664  14.652 -0.0871 -0.2533  0.1338
 1523W        W21803  17.470   2.502  15.238  0.1806  0.1976  0.2477
 1524W        W21804  15.437   7.939   0.734 -0.2353 -0.2479 -0.2872
 1525W        W21805   9.169  15.464  12.974  0.0809  0.3316  0.1119
 1526W        W21806  15.109  13.452   3.883  0.2457 -0.4071  0.0742
 1527W        W21807   7.222  14.878   1.996 -0.0216 -0.1337 -0.1412
 1528W        W21808  17.616   2.925  13.926 -0.0101  0.0981 -0.0078
 1529W        W21809  13.349  10.512   3.019  0.0982  0.1370 -0.1020
 1530W        W21810  10.450   1.467  14.271 -0.0945 -0.2273 -0.0637
 1531W        W21811   0.088   2.547  14.535  0.0497 -0.3069  0.2464
 1532W        W21812  12.026   2.889   4.033  0.1983 -0.0845  0.0924
 1533W        W21813   3.859  16.620   2.503 -0.2977 -0.1986 -0.1557
 1534W        W21814   6.763  12.141   2.150 -0.3958 -0.2281  0.0223
 1535W        W21815   6.626   7.267   1.087 -0.0112  0.0909 -0.3011
 1536W        W21816   6.504  17.171   2.889  0.0376  0.0525  0.3244
 1537W        W21817   9.125   5.176   2.307  0.3926 -0.0278  0.0644
 1538W        W21818  17.554  16.766  13.895 -0.0557 -0.0089  0.1407
 1539W        W21819   0.639   1.922   3.291  0.5057 -0.0687 -0.1982
 1540W        W21820   0.555  11.953   3.728 -0.0104 -0.3609 -0.2628
 1541W        W21821   7.952  13.853   3.033  0.0182 -0.1182 -0.1898
 1542W        W21822  11.633   8.518  15.422 -0.1263 -0.1264 -0.3238
 1543W        W21823   6.401   1.850   3.296  0.1044 -0.2948  0.0093
 1544W        W21824  15.258   2.267   0.544  0.1125 -0.2858 -0.3239
 1545W        W21825  16.379  17.810   3.582  0.0392  0.3994  0.1109
 1546W        W21826   7.963   6.492  15.405 -0.1728 -0.1917 -0.1511
 1547W        W21827   3.605   4.541  14.427  0.1729  0.0756  0.0552
 1548W        W21828  12.262   7.816   4.911 -0.0896 -0.0555 -0.1677
 1549W        W21829   3.300  11.454   3.397 -0.1250  0.1201 -0.0693
 1550W        W21830  12.884   5.670  12.854  0.3317  0.0539 -0.0331
 1551W        W21831   1.930   3.688   1.141 -0.1290  0.2955 -0.2056
 1552W        W21832  14.198  14.331   4.287  0.3651  0.1646 -0.0140
 1553W        W21833   5.295   0.376  14.928 -0.0011  0.2207 -0.1267
 1554W        W21834  16.760  14.719  13.401 -0.0029 -0.0033 -0.2620
 1555W        W21835   6.714   3.492   4.239 -0.0881  0.0093  0.4412
 1556W        W21836   7.791   1.699  10.892 -0.0985 -0.0347 -0.1804
 1557W        W21837   7.345  10.273  12.254  0.0928  0.2706 -0.0501
 1558W        W21838   5.527   2.252   1.848 -0.0172  0.0660 -0.1980
 1559W        W21839  12.309  11.094   1.924 -0.1856  0.1226  0.1330
 1560W        W21840  16.378   6.539  16.615 -0.0117  0.2719 -0.1970
 1561W        W21841  11.367   0.360  16.613  0.3492  0.0974 -0.1180
 1562W        W21842  15.146   6.118   1.820  0.0515 -0.0473  0.0779
 1563W        W21843  11.985  15.167  12.401  0.0085  0.1470  0.1693
 1564W        W21844   2.424   5.181   3.555  0.1156 -0.0779 -0.2528
 1565W        W21845   2.429  12.256  15.026  0.0418 -0.2296 -0.1520
 1566W        W21846   0.296   0.481   0.966  0.2203 -0.1126  0.0773
 1567W        W21847   3.015  12.515   0.579  0.0874  0.3155  0.1570
 1568W        W21848  16.700   9.125   4.549 -0.1262  0.0764  0.2049
 1569W        W21849   1.966  15.602   1.967  0.2631 -0.1291 -0.1998
 1570W        W21850  15.342   9.894   0.961  0.0343  0.1867 -0.0455
 1571W        W21851   0.039  16.114   4.100 -0.2488  0.2963  0.3414
 1572W        W21852   1.152   1.029  16.523  0.1631  0.2742 -0.2888
 1573W        W21853  14.815  15.809   0.299 -0.0800 -0.2054  0.1261
 1574W        W21854   0.849   0.981  12.247  0.2951  0.0419  0.1827
 1575W        W21855  13.121   3.522  14.034  0.2695  0.2145 -0.0880
 1576W        W21856   0.548  12.444   1.490 -0.0084  0.3081  0.0403
 1577W        W21857   3.213   2.871   4.577 -0.0991 -0.3034  0.2219
 1578W        W21858  14.102   1.784   2.676  0.1128  0.1696  0.1258
 1579W        W21859   9.704  17.611   3.461  0.0902 -0.0845  0.5095
 1580W        W21860   9.931   7.246  13.533 -0.2920  0.0023 -0.0054
 1581W        W21861  17.696  15.316   2.125  0.0568  0.1325  0.1933
 1582W        W21862   9.827   7.661  13.967  0.0724 -0.1163  0.1955
 1583W        W21863  12.858   2.843   1.585 -0.2815  0.0880  0.1578
 1584W        W21864  17.437   0.364   1.316 -0.2249 -0.1566  0.1188
 1585W        W21865   8.867  15.606  14.002  0.1323  0.3311 -0.0986
 1586W        W21866   8.592   1.103  12.957  0.0531 -0.0149 -0.1824
 1587W        W21867  14.522  10.355   3.549 -0.0766  0.1595 -0.1217
 1588W        W21868   9.299   5.457  14.936 -0.2832  0.0021 -0.1371
 1589W        W21869   3.575  16.224   2.520  0.4038  0.0673  0.0367
 1590W        W21870   0.848   5.388  12.537  0.1175 -0.2965 -0.1370
 1591W        W21871  13.686   9.142   0.725  0.2846 -0.0446 -0.2512
 1592W        W21872   9.213  14.357   0.758  0.0228  0.0703  0.0075
 1593W        W21873   9.013   2.047  16.454  0.2961  0.1832  0.2127
 1594W        W21874   8.386   6.687  16.506 -0.0590  0.2569  0.0393
 1595W        W21875  16.698  14.831  15.613 -0.2175 -0.1443 -0.0537
 1596W        W21876  11.477  17.129  14.768  0.1172 -0.0578 -0.1269
 1597W        W21877  13.363   3.828  16.032  0.0994 -0.0915  0.0428
 1598W        W21878   3.477   5.319  13.644  0.0163  0.3559 -0.1529
 1599W        W21879   1.768   5.946   3.187  0.0912 -0.1173  0.1362
 1600W        W21880   4.721  15.775   3.496  0.0197 -0.0396  0.0512
 1601W        W21881   8.664  14.265  13.106  0.0598  0.2357  0.1601
 1602W        W21882  14.461  10.167   0.810 -0.0041  0.2620  0.0392
 1603W        W21883   6.450  15.189  14.636  0.1005 -0.1259 -0.0957
 1604W        W21884  16.105   5.784  15.212  0.0303  0.1271  0.2798
 1605W        W21885   3.028  11.289  15.648 -0.0297 -0.0028  0.0704
 1606W        W21886   0.005   8.257   0.646 -0.0726 -0.0841  0.2097
 1607W        W21887   6.519  10.322   0.221 -0.0253  0.1724 -0.0968
 1608W        W21888   9.472   2.756   0.356 -0.2710  0.0835  0.2715
 1609W        W21889  14.313   9.918  13.750  0.3107 -0.0012  0.0596
 1610W        W21890   3.240  17.089   1.852  0.2099 -0.1689  0.0203
 1611W        W21891   1.978   0.124  12.538  0.1783  0.1466  0.0611
 1612W        W21892   7.855  13.304  14.574 -0.2226 -0.1431  0.0216
 1613W        W21893  13.794   4.581   2.140  0.0084  0.0941  0.0532
 1614W        W21894  12.498   6.436  15.568  0.2785  0.0810 -0.0163
 1615W        W21895  15.184   5.389  15.220 -0.1384  0.2205  0.1000
 1616W        W21896   4.067  12.138  14.946 -0.0259 -0.3487 -0.2805
 1617W        W21897   9.111   1.159   1.989  0.1546 -0.1516 -0.1983
 1618W        W21898   0.157   1.051  12.745  0.1463  0.0267  0.1822
 1619W        W21899   1.717   1.914   1.623 -0.1580 -0.3014  0.1511
 1620W        W21900   1.298   7.988  15.916 -0.0860 -0.0655 -0.2238
 1621W        W21901   3.315   5.892   1.913  0.3386  0.0240  0.2206
 1622W        W21902   7.174   8.155  16.378 -0.0185 -0.1565 -0.0668
 1623W        W21903   2.305   7.201  16.204 -0.2376  0.1345  0.1037
 1624W        W21904   5.395  15.662   2.364  0.1244 -0.0591  0.1719
 1625W        W21905  13.258   9.036  13.097 -0.1114  0.2247 -0.1752
 1626W        W21906   4.065   2.129  15.928  0.1952 -0.0684 -0.0946
 1627W        W21907  12.521   6.499  13.325 -0.0395  0.2654 -0.1725
 1628W        W21908   0.315   9.228  14.451  0.4075 -0.2862 -0.3027
 1629W        W21909  12.972  17.528  12.656  0.1596 -0.2548 -0.1130
 1630W        W21910  10.849  14.260  11.448 -0.4744  0.0691  0.1750
 1631W        W21911  13.763  10.234   3.196  0.4639  0.0418 -0.1393
 1632W        W21912  16.725   8.188  12.486  0.1941  0.1647 -0.0664
 1633W        W21913   8.184   2.781  13.538  0.1675  0.1047  0.3224
 1634W        W21914   7.859   4.234  11.980 -0.1599 -0.1727  0.0682
 1635W        W21915  15.902   5.621   1.183 -0.1275  0.0201  0.1645
 1636W        W21916  15.641   1.877   1.761  0.3884 -0.1008  0.1266
 1637W        W21917   0.861   7.640  15.542  0.1232 -0.0753 -0.2211
 1638W        W21918   1.171   8.912   4.107  0.1072 -0.0059 -0.4745
 1639W        W21919   2.955   9.047   4.701 -0.2308  0.2008  0.1310
 1640W        W21920  14.729   0.843  13.651  0.0882  0.1625  0.1544
 1641W        W21921  17.487  13.816  16.435  0.1047  0.0450 -0.1199
 1642W        W21922  13.242   9.531   4.233 -0.1565  0.1040  0.2340
 1643W        W21923  10.780  14.362  14.468 -0.0705  0.2554 -0.0141
 1644W        W21924  16.101   8.582   1.961 -0.2848 -0.1190 -0.1711
 1645W        W21925   8.598   5.900   0.530 -0.0720  0.0308 -0.2244
 1646W        W21926   0.535   8.871  15.805  0.1483  0.1458  0.2842
 1647W        W21927   5.460  15.893   3.661 -0.0287  0.1061 -0.1933
 1648W        W21928  13.484  10.206  15.829  0.1528  0.1399  0.1240
 1649W        W21929  11.463   7.557  13.036 -0.2814 -0.2064 -0.0885
 1650W        W21930   3.538   5.942   2.793 -0.3407  0.1264  0.0415
 1651W        W21931  11.156  11.612  14.870  0.0331 -0.1536  0.0476
 1652W        W21932  17.706  16.066   3.020  0.2601 -0.1231  0.0162
 1653W        W21933   5.000   2.477  16.110  0.0116  0.0688 -0.2288
 1654W        W21934  11.345  10.377   1.512 -0.1003 -0.1375  0.1726
 1655W        W21935  16.289  14.767   3.098  0.2153 -0.1258 -0.1652
 1656W        W21936   1.865  11.395  12.950  0.1738 -0.0841 -0.0425
 1657W        W21937   7.539  15.223  12.022  0.4074 -0.4171 -0.1873
 1658W        W21938  13.803   2.100   2.367 -0.3754  0.0440  0.0365
 1659W        W21939   4.979  12.128  13.323  0.2727  0.1025 -0.0769
 1660W        W21940  14.396  10.243  12.852 -0.3438 -0.1269  0.1412
 1661W        W21941  14.783   7.852  15.741  0.0321  0.2431  0.0642
 1662W        W21942   3.723  11.203  16.328  0.0020  0.0093  0.0784
 1663W        W21943   7.115  11.324   2.444 -0.0642 -0.1861  0.3150
 1664W        W21944   4.595  16.171  13.441 -0.0500  0.2377  0.1206
 1665W        W21945   8.323   3.627  11.673 -0.2233 -0.1091  0.2927
 1666W        W21946  17.469   1.946  13.138  0.2956  0.2007  0.3724
 1667W        W21947  16.954   0.913  15.044  0.1185  0.2035  0.2224
 1668W        W21948  17.036   0.118   2.796  0.1204 -0.3487  0.1012
 1669W        W21949  17.376  13.463  15.569 -0.3791 -0.1805 -0.1617
 1670W        W21950  13.246   9.729  14.205  0.0626 -0.1449 -0.3601
 1671W        W21951   4.273   8.758  15.646 -0.4573  0.0144 -0.0284
 1672W        W21952   3.208   7.487  13.892  0.0752  0.1368  0.5854
 1673W        W21953   4.856   4.781  14.477  0.1629  0.0736 -0.0275
 1674W        W21954  11.555   9.398  15.952 -0.2232 -0.1835  0.0954
 1675W        W21955   8.017  16.385  13.722  0.1623  0.0337 -0.1213
 1676W        W21956  12.974  16.315   0.372  0.1977  0.1326  0.0239
 1677W        W21957  14.705   6.839  15.349  0.1860 -0.0628  0.1023
 1678W        W21958  13.956  11.138  15.882  0.0280 -0.0656  0.1546
 1679W        W21959   7.441  11.364  14.667 -0.0215  0.1349  0.1042
 1680W        W21960   3.260   0.755  14.106  0.2720  0.0679  0.0381
 1681W        W21961   4.882   0.950  12.733 -0.0602  0.1114  0.2021
 1682W        W21962   2.942  12.780  15.905 -0.0008  0.0500 -0.1419
 1683W        W21963   1.930  17.839   3.178 -0.0022 -0.0768 -0.0702
 1684W        W21964   1.670  14.065   2.214 -0.1718  0.0948  0.1526
 1685W        W21965  16.025  12.847   5.518 -0.0096  0.0645  0.0149
 1686W        W21966   6.657   4.995   1.022 -0.2105  0.0403 -0.0586
 1687W        W21967   0.211   6.681   0.425  0.1355 -0.3511 -0.1138
 1688W        W21968   9.225  17.586  16.226  0.1029 -0.0356  0.5795
 1689W        W21969   7.090   1.934   0.129  0.0494 -0.0516  0.0854
 1690W        W21970   2.877   3.781   3.584 -0.2184 -0.0494  0.2431
 1691W        W21971  14.029   3.405   2.016 -0.1431 -0.0068 -0.1044
 1692W        W21972   4.387   3.617  14.800 -0.1706 -0.2146 -0.0524
 1693W        W21973   3.998   6.622   1.991  0.1861 -0.0738  0.5019
 1694W        W21974   1.296  12.902   1.448 -0.0781 -0.4909 -0.0125
 1695W        W21975   5.211   2.437  12.761  0.2111 -0.0190 -0.0138
 1696W        W21976  15.750   3.642  12.828 -0.0974  0.1384  0.2400
 1697W        W21977  14.040  12.290   2.464  0.0876  0.0358 -0.0439
 1698W        W21978  14.311   0.959   3.310  0.0437  0.1395 -0.3101
 1699W        W21979  14.339   3.053   1.908 -0.0675  0.0648 -0.1644
 1700W        W21980  15.953  14.987  12.324 -0.2056 -0.0132 -0.0669
 1701W        W21981   7.035  14.679  15.497 -0.1804 -0.2522 -0.0291
 1702W        W21982   6.722  11.225   0.125 -0.0936 -0.0441 -0.1690
 1703W        W21983   8.193   3.173   0.286  0.0636  0.1716  0.3805
 1704W        W21984  16.275   6.250  14.942 -0.0413  0.0224 -0.0772
 1705W        W21985   0.554   2.510  15.870 -0.3665  0.2327  0.1085
 1706W        W21986  10.295   9.391  16.330  0.0643 -0.0631  0.0734
 1707W        W21987   7.803  13.681   2.118  0.0762  0.3998  0.5200
 1708W        W21988  10.388   8.399  13.906  0.1974 -0.0877  0.2065
 1709W        W21989  10.260  13.330  16.345 -0.2073  0.0379  0.2098
 1710W        W21990  11.876   0.095  14.623 -0.2239  0.0737  0.3538
 1711W        W21991  17.876  12.905   2.343 -0.1659  0.0846  0.1325
 1712W        W21992   5.915   8.856   4.725  0.1598 -0.1315  0.0494
 1713W        W21993   0.937   2.616   0.700  0.1345 -0.1161  0.3461
 1714W        W21994   2.988   2.966  12.316  0.2259 -0.1944 -0.0804
 1715W        W21995   1.067  14.873  14.369  0.2815 -0.0246 -0.1182
 1716W        W21996  13.604   8.489  16.323 -0.1691  0.0589  0.2193
 1717W        W21997  15.654   6.293  12.868 -0.2228 -0.0026  0.0105
 1718W        W21998  11.773   9.044  13.348  0.0499  0.0465  0.1063
 1719W        W21999   1.867   3.116  14.872 -0.0593  0.0004  0.0442
 1720W        W22000  11.603  12.414  13.002 -0.1866  0.1389  0.1160
 1721W        W22001   2.831  14.602   5.043 -0.0646 -0.1487 -0.2272
 1722W        W22002  14.439  15.331   0.968  0.2068  0.0221 -0.1254
 1723W        W22003   8.780  12.359  12.717  0.2153  0.1562  0.0324
 1724W        W22004  12.570   4.956  15.912 -0.0292  0.3233 -0.1280
 1725W        W22005  10.315   6.725   0.179  0.2666  0.0211 -0.1189
 1726W        W22006   3.720  12.225   5.128  0.0998 -0.2112  0.2018
 1727W        W22007  11.413   6.116   3.469  0.0376  0.0014  0.3228
 1728W        W22008  16.442   2.950   3.193  0.0443  0.0690  0.0060
 1729W        W22009  11.001  13.141   3.586 -0.1063  0.2155 -0.2585
 1730W        W22010   2.329  12.464  14.552  0.0597 -0.3217  0.5008
 1731W        W22011  14.202  10.784  15.326  0.1126 -0.0846 -0.1585
 1732W        W22012  16.100   0.498  14.891  0.0347  0.0299  0.0984
 1733W        W22013  14.637   1.337   2.012 -0.0158  0.1300  0.1032
 1734W        W22014  13.451  15.476   0.478  0.1487  0.1682 -0.0943
 1735W        W22015  11.563  12.516   3.827  0.0949 -0.0861 -0.0510
 1736W        W22016   6.376   0.963  14.636  0.1818  0.0472  0.0062
 1737W        W22017   6.011  17.021   2.865 -0.1260 -0.2943 -0.0893
 1738W        W22018   3.230  15.956   2.261 -0.2618  0.1279 -0.0015
 1739W        W22019   8.614   0.163   3.956 -0.2487 -0.1556 -0.5076
 1740W        W22020   2.364   0.106  14.606  0.0153  0.0543 -0.0766
 1741W        W22021   5.271  15.365   2.824 -0.2886  0.1994  0.0317
 1742W        W22022   2.375  15.461  15.774  0.0744  0.1523  0.1688
 1743W        W22023  14.033   9.085  15.193 -0.0822  0.3889  0.0899
 1744W        W22024  12.226  14.052   4.611 -0.4162  0.0544 -0.4741
 1745W        W22025  15.600  12.715   4.323  0.0327 -0.1184  0.1273
 1746W        W22026   9.662   0.481   1.314  0.2942  0.0356 -0.1107
 1747W        W22027   8.461   4.304   0.402 -0.2757  0.3479 -0.1608
 1748W        W22028   1.401   8.669  13.917 -0.0508 -0.0990  0.0853
 1749W        W22029   8.599   8.107   0.322 -0.0799  0.2282 -0.0291
 1750W        W22030  15.201   3.691  13.767 -0.0548 -0.2871  0.0388
 1751W        W22031  10.960  14.808   2.790 -0.1268  0.3328  0.0729
 1752W        W22032   8.099   1.417  12.364  0.3595  0.2118 -0.1398
 1753W        W22033   5.284   2.214   4.762  0.2711  0.1183  0.4257
 1754W        W22034  10.831   7.594  12.842 -0.0153  0.1155  0.1786
 1755W        W22035  15.018   2.518  12.142  0.0281 -0.2381  0.1835
 1756W        W22036   0.458  11.606  16.606 -0.4325 -0.0626  0.3076
 1757W        W22037   7.762  12.880  15.961 -0.2368 -0.1116  0.3234
 1758W        W22038  12.804  14.920   1.205 -0.1218 -0.1119  0.0627
 1759W        W22039   2.299  10.472  15.036 -0.2657 -0.0010  0.0857
 1760W        W22040   9.007   0.675   0.384  0.2872  0.0192  0.5101
 1761W        W22041   3.213  16.884  14.439 -0.0098 -0.3959  0.3576
 1762W        W22042   2.611   3.798   2.956  0.4381 -0.0916 -0.1583
 1763W        W22043   0.094   0.007  16.232 -0.1025  0.1390  0.1385
 1764W        W22044   2.860  12.387   1.572  0.2152 -0.0040  0.3002
 1765W        W22045   2.013   3.906   3.659  0.0252 -0.1442  0.3723
 1766W        W22046   6.206   4.175   4.335 -0.2650  0.2020 -0.0932
 1767W        W22047   0.850  15.894  14.673  0.2077 -0.0421  0.2152
 1768W        W22048  11.495  16.553  16.432  0.1225 -0.0905  0.2385
 1769W        W22049  13.690  15.233   0.074 -0.2904  0.1814  0.0513
 1770W        W22050   3.662   1.194   1.640 -0.2011  0.2098 -0.2141
 1771W        W22051   2.984   2.676  14.257 -0.2579 -0.1812  0.0657
 1772W        W22052   8.209  17.711   3.041  0.0525  0.3368 -0.0809
 1773W        W22053  17.101  14.620   3.204 -0.0397 -0.1730  0.0975
 1774W        W22054  11.195  14.924   3.488 -0.3980 -0.2171 -0.2258
 1775W        W22055   2.876  17.485  13.312  0.0252 -0.0133  0.1274
 1776W        W22056   4.622   3.189  16.246  0.1331  0.1037  0.0520
 1777W        W22057  12.780  17.852  13.012 -0.0539  0.0518  0.2092
 1778W        W22058  15.217  14.899  15.959 -0.1385  0.0913 -0.1066
 1779W        W22059  13.111   6.134   3.601 -0.3590  0.0471  0.0873
 1780W        W22060  11.408   9.589   2.066  0.1268  0.3192 -0.1706
 1781W        W22061   3.586  16.755   2.053  0.1896 -0.0232  0.0953
 1782W        W22062   5.077   1.756  15.515  0.1124  0.0421 -0.0250
 1783W        W22063  15.229  12.841  15.121 -0.2817  0.0997 -0.3299
 1784W        W22064   6.814  12.258   2.738 -0.0034 -0.3549 -0.1657
 1785W        W22065  15.745   8.309  15.699  0.3929  0.1731 -0.1106
 1786W        W22066  11.784   7.681   4.772  0.2435  0.1964  0.1662
 1787W        W22067  11.318   5.213   1.266  0.0304 -0.0375 -0.2748
 1788W        W22068   9.840  16.803  13.504 -0.0754  0.1660 -0.0404
 1789W        W22069   3.972   1.417  16.500 -0.0332 -0.1271  0.0150
 1790W        W22070  12.830  17.972   1.791  0.1523  0.0782  0.1033
 1791W        W22071   0.435   8.338   5.058  0.0343 -0.1827 -0.2436
 1792W        W22072   1.527   8.920   4.699  0.1108  0.1330 -0.1817
 1793W        W22073   5.308  13.195   1.592  0.0916  0.1005 -0.0802
 1794W        W22074   4.920   6.511  15.409 -0.0538 -0.3128 -0.0562
 1795W        W22075  10.575   2.650  14.596 -0.0807 -0.2665 -0.0046
 1796W        W22076  14.291  14.124  15.165 -0.0975  0.0146  0.2707
 1797W        W22077  16.776   5.094   4.886 -0.3151  0.0056  0.0955
 1798W        W22078   4.654  14.379   4.839  0.0193  0.2858 -0.1022
 1799W        W22079   6.240  11.816   4.838 -0.0582  0.0760  0.2598
 1800W        W22080  13.849  10.451   1.775 -0.0253  0.2771  0.2150
 1801W        W22081   1.776   4.157  16.667 -0.1851 -0.0800  0.0622
 1802W        W22082  13.725   4.145   0.931 -0.0225  0.1063  0.0067
 1803W        W22083   2.167   7.391   1.166 -0.1158  0.1287  0.3392
 1804W        W22084  13.921   5.223  15.818  0.0343 -0.1960 -0.2279
 1805W        W22085  17.569  14.686   3.835  0.2052  0.2679  0.2158
 1806W        W22086  15.577  16.319   1.988  0.1176  0.3436  0.1464
 1807W        W22087  16.137   4.995  14.677  0.2200 -0.0229 -0.0132
 1808W        W22088   2.917  13.821  15.452 -0.3466 -0.5466 -0.0727
 1809W        W22089   6.192   1.290   2.506 -0.1045 -0.1947  0.0096
 1810W        W22090   0.345  11.121   2.258  0.0340 -0.1407 -0.2388
 1811W        W22091   0.899   3.394  12.659 -0.0127  0.2353 -0.0722
 1812W        W22092   0.562  12.857  13.561  0.0455  0.0787  0.0801
 1813W        W22093  14.042  11.057   2.646  0.0205  0.1018  0.0406
 1814W        W22094   6.285  12.543   0.804  0.0979  0.2265  0.0375
 1815W        W22095  11.298   3.314   3.371 -0.4592 -0.1432  0.0885
 1816W        W22096  16.216  14.884   4.190 -0.3463 -0.1356  0.0111
 1817W        W22097  15.256  14.233   4.418 -0.0632 -0.0677  0.0712
 1818W        W22098   8.065  12.203   0.307 -0.1325  0.2745 -0.0684
 1819W        W22099   0.686  10.844   3.533 -0.0708 -0.0370  0.1492
 1820W        W22100   7.645  14.988  12.607  0.3019 -0.0860  0.3659
 1821W        W22101  10.114  10.322  13.604  0.1165 -0.0334  0.2065
 1822W        W22102   0.521   8.745  13.519 -0.1173  0.1145 -0.4376
 1823W        W22103   6.671  14.457   3.346 -0.2181  0.0411  0.1678
 1824W        W22104   6.737  16.119   4.416  0.0939  0.0992  0.0043
 1825W        W22105   2.224  14.803   2.073 -0.2393  0.0560  0.2325
 1826W        W22106  11.142  12.100  12.450  0.0253 -0.2662 -0.4364
 1827W        W22107   0.217  11.160   0.375  0.0206 -0.1672  0.0982
 1828W        W22108  17.218  15.206   1.937 -0.1257 -0.1829  0.0860
 1829W        W22109   2.799   8.473   0.837 -0.0530  0.4234  0.0136
 1830W        W22110   6.597  16.797   3.357 -0.0362 -0.0700  0.0630
 1831W        W22111   5.266  16.108   4.419  0.3439  0.0373 -0.0961
 1832W        W22112  16.034   4.686  13.924  0.0342  0.2123 -0.0071
 1833W        W22113  11.171   1.089  13.801  0.1977 -0.0119 -0.1022
 1834W        W22114  17.549  11.045  13.974 -0.1990 -0.0175  0.1522
 1835W        W22115  17.072   2.553  14.289  0.1768  0.0560  0.0591
 1836W        W22116   7.448  17.660  13.447  0.1742  0.0011  0.1164
 1837W        W22117   1.725  12.978  12.213 -0.0440  0.3204 -0.0063
 1838W        W22118   4.523   6.068   0.976 -0.2037 -0.1683 -0.1314
 1839W        W22119  12.695   9.518  14.974  0.0182  0.0764  0.1816
 1840W        W22120   0.957   3.004  14.363  0.1204 -0.1206 -0.0089
 1841W        W22121   5.166  11.202  12.271 -0.0875  0.2340  0.3898
 1842W        W22122   8.360   4.978   3.062 -0.1069  0.1823  0.3002
 1843W        W22123  11.080  12.453  14.981 -0.0552 -0.2391 -0.1044
 1844W        W22124  15.238   5.479   2.696  0.3152  0.2711  0.0741
 1845W        W22125   6.784   8.911  12.075 -0.1120 -0.0694 -0.0501
 1846W        W22126   4.949   6.530   2.494 -0.1345 -0.0761 -0.0653
 1847W        W22127   0.041  12.479  14.760  0.0268  0.1295  0.0785
 1848W        W22128  13.211  11.447   2.828 -0.1531  0.2147  0.0095
 1849W        W22129   3.696  16.814   1.600 -0.1582 -0.0809 -0.2445
 1850W        W22130  15.076   4.363   4.055 -0.1335 -0.2599  0.0619
 1851W        W22131  16.829  16.540   0.793 -0.3374 -0.2671  0.2022
 1852W        W22132   2.315  10.907   0.399  0.0625 -0.1082  0.0178
 1853W        W22133   4.406  12.414  15.672  0.3106  0.0530  0.1637
 1854W        W22134  11.895  13.276  11.034 -0.3246 -0.0578  0.0969
 1855W        W22135  15.759  14.689   3.718  0.2644  0.1330 -0.1925
 1856W        W22136  12.236   0.814  14.226 -0.0588 -0.1982  0.2452
 1857W        W22137   6.040  10.116   0.083  0.0689  0.0599 -0.0943
 1858W        W22138   0.683  13.233   2.376  0.0459 -0.0204 -0.0218
 1859W        W22139   4.352   7.540  15.352  0.4542  0.0828 -0.0815
 1860W        W22140  10.110   8.666  13.030  0.0695 -0.2570 -0.0225
 1861W        W22141  12.967  17.150  12.343  0.1921 -0.2597  0.2414
 1862W        W22142  11.829  11.951   4.504  0.0999  0.0380  0.0588
 1863W        W22143   0.685   8.572   1.905  0.0467  0.0136 -0.1216
 1864W        W22144   1.615   2.877   1.325 -0.1061  0.1040  0.0701
 1865W        W22145   1.083  17.174   0.096 -0.0660 -0.0647 -0.1049
 1866W        W22146   8.407  14.058   0.029 -0.1198  0.0307 -0.0306
 1867W        W22147   8.430   2.747  16.174 -0.0381  0.0980  0.0669
 1868W        W22148  17.088   3.447  16.522 -0.2309  0.3293 -0.2123
 1869W        W22149  11.339   3.966  14.232  0.0463  0.1307  0.0203
 1870W        W22150  17.223   7.121  15.120  0.1101  0.1154  0.0965
 1871W        W22151  14.397  13.513  14.520  0.3307 -0.0256 -0.0518
 1872W        W22152   2.134   4.100  12.694 -0.0745  0.0604  0.0391
 1873W        W22153  11.299  11.069  15.540  0.1685  0.0286 -0.3404
 1874W        W22154   7.782   9.626   4.495  0.1083  0.0612  0.1737
 1875W        W22155   4.592   9.257  13.804  0.0841  0.0858 -0.2731
 1876W        W22156   3.023  12.797  12.383 -0.1686  0.0980  0.3795
 1877W        W22157   8.248  14.055  12.922 -0.2723  0.0726  0.2486
 1878W        W22158  16.609  10.972   3.684 -0.0313 -0.3228  0.2065
 1879W        W22159   3.420   0.481  14.654  0.2351 -0.1442 -0.0636
 1880W        W22160  13.070  17.175   2.598  0.0550  0.0587 -0.2871
 1881W        W22161   9.797  17.651   0.763 -0.0240  0.0334 -0.1738
 1882W        W22162  15.251   6.712   0.054  0.2261 -0.1020 -0.0730
 1883W        W22163   7.151   5.083  12.614 -0.0322  0.0438  0.0834
 1884W        W22164   4.453  15.614   2.712  0.1234 -0.0831  0.0543
 1885W        W22165   1.054  12.054   5.042 -0.0537 -0.1308  0.0022
 1886W        W22166  17.909   8.970  14.522  0.0800  0.1281 -0.2882
 1887W        W22167   7.529   6.618  14.021  0.0179  0.0349  0.0386
 1888W        W22168  17.714   6.458   3.860 -0.0420 -0.3364 -0.3141
 1889W        W22169   0.211   6.324  11.847  0.0057  0.2107  0.2224
 1890W        W22170  16.376   2.676   3.927 -0.0435 -0.3113  0.2666
 1891W        W22171  16.120   9.205   2.283  0.1385 -0.2057 -0.0845
 1892W        W22172  12.476   1.803   4.234  0.0471 -0.1552  0.2045
 1893W        W22173   1.601   1.769   2.127  0.0087  0.3176 -0.1780
 1894W        W22174   5.714  13.899   5.231  0.0254  0.0182 -0.3709
 1895W        W22175  12.164   7.171  16.596 -0.3245  0.0537  0.2503
 1896W        W22176   3.303  14.033  13.061  0.1111  0.1328  0.1766
 1897W        W22177   3.743   6.243   1.344  0.0129  0.1390 -0.3564
 1898W        W22178   6.618  16.838   0.131  0.2664 -0.1013 -0.2207
 1899W        W22179   4.962  15.942   5.344  0.0947  0.1399  0.0427
 1900W        W22180  15.656   5.813   0.422  0.3138 -0.2212  0.0425
 1901W        W22181  11.731   4.164  16.677 -0.0554 -0.0336  0.1716
 1902W        W22182  11.225   2.127  15.546 -0.0274  0.1246  0.2871
 1903W        W22183   1.398   0.547  12.722  0.0263 -0.1815  0.4380
 1904W        W22184  15.299  10.216  11.970  0.1366  0.4359 -0.0567
 1905W        W22185  15.411   5.603   3.816  0.0684  0.0431  0.3443
 1906W        W22186   6.001  10.419  15.140 -0.3058  0.0909  0.1357
 1907W        W22187   1.822   2.052  12.354 -0.0939  0.0790  0.1229
 1908W        W22188   9.601   3.413  12.271  0.2351 -0.0687  0.2596
 1909W        W22189   0.973  12.121  15.923  0.0107 -0.1604 -0.0411
 1910W        W22190   6.987  12.854   4.538  0.4000 -0.0321 -0.1047
 1911W        W22191   6.568  14.476  15.853  0.0424 -0.1290 -0.2505
 1912W        W22192   6.388   6.253   3.285  0.1296 -0.1016  0.1060
 1913W        W22193  10.416   3.940  12.529 -0.0071 -0.2843 -0.0640
 1914W        W22194   6.224   3.742  14.102  0.2460 -0.1088 -0.0308
 1915W        W22195   1.260   5.538   4.061 -0.3434  0.1757  0.1672
 1916W        W22196  15.517   5.290   4.508  0.1952  0.0758 -0.0033
 1917W        W22197  11.866   5.829   2.043  0.0826  0.0173  0.0292
 1918W        W22198   6.139  17.864  16.428  0.0368 -0.0096  0.0800
 1919W        W22199   2.735   8.319   2.420  0.0884  0.0612 -0.3792
 1920W        W22200   8.747   4.934   4.573 -0.0240  0.2428 -0.2342
 1921W        W22201   6.733   1.520   4.042 -0.1815  0.1371 -0.0968
 1922W        W22202   8.719   9.619   3.243  0.0434 -0.1949 -0.2656
 1923W        W22203  16.922   5.257   1.333 -0.3627 -0.0409 -0.1608
 1924W        W22204  10.107  13.438   0.120 -0.1883 -0.1711 -0.1813
 1925W        W22205  13.889  16.199  14.312  0.2313 -0.1791  0.2792
 1926W        W22206   0.647   0.964   1.526 -0.2461 -0.2211  0.1729
 1927W        W22207  13.539  15.150  15.520 -0.1638  0.3552 -0.1446
 1928W        W22208  13.860  14.723   4.491 -0.0858 -0.2537  0.4753
 1929W        W22209  15.135  13.592   0.010 -0.0461  0.1028 -0.0657
 1930W        W22210  14.476  15.983   4.940  0.4547 -0.1207  0.0099
 1931W        W22211   7.743   9.914   0.687 -0.1318  0.0018  0.1646
 1932W        W22212  14.970   7.079   3.713  0.0237  0.0050  0.0363
 1933W        W22213  13.568  13.612   1.855 -0.2411 -0.0144  0.1942
 1934W        W22214  16.052   6.086   1.270 -0.0630 -0.2361  0.0758
 1935W        W22215   9.904   3.063  12.641  0.3205  0.0126 -0.1083
 1936W        W22216  13.713   8.475   0.388  0.1188  0.0306  0.0514
 1937W        W22217  13.046   2.024  14.176  0.0466  0.2561  0.4401
 1938W        W22218  17.208   2.134   0.335  0.2196 -0.0299  0.0784
 1939W        W22219   7.628  10.741   5.651 -0.1835 -0.0269 -0.1271
 1940W        W22220  16.537  10.591  12.893  0.1036 -0.0820  0.1268
 1941W        W22221  16.318  12.964   1.272  0.2515 -0.1072 -0.1178
 1942W        W22222   7.721   2.904   3.785 -0.3896 -0.0726  0.2338
 1943W        W22223   1.449  13.484   3.100  0.1004 -0.1464  0.1253
 1944W        W22224   6.693   8.251   0.766 -0.0287 -0.2583 -0.0002
 1945W        W22225  14.043   1.099  16.171  0.1033 -0.0549 -0.0227
 1946W        W22226  12.023  16.539   0.891 -0.1715 -0.3674  0.1088
 1947W        W22227  11.179   0.764   4.444  0.1486  0.0103  0.1446
 1948W        W22228   3.644   3.260  12.973 -0.2327 -0.1518  0.1998
 1949W        W22229   4.521   1.877  13.450  0.0076 -0.0740  0.1134
 1950W        W22230   7.554  13.584  14.270 -0.0224  0.1339 -0.2717
 1951W        W22231   9.849  10.106   0.356 -0.3035 -0.2830  0.1151
 1952W        W22232  13.571   0.000  14.876  0.1143 -0.1392 -0.0249
 1953W        W22233   1.040  13.346  13.289  0.0210 -0.2060  0.1944
 1954W        W22234   4.462  12.683   3.019  0.3669 -0.3281  0.1808
 1955W        W22235   7.670   2.058   4.504  0.1186 -0.2032  0.0446
 1956W        W22236   6.045  12.865   3.138  0.0567 -0.0449  0.0964
 1957W        W22237   6.087  10.865   3.108 -0.0455 -0.2245 -0.0115
 1958W        W22238  12.445  13.360  12.559 -0.0963 -0.0052 -0.2358
 1959W        W22239   0.735   1.235  15.936 -0.2332 -0.3508  0.1618
 1960W        W22240   8.957  17.333  12.241 -0.2090  0.2304  0.0453
 1961W        W22241   8.001  15.453  14.742 -0.4422  0.2786 -0.0692
 1962W        W22242   3.293   8.334   0.196  0.1419 -0.0656  0.0605
 1963W        W22243  11.168   4.254   2.929 -0.1453 -0.3391 -0.2598
 1964W        W22244  16.809  14.054  14.616  0.0980 -0.0097  0.1013
 1965W        W22245   0.998   5.563  15.734 -0.0688  0.2210 -0.1095
 1966W        W22246   5.239   5.733  14.878 -0.0648  0.1614  0.1300
 1967W        W22247   9.507  14.758   4.729 -0.1787  0.0547  0.3569
 1968W        W22248   2.944   2.931  15.560  0.0261  0.3613  0.1362
 1969W        W22249   9.422  16.319   0.949  0.0867  0.0839  0.1202
 1970W        W22250  14.671  11.624   3.130 -0.1495 -0.0478 -0.0207
 1971W        W22251   8.652   3.276  11.458 -0.1479  0.1504 -0.0935
 1972W        W22252  13.201   7.453   3.992 -0.1066 -0.1276  0.0731
 1973W        W22253  16.478   9.950   3.341 -0.0068  0.0937  0.0944
 1974W        W22254   7.243   1.143  14.472  0.2514 -0.0085  0.0147
 1975W        W22255   0.282   8.182   4.478  0.3225 -0.0302 -0.2437
 1976W        W22256  12.229   7.317  13.543 -0.1377 -0.0662 -0.2688
 1977W        W22257  16.213  17.408  12.925  0.0993 -0.0271  0.0047
 1978W        W22258  14.402  17.113  14.401 -0.1702  0.0755 -0.1479
 1979W        W22259   0.247  15.505   3.568 -0.0084  0.1880  0.1713
 1980W        W22260   7.859   4.331   1.164 -0.2026 -0.1192  0.1604
 1981W        W22261   7.778   1.459  15.103 -0.1133  0.2486 -0.4010
 1982W        W22262   3.162   7.464   1.187 -0.3989 -0.1526  0.2346
 1983W        W22263  17.488  16.821   4.033 -0.0792  0.0880 -0.1119
 1984W        W22264   4.826  16.374   5.076  0.1599 -0.0349  0.2059
 1985W        W22265  15.262   8.945   1.803  0.2261 -0.5149  0.0156
 1986W        W22266  12.733  17.036  14.963 -0.0156  0.0212  0.2441
 1987W        W22267  11.597   8.007   4.469  0.2301 -0.0676 -0.0281
 1988W        W22268  15.924   0.418  12.409 -0.1507  0.0182 -0.1512
 1989W        W22269  10.465   7.585  13.217  0.0893  0.1214  0.0883
 1990W        W22270  13.647  12.658   1.038  0.2207  0.2617 -0.0299
 1991W        W22271   0.917  17.669   0.147  0.0733  0.3004 -0.2955
 1992W        W22272   7.667  16.037  13.592 -0.0152  0.1157 -0.2350
 1993W        W22273  13.107   1.557  13.934 -0.2161  0.2444 -0.0402
 1994W        W22274   0.907   0.607  12.592 -0.0027  0.0761 -0.0220
 1995W        W22275   7.292  14.187   4.141 -0.0095  0.2504  0.2769
 1996W        W22276  14.676   4.224  14.452  0.1254 -0.0475 -0.3060
 1997W        W22277  12.108   1.129  14.672 -0.1533 -0.0117 -0.1086
 1998W        W22278  17.011   1.444  16.300 -0.1887  0.4129 -0.0255
 1999W        W22279   7.092  12.448   2.374 -0.0885  0.2656 -0.1568
 2000W        W22280  14.319   5.433  16.095 -0.0585  0.1687 -0.1988
 2001W        W22281   4.196   2.859  16.138 -0.0747 -0.2656 -0.1270
 2002W        W22282   2.382  17.070   0.221  0.1902 -0.0965 -0.0439
 2003W        W22283   1.930   8.127  12.379  0.1692  0.0882  0.2449
 2004W        W22284  13.948  17.422  15.077  0.1505 -0.0369 -0.0612
 2005W        W22285   5.457  10.853  16.365 -0.1888  0.2594 -0.1250
 2006W        W22286   6.555   2.722  15.793 -0.0860 -0.0846 -0.1074
 2007W        W22287   9.096   3.566   2.761 -0.3414  0.3905 -0.1045
 2008W        W22288   3.101   0.972   0.736 -0.0947 -0.1826 -0.1989
 2009W        W22289   1.024   4.554   0.328  0.2082 -0.1615 -0.2811
 2010W        W22290  16.769   4.456   3.666  0.2858  0.1704  0.1966
 2011W        W22291  16.180  16.569   4.027 -0.0317  0.3305  0.2997
 2012W        W22292   7.435  11.988   0.418  0.0748 -0.2108 -0.2665
 2013W        W22293  11.518   1.871  14.951  0.0794  0.2664  0.2416
 2014W        W22294   1.611   9.793  16.531  0.0400  0.0905 -0.0626
 2015W        W22295   4.834  17.700  16.497 -0.0485  0.0604 -0.5373
 2016W        W22296   2.595  11.249   2.092  0.1439 -0.1656  0.1614
 2017W        W22297  10.552   8.854  12.559  0.1221 -0.0508 -0.0364
 2018W        W22298  12.353  15.826   1.058 -0.3444 -0.1031  0.0078
 2019W        W22299  13.495   1.686   4.424 -0.0775  0.0492  0.1804
 2020W        W22300  14.677   9.047  14.080  0.0965 -0.0629  0.1556
 2021W        W22301  12.807   2.241  14.525 -0.2829 -0.3581  0.1111
 2022W        W22302   4.401  17.976  16.484 -0.3242  0.1978  0.0148
 2023W        W22303  13.168  17.763  14.701 -0.2702  0.0464 -0.1621
 2024W        W22304  10.921   3.217  11.988  0.1063 -0.2910 -0.2505
 2025W        W22305  13.906  15.709   3.496 -0.1473  0.3212 -0.1732
 2026W        W22306  11.204   0.250  16.058  0.0017 -0.1222 -0.3130
 2027W        W22307  17.089  10.279   5.259 -0.0521  0.1097  0.1423
 2028W        W22308  11.408   5.476   3.535  0.2346 -0.0417 -0.4061
 2029W        W22309   5.896  13.674  15.325 -0.0217 -0.1309 -0.1719
 2030W        W22310   2.983  11.904  13.561 -0.1752  0.1604 -0.0248
 2031W        W22311  15.924   9.931   3.483 -0.2525 -0.0669  0.2949
 2032W        W22312   7.353   7.642  15.712 -0.1725  0.1764  0.3586
 2033W        W22313  12.316  17.020  15.644 -0.0315  0.0678  0.3320
 2034W        W22314  14.524  17.719   0.183  0.1333  0.0001  0.0342
 2035W        W22315  13.535   2.718   1.511  0.0868 -0.0569  0.1201
 2036W        W22316  10.994   6.570  14.833  0.0985 -0.2146  0.1251
 2037W        W22317   6.867  13.905   3.995 -0.2588  0.2806 -0.0651
 2038W        W22318   3.194   4.540  14.796 -0.1829  0.0991  0.1528
 2039W        W22319   0.902  11.165  13.248  0.0120 -0.1184 -0.0583
 2040W        W22320   0.684   8.809   2.511 -0.1701  0.1107  0.0403
 2041W        W22321   5.422  13.856  15.408 -0.0641 -0.1643  0.0218
 2042W        W22322  11.455   6.345  11.708  0.0942  0.3799 -0.1316
 2043W        W22323   5.882   0.587   3.545  0.1739 -0.4265  0.0445
 2044W        W22324   5.714   3.889  15.977  0.0305 -0.1034 -0.0877
 2045W        W22325   4.578   8.557  12.812 -0.1140  0.0396 -0.0614
 2046W        W22326  17.376   6.212   4.175  0.2526 -0.0922 -0.0296
 2047W        W22327   7.716   1.682   3.519 -0.4331 -0.0254  0.1745
 2048W        W22328   5.279   6.828   2.755  0.0938  0.0137 -0.0387
 2049W        W22329  10.017   7.814  13.498  0.1398 -0.1949  0.0474
 2050W        W22330   6.660   5.087  13.561  0.2830  0.1061  0.0899
 2051W        W22331   3.359  12.585  12.981  0.0078 -0.1736 -0.2603
 2052W        W22332   1.060  17.050  13.486  0.2064  0.2017  0.1896
 2053W        W22333  12.245   2.590  13.343 -0.3548 -0.2048 -0.1258
 2054W        W22334   3.403   6.691   2.225 -0.1201 -0.0052  0.0985
 2055W        W22335  15.782  14.280   1.605  0.1100 -0.1943 -0.3633
 2056W        W22336   2.774  12.656   3.646  0.2314  0.1848  0.1146
 2057W        W22337  17.754  16.584  15.869 -0.3126 -0.1411 -0.2512
 2058W        W22338  10.058   1.824   0.394  0.0420 -0.0954 -0.1961
 2059W        W22339   8.471   6.245  14.297  0.1276  0.0648  0.0381
 2060W        W22340   6.136   7.958  15.556 -0.1536  0.0964  0.1526
 2061W        W22341   2.717   9.575  15.279  0.1055 -0.2477  0.0220
 2062W        W22342  17.915  15.986  16.008 -0.0198 -0.0177  0.0400
 2063W        W22343   2.721  14.229  15.998  0.2779 -0.1825  0.1031
 2064W        W22344   1.831  17.172   1.472  0.3091 -0.0414  0.1182
 2065W        W22345   3.139   0.046  14.718  0.1565  0.1772  0.2111
 2066W        W22346  17.003   0.783  14.063  0.0971 -0.1319 -0.0459
 2067W        W22347  12.996  12.405  14.031  0.0192  0.2226  0.4857
 2068W        W22348   8.951   3.269   4.508 -0.0671 -0.1779 -0.2439
 2069W        W22349  11.391   6.733   2.230 -0.3660 -0.0741 -0.0161
 2070W        W22350   0.186  14.159  15.868 -0.2414  0.1244  0.0011
 2071W        W22351   9.662  10.204   1.573  0.0972  0.0194  0.2782
 2072W        W22352  13.578  15.340   3.217 -0.1991 -0.1222 -0.1568
 2073W        W22353   8.551  13.126   0.978 -0.1539 -0.1045 -0.1148
 2074W        W22354   0.453   2.595   0.679  0.2248  0.1285 -0.2789
 2075W        W22355   0.957   9.979   2.538  0.2251  0.0680 -0.4117
 2076W        W22356  15.723  14.226   2.536  0.0888  0.4269  0.0076
 2077W        W22357   4.110  16.329   0.689 -0.0284 -0.0843 -0.0442
 2078W        W22358   6.268  11.691   0.025  0.1943 -0.0088  0.0388
 2079W        W22359   9.203   1.364  14.247 -0.2915 -0.1893  0.0140
 2080W        W22360  10.431   4.024   2.330 -0.1274 -0.4718 -0.0861
 2081W        W22361   8.895  13.002   5.201  0.1914 -0.0333  0.1920
 2082W        W22362  16.811   1.104   2.805 -0.0358 -0.1521  0.4474
 2083W        W22363  15.889  12.175  13.718  0.2357 -0.0575 -0.1169
 2084W        W22364  15.004   5.806  15.002 -0.2056  0.1327  0.0860
 2085W        W22365   9.749   5.832  14.274  0.0022 -0.1574  0.0051
 2086W        W22366   6.917   5.519  15.396  0.0561 -0.2066 -0.2149
 2087W        W22367   0.776   2.021  13.435 -0.0647  0.0579  0.2299
 2088W        W22368   9.471   9.635   3.621 -0.2361  0.3324 -0.0388
 2089W        W22369   4.534  13.153  14.134 -0.0059  0.1948 -0.2442
 2090W        W22370  10.809  17.493  16.198 -0.2225  0.1722  0.1769
 2091W        W22371   6.536   0.451   1.552  0.3725  0.0737  0.0713
 2092W        W22372   8.619   0.848   3.335 -0.1671  0.0583  0.0149
 2093W        W22373  12.405   9.739   0.637 -0.0518  0.0414  0.1645
 2094W        W22374   4.358   4.104  11.284 -0.2139  0.1051  0.1344
 2095W        W22375   7.606   0.236  16.272 -0.1960  0.1976  0.0501
 2096W        W22376  12.452  17.947  13.385 -0.0492  0.0779  0.1800
 2097W        W22377   9.482  17.683  15.578  0.0698  0.1309 -0.0014
 2098W        W22378   2.219  15.173   0.517  0.0762 -0.2993 -0.2541
 2099W        W22379   0.734  13.808   4.179 -0.1991 -0.1327  0.1427
 2100W        W22380   5.452   0.145  11.766 -0.0526 -0.1155  0.1977
 2101W        W22381   4.642  13.333   4.685  0.1819  0.3772 -0.0134
 2102W        W22382  10.574   2.284  14.225  0.0416  0.0604  0.0552
 2103W        W22383  12.780  10.619   1.423 -0.0841  0.3060 -0.0955
 2104W        W22384  14.176   8.694  14.015 -0.1019 -0.2055 -0.2121
 2105W        W22385   1.959   0.536  15.830 -0.0697 -0.0376 -0.1797
 2106W        W22386  15.455   3.070  16.375 -0.1766  0.1525 -0.0745
 2107W        W22387   9.358   1.527  11.965 -0.1442  0.1185  0.2951
 2108W        W22388   4.409   6.309  13.286 -0.1466  0.0529  0.2093
 2109W        W22389  11.833  13.939   0.674 -0.1029 -0.1846 -0.3292
 2110W        W22390  12.208   6.920  14.347 -0.0159  0.1629  0.2356
 2111W        W22391   6.378  14.317  12.587 -0.0618 -0.1077 -0.1784
 2112W        W22392  10.642  10.539   4.171 -0.2795 -0.0770  0.1033
 2113W        W22393  14.536   3.099   3.927  0.1326  0.1797  0.2724
 2114W        W22394  13.784   2.359   1.825  0.3674 -0.1772 -0.0971
 2115W        W22395   6.216   4.362  15.768 -0.0342  0.0607 -0.1646
 2116W        W22396   6.248   1.316  12.843  0.0877  0.1277  0.1997
 2117W        W22397   6.553   4.438   1.018 -0.0430 -0.2360 -0.0735
 2118W        W22398  15.180  15.702   3.410  0.0469  0.1216  0.0003
 2119W        W22399  14.263   4.997  14.056  0.1326  0.2567 -0.1579
 2120W        W22400   6.843   6.885   1.372 -0.0638  0.0087  0.1102
 2121W        W22401   0.454  13.995  13.141 -0.2489  0.0376  0.3566
 2122W        W22402   8.266   6.822   2.977  0.0432 -0.0733  0.1001
 2123W        W22403   3.993   8.095   3.991 -0.0066 -0.0211  0.1356
 2124W        W22404   0.804   7.143  16.169  0.2115  0.1737 -0.0301
 2125W        W22405  13.999  10.148  14.101  0.0640  0.0782 -0.2130
 2126W        W22406  17.692   5.738  15.315 -0.0717 -0.2557  0.0440
 2127W        W22407  10.945  17.506   4.810  0.0060 -0.0692  0.0736
 2128W        W22408  17.654   7.505   2.172  0.1500 -0.1739 -0.2728
 2129W        W22409  12.225  15.066   2.015 -0.1911  0.0244  0.0820
 2130W        W22410   0.595   0.020  16.473  0.0764 -0.0474  0.1635
 2131W        W22411  16.479  14.028   2.045  0.4171  0.2784 -0.0764
 2132W        W22412  14.822  16.117   3.922  0.1004  0.1184 -0.0666
 2133W        W22413   6.331   5.685   0.462  0.1475 -0.0239  0.2361
 2134W        W22414  13.999  15.988   4.054  0.0682 -0.0447  0.3221
 2135W        W22415   3.137   0.565  16.522 -0.2726 -0.0301 -0.0794
 2136W        W22416   2.919  15.036  14.787  0.1538  0.1423  0.2608
 2137W        W22417  13.960   5.106   2.329 -0.2242 -0.2599 -0.2345
 2138W        W22418   8.114   0.397  13.133  0.0438  0.1770 -0.1463
 2139W        W22419   1.895   2.825  15.362 -0.2328  0.0501 -0.1755
 2140W        W22420   8.824   0.846   1.629  0.0188 -0.0192 -0.3295
 2141W        W22421  14.433  13.218  16.254 -0.3404  0.2548  0.0108
 2142W        W22422  11.801   0.247  13.023 -0.2342  0.0724 -0.0066
 2143W        W22423   9.620   0.895  16.157  0.2009 -0.0783 -0.1657
 2144W        W22424   8.843  11.947  12.325  0.1632 -0.2867 -0.0731
 2145W        W22425   0.932  15.136   2.155  0.3844  0.1779  0.5151
 2146W        W22426   6.516   0.051  14.288 -0.0439 -0.0229 -0.0673
 2147W        W22427   6.136   5.882  13.924 -0.1750 -0.0608  0.1037
 2148W        W22428  17.031  16.033  14.772 -0.2185  0.3026  0.0913
 2149W        W22429   0.730   0.337  12.998  0.0906  0.3024 -0.1966
 2150W        W22430  13.589  12.610   4.697  0.1817  0.1407  0.1813
 2151W        W22431  13.569   2.286  12.853  0.0983 -0.2634  0.2142
 2152W        W22432  15.665  16.905  12.789 -0.2113  0.0643 -0.0802
 2153W        W22433   9.498   6.884   0.878 -0.2355  0.1809  0.3714
 2154W        W22434   9.078   5.793   1.699  0.1306  0.1735  0.0838
 2155W        W22435   0.856  13.893  16.687  0.0133  0.1547  0.0221
 2156W        W22436   0.334   7.516  11.942  0.4785  0.0441 -0.1499
 2157W        W22437   5.475   1.480  15.375 -0.2781  0.0673  0.1188
 2158W        W22438   7.039   3.431   0.563  0.0380  0.0703  0.1312
 2159W        W22439  15.270   0.484   1.770  0.0030  0.2780  0.0124
 2160W        W22440  11.238   3.308   4.920  0.2047  0.1855  0.0276
 2161W        W22441  15.915  14.058   1.059  0.3640  0.1449 -0.0806
 2162W        W22442   5.026   7.386   3.351 -0.2554  0.0230 -0.0576
 2163W        W22443   5.337   5.365  13.982  0.0237 -0.1965  0.0756
 2164W        W22444  10.691   2.716   3.621 -0.1453  0.2981 -0.2910
 2165W        W22445   5.187  13.202  16.559  0.2658 -0.3150  0.2327
 2166W        W22446   0.438  17.369  15.845  0.1683  0.5985 -0.0316
 2167W        W22447  14.597   2.788  11.981  0.1736 -0.4552 -0.2185
 2168W        W22448  13.451  17.338  12.371 -0.1938 -0.1452  0.1046
 2169W        W22449   5.888  10.144  12.855  0.1101  0.0800 -0.2657
 2170W        W22450  15.685   2.523   0.869 -0.0781  0.0348 -0.0916
 2171W        W22451   1.712  10.937   1.946  0.0053 -0.0439  0.1476
 2172W        W22452   2.040  12.411   4.113 -0.0296 -0.3156  0.0415
 2173W        W22453   2.742  16.548   1.115  0.0699  0.2115 -0.1745
 2174W        W22454  15.890  11.920   2.254 -0.1321 -0.0757  0.2927
 2175W        W22455   2.634   0.336  12.985  0.0461  0.1302  0.1048
 2176W        W22456   2.615   1.215  16.503 -0.1588 -0.1130 -0.0490
 2177W        W22457  12.276  11.443   0.551  0.1805  0.0382  0.2682
 2178W        W22458   0.027  11.452  14.289  0.0163  0.0943  0.0040
 2179W        W22459  11.974   8.398   2.257  0.0381 -0.0992 -0.0875
 2180W        W22460   5.636   4.116   2.004 -0.2040 -0.0215  0.0687
 2181W        W22461  16.513   8.688  12.566  0.0729 -0.2532 -0.1787
 2182W        W22462   0.215  10.573  13.317  0.1539  0.4991 -0.3837
 2183W        W22463   2.961   3.903  12.860 -0.1066  0.1809  0.3050
 2184W        W22464   8.124  11.565  16.406 -0.3437  0.1754  0.2331
 2185W        W22465   2.084  10.822  13.840  0.1571 -0.0271 -0.0925
 2186W        W22466  10.337  10.451   3.264  0.2619  0.2166  0.2382
 2187W        W22467  17.140  17.225   1.214  0.1112  0.1395  0.0160
 2188W        W22468  16.475   9.336  15.443 -0.1988  0.2334  0.1715
 2189W        W22469   5.165  11.303   0.827 -0.1342 -0.4487 -0.0010
 2190W        W22470   9.702  15.955  14.105 -0.1162 -0.0015 -0.1446
 2191W        W22471   8.311   6.428  12.363  0.1671 -0.0965  0.2195
 2192W        W22472  10.350  15.554  16.617 -0.0149  0.1642  0.0291
 2193W        W22473   3.164   8.944   0.216 -0.1678  0.0623 -0.4172
 2194W        W22474   5.362  15.722  12.914  0.0291  0.2652 -0.0248
 2195W        W22475   0.544  11.887   1.395  0.2349 -0.3030 -0.0000
 2196W        W22476   8.417  15.004   2.959 -0.3056  0.0592  0.4584
 2197W        W22477   9.804  13.344   3.115  0.0828  0.0638 -0.0879
 2198W        W22478   6.660   5.868   0.877  0.1594 -0.2633  0.1814
 2199W        W22479  14.732  13.380  13.287 -0.0750 -0.0512  0.0687
 2200W        W22480  15.160  13.775  13.088  0.2048 -0.1159  0.0673
 2201W        W22481  16.289  12.872   3.581 -0.2708  0.0131  0.1449
 2202W        W22482   8.852  10.095  14.108  0.0769  0.1291 -0.2621
 2203W        W22483   6.995   5.819  13.032  0.0853 -0.0545  0.0154
 2204W        W22484   0.664  17.848   3.731 -0.1327 -0.1570  0.0601
 2205W        W22485  15.221   0.295  11.938  0.0092 -0.1321  0.1707
 2206W        W22486   0.529   4.669   1.818 -0.0905 -0.0457 -0.2938
 2207W        W22487  11.919   0.263   2.559  0.1254  0.0149  0.1413
 2208W        W22488   6.649   9.062  14.750  0.0713  0.0589 -0.2162
 2209W        W22489  16.176   7.024  12.098 -0.0824  0.0712  0.1777
 2210W        W22490  13.922  15.289  12.179  0.2382 -0.1573 -0.0556
 2211W        W22491   2.374  14.005   1.197  0.3227  0.0120 -0.4556
 2212W        W22492   3.836   2.524   0.833 -0.2711 -0.0527  0.0238
 2213W        W22493  10.079   5.781  12.707  0.0665  0.0435  0.0109
 2214W        W22494   1.324   7.747  15.498 -0.0511 -0.0229 -0.1908
 2215W        W22495   4.468   4.979   2.096  0.0534 -0.0412 -0.0763
 2216W        W22496  11.765  15.881  16.500 -0.1950  0.0541  0.2016
 2217W        W22497  11.156  14.818   1.840  0.0125  0.1221 -0.0819
 2218W        W22498   1.816   3.305   4.360  0.0207  0.4324 -0.0052
 2219W        W22499  10.544   6.340  14.916  0.0826  0.0495 -0.3373
 2220W        W22500   1.169  13.994   2.325  0.1775 -0.2310 -0.2496
 2221W        W22501  14.709   2.715  13.009 -0.4317  0.1329  0.1047
 2222W        W22502   2.527   4.053  13.759  0.0264 -0.2588 -0.0546
 2223W        W22503   1.218   4.502   0.793  0.1515  0.1518  0.2077
 2224W        W22504   7.512  12.270   2.197  0.0836  0.2569  0.1756
 2225W        W22505   5.265   2.407  14.525 -0.2868  0.0073  0.0819
 2226W        W22506   9.657  15.651  13.121 -0.0729  0.0060  0.2474
 2227W        W22507   1.256  12.923  16.422  0.0914  0.0035  0.0792
 2228W        W22508   9.313   6.592  13.534  0.2542  0.0814 -0.2836
 2229W        W22509   0.320  15.102   3.293 -0.1388  0.0924  0.0465
 2230W        W22510   9.145   7.745  12.168 -0.0146 -0.0277  0.0183
 2231W        W22511  13.320   0.742   4.478  0.1472 -0.1316 -0.2652
 2232W        W22512   7.094   1.492   0.988  0.0029 -0.1103 -0.3903
 2233W        W22513  14.811  10.152   1.314  0.0546  0.1809  0.3153
 2234W        W22514  13.574   9.175  13.461  0.1007 -0.0757  0.1361
 2235W        W22515   5.884   1.065  16.578 -0.1222  0.0745 -0.1872
 2236W        W22516   1.791   2.352  13.347 -0.1394 -0.2178 -0.3225
 2237W        W22517   9.154   8.080  13.812 -0.0004  0.2245 -0.0142
 2238W        W22518  13.085   3.426  12.500 -0.2483  0.0504 -0.0001
 2239W        W22519  12.328   0.120   2.000  0.2447 -0.2467  0.0267
 2240W        W22520   8.003  11.220   3.422 -0.0106 -0.0223 -0.3346
 2241W        W22521   8.438   9.740   2.180  0.2338  0.0637 -0.3015
 2242W        W22522   3.723  11.078  15.856 -0.2100 -0.1165  0.2228
 2243W        W22523   9.932  10.854   4.712 -0.4372  0.3092  0.0108
 2244W        W22524   7.034  16.926  15.205 -0.0623  0.1522 -0.0668
 2245W        W22525   6.625   2.001   4.301 -0.1396  0.2297 -0.1132
 2246W        W22526   4.129   4.045  15.057  0.0655  0.2748  0.1238
 2247W        W22527   4.552  13.554  16.175  0.2649 -0.1415  0.2447
 2248W        W22528   4.130   1.736  13.908 -0.1640  0.0539 -0.0530
 2249W        W22529   0.904  10.810   2.672 -0.1453  0.2541  0.0780
 2250W        W22530  13.028   3.229   2.074 -0.1337  0.0933 -0.1784
 2251W        W22531  11.709   4.352   3.737 -0.1124 -0.1846  0.2101
 2252W        W22532  15.322  13.302  15.164 -0.3699  0.2473 -0.1647
 2253W        W22533   2.504  11.184   3.039 -0.0949 -0.0764  0.0652
 2254W        W22534   4.135   0.328   3.294  0.0004  0.0327  0.0993
 2255W        W22535  11.631  14.740   2.093 -0.0305  0.3146  0.1691
 2256W        W22536   7.266   0.404  14.981 -0.0561  0.3073  0.2667
 2257W        W22537   4.395  11.233  15.625  0.0280 -0.0370  0.0387
 2258W        W22538   7.086   9.838  15.423  0.2227  0.1276  0.2355
 2259W        W22539  15.485   9.954  13.095  0.0123  0.0860 -0.0662
 2260W        W22540  13.217  16.364  11.605  0.2498 -0.2067  0.0835
 2261W        W22541   6.300   3.798   3.978  0.0501  0.0367  0.1283
 2262W        W22542   6.374   5.252   4.104  0.0707  0.2238 -0.0196
 2263W        W22543   7.580   0.575  13.836  0.0247  0.1182 -0.1733
 2264W        W22544  12.967  16.367  16.564 -0.0731 -0.2991 -0.0079
 2265W        W22545   9.998   9.211  14.501  0.2329 -0.2291 -0.1724
 2266W        W22546  16.695   0.062  15.540 -0.0114  0.0413  0.0176
 2267W        W22547  15.825  14.568  15.352 -0.0168  0.3202 -0.1314
 2268W        W22548   1.916   5.316  15.489 -0.3255 -0.0504 -0.0579
 2269W        W22549  10.470  13.887  12.561  0.0312 -0.0034 -0.1346
 2270W        W22550  15.596   9.053   1.444  0.0370 -0.0706 -0.0760
 2271W        W22551   8.583  17.248  15.451 -0.1278 -0.2113  0.3087
 2272W        W22552   8.809  16.744   1.395 -0.2046  0.0777 -0.1973
 2273W        W22553   5.963   6.943   4.028  0.0463  0.1267  0.0736
 2274W        W22554  11.713  13.182   0.208  0.0479  0.1412  0.0179
 2275W        W22555  11.190   6.732   0.236  0.0939  0.2613 -0.0348
 2276W        W22556   5.069   6.039  16.184  0.1070 -0.0999 -0.2642
 2277W        W22557  16.069   9.450   4.062 -0.0192 -0.2194 -0.2015
 2278W        W22558   5.196   6.605  16.119  0.1369  0.0382  0.2269
 2279W        W22559  14.327  17.936   1.790  0.0716  0.2361 -0.0341
 2280W        W22560  15.637  16.338   3.072 -0.3203 -0.1669 -0.0431
 2281W        W22561  13.517  11.131   2.432 -0.1513 -0.3228 -0.2252
 2282W        W22562  14.853  17.982  12.980 -0.1873 -0.3394  0.0858
 2283W        W22563   0.241   5.868   3.325  0.5089 -0.1198  0.1222
 2284W        W22564   0.178  16.517  14.474 -0.0611 -0.1800 -0.1821
 2285W        W22565  11.390  17.132  13.469  0.1119  0.2383 -0.2440
 2286W        W22566   4.862   1.444   3.667 -0.0010 -0.2059  0.0341
 2287W        W22567   3.343  11.458  14.329  0.0974 -0.1162  0.1281
 2288W        W22568   7.860   2.148   3.263  0.1006  0.0929  0.1361
 2289W        W22569   6.697  16.510   4.851 -0.1829 -0.0055 -0.0911
 2290W        W22570  10.608   3.014   1.648  0.0405  0.1115  0.2705
 2291W        W22571  11.917  16.326  12.506 -0.2478  0.2164 -0.0784
 2292W        W22572  15.480   9.975  14.664  0.0646 -0.1261  0.0434
 2293W        W22573   3.965   2.567   4.401 -0.0418  0.1543  0.0497
 2294W        W22574   6.863   4.953   0.541 -0.1109 -0.0520 -0.0513
 2295W        W22575  13.864   2.914  15.888 -0.0154  0.1472  0.0703
 2296W        W22576   8.298   5.305  11.354  0.1462  0.1461 -0.2095
 2297W        W22577  16.254  16.952  14.996 -0.0617  0.0844 -0.2783
 2298W        W22578  12.914   0.274   5.009 -0.1365  0.2573  0.2961
 2299W        W22579   5.163  16.127  15.174 -0.1551  0.0738 -0.1699
 2300W        W22580   0.787   3.945   4.276  0.2485 -0.0733 -0.1926
 2301W        W22581  16.227  15.205  13.168 -0.1875 -0.0643 -0.1532
 2302W        W22582  16.909   8.999  12.683  0.1298 -0.0628  0.0463
 2303W        W22583   1.451  10.090   2.801 -0.0161  0.2306 -0.4965
 2304W        W22584   1.001  10.178  12.911  0.0610  0.2248 -0.2041
 2305W        W22585   9.707   5.007  15.833 -0.0054 -0.1492 -0.2943
 2306W        W22586   5.262   6.878   0.742 -0.1167  0.0647  0.1014
 2307W        W22587   5.404  14.123  12.601  0.0928 -0.2044  0.1578
 2308W        W22588   5.899   5.206   3.875  0.0899 -0.1542  0.1374
 2309W        W22589  13.194  12.941  13.068 -0.1409  0.1189 -0.0438
 2310W        W22590   0.387  17.963  14.735 -0.0760 -0.0993  0.1015
 2311W        W22591  11.601   8.370   1.447 -0.2587  0.1486  0.2690
 2312W        W22592  15.591   8.960   3.174 -0.4840 -0.1438 -0.0672
 2313W        W22593   4.484  17.428  16.083 -0.1505  0.3658 -0.1085
 2314W        W22594   9.514   8.406  12.417  0.2536  0.1249 -0.1332
 2315W        W22595  16.373   6.968   1.873 -0.3083 -0.1882  0.0965
 2316W        W22596   9.415   8.708   0.427  0.2750 -0.0027  0.0192
 2317W        W22597  12.850  17.527  16.516 -0.1855 -0.0131  0.3125
 2318W        W22598  15.640  15.668   2.714  0.1388  0.1508 -0.0097
 2319W        W22599  16.543  14.525   0.375 -0.1797 -0.4189 -0.1581
 2320W        W22600  10.137   0.946  14.354  0.0859  0.1148 -0.0202
 2321W        W22601  14.246   8.157  14.083 -0.1316  0.3209  0.1689
 2322W        W22602   1.836  10.956  13.140  0.0253 -0.1195  0.0761
 2323W        W22603   3.190   7.280   2.095 -0.2879 -0.2663  0.1095
 2324W        W22604   8.270  12.078   4.321  0.2311 -0.0343  0.0354
 2325W        W22605   0.015   3.171  16.480  0.1203  0.2792 -0.1654
 2326W        W22606  14.200  10.942   3.189 -0.2814 -0.1463 -0.0392
 2327W        W22607   1.210  14.533  15.823  0.1388 -0.3573  0.0505
 2328W        W22608   9.452   8.923  12.740 -0.0567 -0.1332 -0.1061
 2329W        W22609  14.054  14.464   3.158 -0.0608 -0.1741  0.2396
 2330W        W22610   6.226  15.054  15.159  0.1603 -0.1586  0.0167
 2331W        W22611   2.631   5.577  13.184 -0.2217 -0.3440 -0.0453
 2332W        W22612   7.234   1.219   2.367 -0.3672 -0.1621  0.0775
 2333W        W22613   7.623   4.945  12.710 -0.0585  0.2722  0.0533
 2334W        W22614   6.196   2.808  13.212  0.1050 -0.0559 -0.0236
 2335W        W22615   5.597   0.633  16.602  0.3686 -0.1169 -0.1651
 2336W        W22616   5.937   1.706  16.567  0.2486 -0.0885  0.1878
 2337W        W22617   2.272   9.812   3.844  0.0986  0.0015  0.3077
 2338W        W22618   5.332  10.082  13.764  0.1068 -0.1322 -0.0983
 2339W        W22619  12.154   7.643   1.684  0.2571  0.0209 -0.1237
 2340W        W22620   1.555  16.336  16.337 -0.0936  0.0601 -0.2728
 2341W        W22621  14.789  17.440  13.521  0.1178 -0.1370 -0.0979
 2342W        W22622   0.720   4.459   4.893  0.2539  0.2680 -0.1492
 2343W        W22623  16.705   7.929   0.945  0.0566 -0.2539 -0.4107
 2344W        W22624   0.191  14.822  15.053  0.0681  0.0542 -0.0041
 2345W        W22625   8.077  12.453   3.999 -0.3487 -0.0468  0.0456
 2346W        W22626  17.050   3.773   2.054 -0.2355 -0.1805 -0.3281
 2347W        W22627   7.551   0.188   2.966 -0.0000  0.3529  0.1102
 2348W        W22628   8.253   8.543  12.819 -0.1532 -0.1960  0.2599
 2349W        W22629   9.388   6.646   3.144 -0.2939  0.0539 -0.2665
 2350W        W22630   2.717  11.860   1.978  0.1578  0.0500  0.3110
 2351W        W22631   8.330   6.395   3.695  0.0907 -0.0424 -0.0089
 2352W        W22632   7.375  14.313  16.360 -0.1886  0.3758 -0.4492
 2353W        W22633   4.669   7.144   4.599 -0.2005  0.1571  0.1049
 2354W        W22634   1.542  12.235  14.631  0.1358  0.1832  0.0887
 2355W        W22635   3.960   3.459   2.966 -0.0685 -0.1137 -0.1866
 2356W        W22636   7.354   9.299   0.233  0.0643  0.0145  0.1561
 2357W        W22637   8.363   0.634  15.100  0.0596  0.0638 -0.2775
 2358W        W22638  17.947   7.870   0.384  0.0901  0.2344 -0.0489
 2359W        W22639   9.903  11.679  13.386 -0.0453 -0.5308  0.0442
 2360W        W22640   0.305  11.961   2.054  0.0363  0.2188  0.0892
 2361W        W22641  17.306  14.683  16.404  0.4147  0.0065 -0.2313
 2362W        W22642  13.214  12.255  15.898 -0.1110 -0.1049 -0.0302
 2363W        W22643   9.694   0.246  13.887 -0.1091  0.2286 -0.0747
 2364W        W22644   7.661   5.731  13.649  0.0377 -0.0520 -0.0227
 2365W        W22645   5.338  12.767  14.729 -0.1255  0.1907  0.1722
 2366W        W22646  14.117  13.624   1.797  0.2399 -0.0763 -0.1411
 2367W        W22647  17.757   3.573  13.005  0.1036  0.3275  0.0035
 2368W        W22648   2.900  16.072   1.039 -0.2012  0.0364 -0.1895
 2369W        W22649  13.227   5.628  14.638 -0.0697  0.1266  0.0161
 2370W        W22650  10.131   7.756   4.232 -0.1547 -0.3491 -0.1759
 2371W        W22651  12.872  12.117  15.360  0.2993 -0.0798  0.2518
 2372W        W22652   1.198   9.664   3.559 -0.3283 -0.1621  0.3312
 2373W        W22653  15.376   8.514   3.437 -0.0593  0.0417 -0.0369
 2374W        W22654   9.975  14.483   4.507 -0.1171  0.1331  0.0761
 2375W        W22655  13.512   7.466   4.374 -0.1127  0.1117  0.3765
 2376W        W22656  10.794   7.178  13.612  0.2898 -0.0318 -0.0371
 2377W        W22657   2.649   3.327  15.476 -0.0367  0.1216  0.1543
 2378W        W22658   6.762  10.008  16.612  0.0594 -0.0152 -0.1091
 2379W        W22659   7.747   3.176   4.704 -0.2161  0.1084  0.0637
 2380W        W22660   0.421  12.763   3.617 -0.0863 -0.1685  0.1395
 2381W        W22661  13.513  15.615  16.406 -0.0971 -0.2183 -0.0346
 2382W        W22662  12.115  11.622  13.233 -0.2281  0.3535  0.3776
 2383W        W22663  11.048  13.309   2.700  0.0478  0.2330  0.3529
 2384W        W22664   2.850  10.166  13.744 -0.2321  0.1043 -0.1145
 2385W        W22665  12.822   2.499  15.009  0.0572 -0.0773  0.1214
 2386W        W22666   6.214   3.919  11.945 -0.3700  0.2868  0.1100
 2387W        W22667   6.244   3.483   4.372  0.2014  0.0144  0.0600
 2388W        W22668   6.363   5.358   1.291  0.0985  0.1382  0.1392
 2389W        W22669  11.196   2.662  16.224 -0.1532  0.2473  0.2922
 2390W        W22670   3.460   3.054   3.844 -0.1600  0.1636  0.0115
 2391W        W22671  11.891   6.463  12.003  0.0935 -0.0359  0.1588
 2392W        W22672   8.498  13.779  14.755 -0.1841  0.1382 -0.0716
 2393W        W22673   2.929  17.789   2.437 -0.1463  0.0207 -0.1231
 2394W        W22674  13.781   1.517   0.262  0.2841  0.1854 -0.2864
 2395W        W22675   5.902  10.815   4.597  0.1428  0.0324 -0.0247
 2396W        W22676  13.164   3.649   0.649 -0.1248  0.0003 -0.0380
 2397W        W22677  17.370  15.127  16.624 -0.2932  0.0740 -0.1420
 2398W        W22678  16.951   5.099  14.438  0.1009 -0.0127 -0.1200
 2399W        W22679   2.959  12.996   0.499 -0.2374 -0.0169 -0.0949
 2400W        W22680   4.970  15.692  15.457  0.0008 -0.0422  0.1240
 2401W        W22681  11.031  16.351  16.513  0.2938  0.1035 -0.1046
 2402W        W22682   6.612  11.482   1.609  0.0484  0.0306  0.0096
 2403W        W22683   6.579  14.031  12.207  0.1220  0.0501  0.2082
 2404W        W22684   4.489   2.022  14.389  0.0825  0.1683  0.1963
 2405W        W22685  14.442  13.819   2.705 -0.1682  0.1434  0.1147
 2406W        W22686  12.621  10.498   0.521 -0.1422 -0.1731  0.0310
 2407W        W22687  14.021  10.410  16.653 -0.0764  0.1115  0.2101
 2408W        W22688   1.383  17.939   1.901 -0.0342 -0.1666 -0.0891
 2409W        W22689   0.380  15.162   4.241  0.0590 -0.3200 -0.2530
 2410W        W22690   6.473   5.611   4.614 -0.1301 -0.0035 -0.2718
 2411W        W22691   8.844   8.808   2.730 -0.1034  0.0160  0.1249
 2412W        W22692  11.477  10.396   3.488  0.2055 -0.2531 -0.0024
 2413W        W22693  12.786  10.188  13.866 -0.1223 -0.0799  0.3826
 2414W        W22694   3.719   1.862  12.554 -0.1973 -0.2173  0.2416
 2415W        W22695   8.510   2.225  10.594 -0.2406  0.2483 -0.1214
 2416W        W22696   1.212  15.940  12.495 -0.0482 -0.4455  0.0874
 2417W        W22697   1.065  13.563   4.479 -0.0076 -0.1498 -0.0311
 2418W        W22698   0.207  13.257  13.723  0.2473  0.0920 -0.0848
 2419W        W22699   6.074  16.835   2.089 -0.1619  0.3144  0.2081
 2420W        W22700   5.881   3.900   1.624  0.0111  0.0782  0.2092
 2421W        W22701  15.508   1.098   0.004 -0.1570  0.2789  0.1606
 2422W        W22702  14.699  15.479   4.694  0.2670  0.0745 -0.3008
 2423W        W22703  16.438  14.684  16.602 -0.1572  0.0021 -0.0066
 2424W        W22704   8.856  14.838  14.391 -0.3516  0.0884 -0.2496
 2425W        W22705   0.882   6.321   4.688 -0.1906  0.2011  0.1146
 2426W        W22706  11.292   9.933   3.860 -0.1276  0.0112  0.0162
 2427W        W22707   5.098  13.576   3.382 -0.2244  0.0442  0.0596
 2428W        W22708   6.421  17.332   4.243 -0.5384 -0.1611  0.1110
 2429W        W22709  16.641  15.279  15.327 -0.5040  0.1826  0.0094
 2430W        W22710   2.522   4.060   4.575 -0.1100 -0.4510  0.1057
 2431W        W22711   2.831   0.254  16.114  0.0462 -0.0625  0.3517
 2432W        W22712  11.754  15.102  15.981 -0.3018 -0.0624  0.1313
 2433W        W22713   9.516  14.146   3.408  0.1940 -0.0294  0.1433
 2434W        W22714  12.766   0.475  14.234 -0.1358 -0.0666 -0.0954
 2435W        W22715  13.662   2.534   4.643  0.3100 -0.1337 -0.0331
 2436W        W22716   5.312   8.333  16.640  0.1013 -0.0834  0.2474
 2437W        W22717  11.420  16.653   1.970  0.0433  0.0715  0.0667
 2438W        W22718   5.428   3.750  16.580  0.2878  0.0458  0.4084
 2439W        W22719  16.737  10.454  12.258 -0.1699  0.1230  0.0027
 2440W        W22720   5.175   4.764   1.520 -0.1799  0.2144  0.2029
 2441W        W22721  15.652  13.821   4.675  0.2356  0.2588  0.0922
 2442W        W22722   9.095   8.830  13.183 -0.1068 -0.1634  0.2298
 2443W        W22723   1.791   8.996  12.954 -0.1531 -0.0139 -0.0396
 2444W        W22724  17.002  11.679   0.356  0.2217 -0.2377  0.1727
 2445W        W22725  15.409   4.746  15.648 -0.1200 -0.0308 -0.1865
 2446W        W22726  15.094   5.562  13.392  0.0470  0.0731 -0.0740
 2447W        W22727   3.292   5.757   4.138 -0.4428  0.1603  0.2975
 2448W        W22728  11.595  15.783  14.015  0.1069  0.1723  0.0982
 2449W        W22729   4.068   4.869   2.814  0.1253 -0.0329 -0.0427
 2450W        W22730  13.773   7.106  13.538  0.0227  0.2100  0.3206
 2451W        W22731  12.947  10.463  13.353  0.0636  0.1057 -0.1541
 2452W        W22732   7.729   1.173  16.255 -0.1543 -0.2742  0.0488
 2453W        W22733   1.271   3.905  14.239  0.1548  0.1157 -0.1115
 2454W        W22734  11.073   3.493   2.179 -0.1222 -0.0565  0.3033
 2455W        W22735  17.312   6.669   4.316  0.1501  0.3220  0.0235
 2456W        W22736   8.929   4.676  11.571 -0.1171  0.0042  0.2853
 2457W        W22737  12.129   6.729   2.553  0.1308 -0.1831  0.1536
 2458W        W22738   4.811  12.329   1.761  0.4117 -0.0228 -0.0331
 2459W        W22739   6.083  15.783   1.177 -0.4480 -0.4202 -0.2956
 2460W        W22740   9.000  10.747   3.892 -0.0290  0.2800  0.1053
 2461W        W22741   8.310   0.488   3.366 -0.1548  0.0835 -0.0258
 2462W        W22742  11.651   8.178   0.643  0.1657  0.0961  0.1600
 2463W        W22743   6.699  10.740   3.047 -0.2172  0.1556  0.1030
 2464W        W22744  11.929   7.228  13.126  0.1644  0.0659 -0.0905
 2465W        W22745   1.940   3.429   4.866  0.0516 -0.3735 -0.1401
 2466W        W22746  12.214   1.567  15.602  0.1500 -0.0706 -0.0885
 2467W        W22747  12.546   8.249   4.784  0.1233 -0.0764  0.1356
 2468W        W22748   8.162  16.500   2.486  0.0460 -0.3244  0.0974
 2469W        W22749  16.101   9.851   4.673  0.3039  0.2063 -0.1529
 2470W        W22750  11.421  15.540  15.729 -0.1874 -0.2353 -0.2318
 2471W        W22751   5.628   9.113   3.440  0.0421 -0.2730 -0.1046
 2472W        W22752   2.375   7.785   1.359  0.1660  0.0084 -0.0665
 2473W        W22753   1.941   5.775   0.075 -0.0068  0.1968 -0.2261
 2474W        W22754   5.400  12.136   3.350  0.0284 -0.1352 -0.2300
 2475W        W22755  16.149  17.911   5.030 -0.0428  0.0317 -0.1831
 2476W        W22756   4.947  15.483   5.105  0.2718 -0.1509 -0.0463
 2477W        W22757   5.999   2.599  12.307  0.2132  0.0219  0.0470
 2478W        W22758  10.099   5.231  13.739 -0.0756 -0.1383  0.0695
 2479W        W22759  15.517   3.959   4.290  0.1530  0.1445  0.0853
 2480W        W22760   9.088  14.908   4.911  0.0418  0.0960  0.0460
 2481W        W22761  12.070   5.933  16.048  0.0821 -0.3060  0.2074
 2482W        W22762  10.767   7.139  13.035 -0.3168  0.1574  0.0031
 2483W        W22763   7.913  15.624   4.071 -0.2984 -0.2144  0.0121
 2484W        W22764  12.737  13.542  14.163 -0.1780  0.0670  0.2770
 2485W        W22765   6.942  16.376  13.863  0.0249 -0.0511 -0.2056
 2486W        W22766   7.334   4.949  14.275  0.1398  0.1734 -0.1878
 2487W        W22767  13.046   4.522   2.164 -0.0280 -0.1866  0.0605
 2488W        W22768   9.495  12.519  14.480  0.0406  0.0325 -0.0072
 2489W        W22769  15.742  11.151   0.503 -0.1759  0.2248  0.0095
 2490W        W22770   3.098  16.416   0.795  0.2461 -0.3024 -0.0917
 2491W        W22771  10.612  10.350   2.390 -0.0710 -0.0786  0.1167
 2492W        W22772   0.703  15.534  13.681 -0.0802  0.0581  0.0804
 2493W        W22773   1.868   9.864   2.918 -0.0201 -0.0085  0.1919
 2494W        W22774  14.276   5.823  16.380 -0.2432 -0.3181 -0.0690
 2495W        W22775   4.194  15.716   1.300 -0.0856 -0.0763  0.1690
 2496W        W22776  10.239   4.803  16.480  0.0207  0.0530  0.3732
 2497W        W22777  12.029   2.014  15.311  0.2823  0.2233  0.3092
 2498W        W22778  14.801   8.540   0.403  0.3352  0.0516  0.2119
 2499W        W22779  17.214   3.500  16.020 -0.0902 -0.0624 -0.1269
 2500W        W22780   9.640   6.094  11.663 -0.1869  0.1767 -0.0405
 2501W        W22781  16.631  14.314  10.977  0.0724 -0.1065 -0.2486
 2502W        W22782  10.522  17.808   1.172 -0.0907  0.2621  0.0233
 2503W        W22783  12.641   2.532   3.447  0.1497 -0.2593  0.0013
 2504W        W22784   3.357   1.669  15.930 -0.1163  0.1433  0.2940
 2505W        W22785  17.955  16.117  14.569 -0.0380  0.0735 -0.2413
 2506W        W22786   9.612   4.934   1.163  0.0149 -0.3295 -0.3601
 2507W        W22787   6.528   3.408  16.597  0.1589 -0.0729 -0.0137
 2508W        W22788  15.287   7.467  14.899  0.0312  0.4725  0.1761
 2509W        W22789  16.440   3.441   1.537  0.1327 -0.1612  0.2456
 2510W        W22790   5.144   6.601  12.836  0.3459 -0.1432  0.2539
 2511W        W22791  14.418  17.624   2.450  0.1394 -0.1498  0.0817
 2512W        W22792  11.730  15.917   0.349 -0.1477 -0.0945 -0.4329
 2513W        W22793  17.776  12.099   2.089 -0.0683 -0.2229  0.0599
 2514W        W22794   6.708  13.602  14.325  0.1081 -0.2343  0.0582
 2515W        W22795   3.172  13.898  16.675  0.0844 -0.0395  0.1194
 2516W        W22796   8.914   1.166   2.841  0.0783  0.3498  0.2144
 2517W        W22797   4.177  13.263   4.928  0.3642 -0.2410 -0.0847
 2518W        W22798   4.893   3.658  13.420 -0.0979  0.2347  0.0617
 2519W        W22799  16.638  12.839  13.088  0.1997 -0.0403  0.1669
 2520W        W22800  11.588   3.428  15.338 -0.1542  0.0546  0.2294
 2521W        W22801  15.313   5.337  12.098  0.1111 -0.2780 -0.1874
 2522W        W22802  17.022   8.603  13.627 -0.0885  0.1896  0.1825
 2523W        W22803   3.086   4.023  15.992  0.2867 -0.0516  0.0975
 2524W        W22804  13.264  14.709   3.387 -0.1125 -0.0371  0.0933
 2525W        W22805   9.618   7.405  16.573 -0.0443 -0.0483 -0.2535
 2526W        W22806   3.612  17.453   2.845 -0.4275  0.0455 -0.3785
 2527W        W22807   3.158  17.482  16.693 -0.1372 -0.0027  0.1282
 2528W        W22808  13.488   7.597   2.474  0.0455  0.1918  0.0326
 2529W        W22809   0.260  11.117  13.453  0.0248 -0.2340 -0.1374
 2530W        W22810  13.250  15.472  13.444 -0.1162  0.0439  0.0841
 2531W        W22811   1.497   6.497  13.973  0.0395 -0.0778 -0.0738
 2532W        W22812   2.969   2.380   0.198  0.1228 -0.1569 -0.4938
 2533W        W22813   0.702  13.856  13.842 -0.0449  0.5164  0.1042
 2534W        W22814  14.610   9.847  12.037  0.2625 -0.1717 -0.0550
 2535W        W22815  12.301  10.311   2.574  0.1758  0.0884  0.3940
 2536W        W22816  12.834   2.437   4.461  0.2376 -0.2248  0.2309
 2537W        W22817  14.756  17.544   4.577  0.2836 -0.1473 -0.3261
 2538W        W22818   6.193   9.225   3.672  0.1641 -0.0445  0.1000
 2539W        W22819  17.713  17.120   2.404  0.3551 -0.1096  0.3247
 2540W        W22820   5.249  17.540   3.418 -0.0236 -0.3496  0.1001
 2541W        W22821  14.753  17.382  14.042  0.1743 -0.1810 -0.0317
 2542W        W22822   5.631   6.565  12.904 -0.1687  0.0600 -0.0263
 2543W        W22823   5.561  12.712   2.251 -0.1272 -0.0450 -0.1344
 2544W        W22824  14.209   8.270   1.102 -0.0291  0.0131 -0.3052
 2545W        W22825   1.633   5.058  15.807  0.2696  0.0435 -0.0902
 2546W        W22826  10.837   1.145   3.694  0.1256  0.0681  0.0366
 2547W        W22827  12.817   6.282  12.936 -0.0528 -0.0736 -0.2151
 2548W        W22828   1.083  11.497   0.141  0.0429 -0.1239 -0.1751
 2549W        W22829   6.961  17.370   4.289 -0.2718 -0.2954 -0.2313
 2550W        W22830  10.193  15.856   0.746 -0.0777  0.0421 -0.1559
 2551W        W22831   8.083   9.962  12.757 -0.1237  0.4899  0.0701
 2552W        W22832   6.416   8.665  13.430  0.1086 -0.0368 -0.2230
 2553W        W22833  11.808  11.525   3.293 -0.4783 -0.0152 -0.0652
 2554W        W22834   1.604   3.331  15.301  0.0351 -0.1143 -0.0178
 2555W        W22835   2.361   3.152  13.128  0.2195  0.1707  0.0314
 2556W        W22836   9.878  11.545   2.563  0.0701  0.1373 -0.2407
 2557W        W22837   9.922   8.554   2.657 -0.0686 -0.1071  0.0118
 2558W        W22838  15.840   3.979  11.893 -0.0756 -0.3293  0.1703
 2559W        W22839  14.004   6.386   1.135 -0.0448 -0.1844 -0.2202
 2560W        W22840   6.207   7.181   3.099  0.0065  0.0159  0.0431
 2561W        W22841   9.870  17.306  12.793 -0.0223 -0.2257 -0.1221
 2562W        W22842   5.828   6.938  12.564 -0.0250 -0.0071 -0.1051
 2563W        W22843   6.164   8.449   4.413  0.0495  0.1198 -0.0011
 2564W        W22844  13.784  15.998   1.117  0.0534 -0.2572  0.2863
 2565W        W22845   1.748  13.051   4.584 -0.1656 -0.1867 -0.0449
 2566W        W22846  13.995   5.525  13.958  0.0217 -0.1202 -0.2629
 2567W        W22847  13.816   5.309   0.337  0.1835  0.0547 -0.2698
 2568W        W22848  11.549  14.185  14.201 -0.0284 -0.1507 -0.1656
 2569W        W22849   8.284   4.558  15.640  0.1874  0.0371  0.1727
 2570W        W22850  10.914  17.585   3.597 -0.0630  0.3317 -0.1493
 2571W        W22851   2.709  15.043   2.049  0.2422  0.1436 -0.1003
 2572W        W22852  16.226  11.124   3.431  0.3125  0.2900 -0.1432
 2573W        W22853   8.092   9.607  13.748  0.2805 -0.1995  0.2794
 2574W        W22854  13.707  11.043  15.235 -0.1180  0.1130  0.2067
 2575W        W22855  12.576   7.201   0.742 -0.0758  0.2038  0.0725
 2576W        W22856   0.531   6.170   3.552 -0.0469 -0.1058  0.1313
 2577W        W22857  14.828  11.822  15.922  0.1293 -0.0083  0.1414
 2578W        W22858  15.112   9.898   2.358  0.2114  0.2257 -0.0396
 2579W        W22859   7.156  15.323   3.345  0.4589  0.0641 -0.0281
 2580W        W22860   3.242   9.676   0.796  0.2172  0.2156 -0.2487
 2581W        W22861   6.129   8.512  15.623 -0.0586  0.0550  0.0883
 2582W        W22862   0.784   1.136  15.417 -0.0705 -0.0322  0.2651
 2583W        W22863  14.611   9.821  14.777  0.0199 -0.2648 -0.0112
 2584W        W22864   2.136   9.793  12.318 -0.0871  0.0664 -0.0020
 2585W        W22865   7.755  12.191   1.730  0.0991  0.0195 -0.2216
 2586W        W22866  14.081  15.683  15.298  0.0540  0.3726  0.1471
 2587W        W22867  13.945   8.669  16.688 -0.0939  0.0886 -0.1331
 2588W        W22868  15.358  13.381  16.015 -0.0503 -0.1547  0.2856
 2589W        W22869   8.308  12.425  12.930 -0.3018 -0.2196  0.2045
 2590W        W22870   3.014   7.960  15.723 -0.2924 -0.3372  0.0999
 2591W        W22871  14.400   7.274  16.211  0.3061  0.2016  0.1602
 2592W        W22872  10.834   9.114   2.547  0.0255  0.0513 -0.1891
 2593W        W22873  11.362  12.386   4.297  0.0469 -0.0492  0.0072
 2594W        W22874   3.354   3.730   0.072 -0.0225 -0.1907  0.0763
 2595W        W22875   3.750  17.655  15.339 -0.0553  0.3961 -0.0475
 2596W        W22876  12.726   8.596   2.182  0.0360  0.1929 -0.1004
 2597W        W22877   8.857  16.543   1.928  0.0069 -0.1523 -0.1472
 2598W        W22878   6.407   6.166   4.310  0.2153 -0.0921 -0.0547
 2599W        W22879  17.344   2.347   1.622 -0.1488 -0.1205 -0.2788
 2600W        W22880   9.389   8.412   1.438  0.1764  0.0235  0.1881
 2601W        W22881   7.623   3.835   0.575 -0.1974  0.0390  0.0036
 2602W        W22882  10.094   2.786  13.023  0.2099 -0.0208  0.3145
 2603W        W22883  15.368  11.066  12.985 -0.2830 -0.2102 -0.1202
 2604W        W22884   7.086  17.815   4.595 -0.2008 -0.2651  0.2643
 2605W        W22885   4.720   6.423   1.771  0.0168 -0.1312  0.3511
 2606W        W22886   7.904  14.313  13.302  0.2947  0.1971 -0.3313
 2607W        W22887   2.865   4.237   2.294 -0.1098  0.0477  0.0627
 2608W        W22888   4.247  14.554   3.007  0.0795  0.3853  0.0759
 2609W        W22889  17.257  10.288  12.353 -0.4332  0.2299 -0.0856
 2610W        W22890  13.800   5.305   4.549 -0.3734 -0.0991 -0.0131
 2611W        W22891   3.624   4.324   3.305  0.2654 -0.2894 -0.1281
 2612W        W22892   1.836   1.029   0.990 -0.1727  0.1467  0.2200
 2613W        W22893  12.335   3.871  13.345 -0.3186 -0.1310  0.1404
 2614W        W22894   5.377  15.039  13.649  0.0280 -0.1513  0.2294
 2615W        W22895  17.079  13.214  14.732  0.0468  0.0617 -0.0245
 2616W        W22896  12.538  10.978   0.912  0.3056  0.1223  0.2625
 2617W        W22897   5.110   3.902  16.092  0.1270  0.4896 -0.1723
 2618W        W22898   8.586   5.017  11.693 -0.0732  0.0766  0.0455
 2619W        W22899   8.820   8.543   0.158 -0.0371 -0.1069 -0.1176
 2620W        W22900  10.956  12.742  13.938  0.2689 -0.0027  0.1443
 2621W        W22901  12.100  16.250  16.311 -0.1036 -0.2959  0.0319
 2622W        W22902  15.531   5.067  16.056 -0.2210 -0.1060  0.2721
 2623W        W22903  11.096  12.393  12.947  0.0112 -0.1406  0.0855
 2624W        W22904  12.323   3.442  13.555 -0.0349  0.2845  0.2415
 2625W        W22905  11.093   4.344  11.891 -0.2108 -0.0061  0.0810
 2626W        W22906  14.184  12.957   0.805 -0.2966 -0.0485  0.1710
 2627W        W22907   5.445   6.259   1.301  0.1393  0.2005 -0.1586
 2628W        W22908   8.207  17.184   2.576 -0.1243 -0.1165 -0.0719
 2629W        W22909   6.691   7.541  14.614  0.0529 -0.0920  0.0726
 2630W        W22910   8.508   5.908   3.548 -0.0823  0.0650  0.1590
 2631W        W22911  10.766   1.861  15.495  0.1239  0.3261  0.0313
 2632W        W22912   9.301  11.974   1.409  0.0478  0.0972 -0.1409
 2633W        W22913   0.048   6.569   2.201  0.2958 -0.2794 -0.3357
 2634W        W22914  10.384  16.340  16.465  0.1049 -0.1297 -0.4550
 2635W        W22915   2.354   5.114  15.243  0.2707  0.2339 -0.0371
 2636W        W22916  15.656  14.512  14.818 -0.3353  0.3219  0.3172
 2637W        W22917  15.020  16.377  12.838 -0.3313 -0.0156  0.2247
 2638W        W22918   5.051  12.194   3.756  0.1540  0.2752  0.2379
 2639W        W22919   5.866   8.161   2.121 -0.1600  0.0956  0.0495
 2640W        W22920  14.627   4.338  16.107 -0.1654  0.1276  0.1338
 2641W        W22921   4.338   6.301  12.747 -0.0519  0.1158 -0.0313
 2642W        W22922  17.572   3.836   3.559  0.3021  0.2783 -0.1824
 2643W        W22923   4.621  12.324   2.272  0.4009  0.3044 -0.1137
 2644W        W22924  13.200  14.807  15.199  0.0220  0.1501  0.1115
 2645W        W22925  15.629   6.283  13.606 -0.3815  0.0496 -0.1087
 2646W        W22926   8.791  13.581   1.261  0.2889 -0.0923 -0.2550
 2647W        W22927  13.685  12.333  14.986 -0.1346 -0.3143  0.0171
 2648W        W22928   7.275  10.117  14.154 -0.1764  0.2413  0.4340
 2649W        W22929   5.901  10.107   5.443  0.0970 -0.2034 -0.0383
 2650W        W22930  13.778  17.655  12.696  0.0826 -0.3976 -0.2483
 2651W        W22931  14.689   0.648   1.131 -0.4507  0.1351  0.0391
 2652W        W22932  16.171   6.565  15.656  0.0297 -0.0614  0.0057
 2653W        W22933  13.829  10.078  13.421  0.0400 -0.1884 -0.1726
 2654W        W22934   5.182  11.561   3.007  0.0524 -0.1289  0.1913
 2655W        W22935   2.762   3.798  13.388  0.0411  0.0677  0.0546
 2656W        W22936   9.829   3.366   4.378 -0.0042 -0.0552 -0.2733
 2657W        W22937  11.228   4.580  12.353 -0.3749  0.0576 -0.0317
 2658W        W22938   1.704  17.234   0.038 -0.1254 -0.1224  0.1282
 2659W        W22939   7.298   0.031  11.547 -0.0683 -0.2095 -0.2252
 2660W        W22940   6.135   5.675   1.694  0.0929 -0.0994 -0.1811
 2661W        W22941   4.592  11.669   5.314 -0.1412 -0.0835 -0.0202
 2662W        W22942  15.295   2.484   3.755 -0.6010 -0.0164  0.1337
 2663W        W22943   8.572  13.069   3.050  0.0330  0.1027 -0.0521
 2664W        W22944  13.908  17.919  16.560  0.1879  0.2496  0.0953
 2665W        W22945  12.659  12.264   0.659  0.3704  0.0362  0.0759
 2666W        W22946   3.513   6.557  12.707  0.1152 -0.2126 -0.1413
 2667W        W22947   1.991   8.324   2.442 -0.0299 -0.2489  0.0179
 2668W        W22948   7.294   1.452   3.294  0.5133 -0.0290 -0.0507
 2669W        W22949   7.930   7.344  12.656 -0.0266 -0.0056 -0.0812
 2670W        W22950   1.752  17.125  15.976 -0.0752 -0.0784 -0.1342
 2671W        W22951  11.782   3.747   1.191  0.1082 -0.1011 -0.0289
 2672W        W22952  16.226   0.285  15.349  0.0186  0.3223  0.1398
 2673W        W22953   4.897   0.421  15.844 -0.4370  0.3657  0.2174
 2674W        W22954  12.560   9.593  16.317  0.2089  0.0469  0.3395
 2675W        W22955   9.567  11.824   2.325 -0.0774  0.0788 -0.1249
 2676W        W22956  13.763  10.711  14.078  0.1571  0.1138  0.2612
 2677W        W22957   4.745   0.824   2.706 -0.1097  0.4443  0.0246
 2678W        W22958   3.263   8.405   2.559  0.1484 -0.1900 -0.0460
 2679W        W22959  17.468   6.289  14.305 -0.2774 -0.0722 -0.0546
 2680W        W22960   8.078   5.890   2.293 -0.1923  0.1078 -0.3554
 2681W        W22961  14.743   5.616  16.322 -0.3050 -0.2968 -0.0571
 2682W        W22962   6.065   8.769  16.426 -0.1982  0.1688  0.0578
 2683W        W22963  16.995   8.285   0.652  0.1857  0.0366 -0.1567
 2684W        W22964   1.532   9.698  15.974 -0.1304 -0.2263 -0.1221
 2685W        W22965  13.633  11.484  15.608 -0.1436 -0.1178 -0.2613
 2686W        W22966   9.039   2.990   0.225 -0.0834  0.0329 -0.0413
 2687W        W22967  10.199   4.104   1.401 -0.1464 -0.4180  0.0167
 2688W        W22968   1.208  12.464   1.174  0.0393  0.0213 -0.2197
 2689W        W22969   3.232   9.267  15.090 -0.4189 -0.2088  0.0984
 2690W        W22970  13.574   0.505  15.900  0.2221 -0.2697 -0.0400
 2691W        W22971   4.738  16.853  10.607  0.1805  0.1267 -0.1875
 2692W        W22972  16.380  12.178   1.012 -0.0747 -0.2302 -0.0278
 2693W        W22973  12.072   2.305  11.951  0.1274 -0.1986 -0.0671
 2694W        W22974   6.046  14.696  14.022 -0.2366 -0.0838 -0.2097
 2695W        W22975  11.886  15.370  16.397 -0.0133 -0.1267  0.1632
 2696W        W22976   3.435  14.909  13.983 -0.2630  0.6448 -0.2159
 2697W        W22977  17.550   1.474  13.897  0.1241  0.2930  0.2357
 2698W        W22978  12.395   0.718  15.836 -0.2576 -0.1947 -0.1210
 2699W        W22979  13.450   3.638  12.162 -0.0179  0.4531 -0.3739
 2700W        W22980   5.428   3.221  15.549 -0.0389  0.3909 -0.1079
 2701W        W22981   6.289  12.619   1.846 -0.1304  0.1200  0.0118
 2702W        W22982   9.507  12.866   0.935  0.0165 -0.0848 -0.1665
 2703W        W22983  13.377  14.112   0.163  0.1277  0.0688  0.1029
 2704W        W22984  14.374  13.414  12.618 -0.0893  0.1278 -0.1096
 2705W        W22985  15.680   6.155  12.286  0.1135 -0.2001 -0.1442
 2706W        W22986   3.061   8.972  11.636  0.1717 -0.0411  0.2423
 2707W        W22987   1.448  16.149   0.900  0.1630 -0.0660 -0.2423
 2708W        W22988   6.901  10.504  14.268  0.0780  0.0461 -0.0527
 2709W        W22989   6.853   4.782  12.237  0.3790 -0.1559  0.2757
 2710W        W22990   6.016  17.725   2.468  0.1515 -0.2358 -0.0029
 2711W        W22991  16.358  13.494  13.797  0.2856 -0.1190 -0.0338
 2712W        W22992  11.386  10.111  16.386 -0.0307  0.0189  0.0444
 2713W        W22993  15.389   7.304   3.920  0.1267 -0.0431 -0.0430
 2714W        W22994  13.204  15.158   4.744 -0.2136  0.2447  0.2914
 2715W        W22995   2.107  12.688   0.243  0.1974 -0.0006  0.0740
 2716W        W22996  12.921   8.191  16.053 -0.1329 -0.1841 -0.0077
 2717W        W22997  12.425  13.022  15.161  0.1088  0.1621  0.0253
 2718W        W22998   0.646   3.613   1.471  0.2393  0.1124 -0.2244
 2719W        W22999  17.246  13.228  13.716  0.1622  0.0402 -0.1020
 2720W        W23000   5.013  17.406  13.788  0.0821 -0.2260  0.1832
 2721W        W23001   3.969  10.897  14.476  0.1279 -0.2619 -0.1002
 2722W        W23002   1.868  15.781   0.973 -0.1139  0.0127  0.0786
 2723W        W23003  14.953  16.812  15.414  0.2225 -0.1322 -0.0091
 2724W        W23004  17.070   9.363   4.828 -0.1879 -0.1129  0.2831
 2725W        W23005  15.352  13.179  16.473 -0.1125 -0.0039  0.0576
 2726W        W23006   1.058  10.391   2.926 -0.1978  0.0523 -0.0126
 2727W        W23007   1.521  13.316  13.560 -0.0588  0.3293 -0.0265
 2728W        W23008   4.976   8.559   4.064 -0.2806  0.1086 -0.4407
 2729W        W23009   3.806   2.188  13.818 -0.1580  0.1011 -0.2950
 2730W        W23010   1.177  12.545  12.824  0.1381  0.0839 -0.2325
 2731W        W23011   2.114  11.705   4.938 -0.0267  0.1603  0.1716
 2732W        W23012  13.394   7.873  12.993 -0.0097  0.0870  0.1174
 2733W        W23013   8.426   1.814   2.280 -0.1687 -0.0688 -0.0597
 2734W        W23014   7.139  10.583   5.530 -0.2457  0.0624 -0.0048
 2735W        W23015   2.708  17.736   1.571 -0.1756 -0.0604 -0.1295
 2736W        W23016   9.729  15.014  15.194 -0.1732 -0.0151  0.1064
 2737W        W23017   4.214  17.907  16.026  0.0608 -0.4308  0.1298
 2738W        W23018  14.318   1.390   3.031 -0.1436  0.2687  0.1998
 2739W        W23019   1.679   4.136  14.070  0.0213 -0.1732 -0.1161
 2740W        W23020   0.819  17.975  15.590 -0.1008  0.1840 -0.1167
 2741W        W23021   5.022   0.428   2.376  0.1802 -0.0469 -0.0015
 2742W        W23022  11.765   9.069  12.112 -0.1588  0.1557  0.0066
 2743W        W23023   5.259   6.013   0.607  0.0930  0.0307 -0.1081
 2744W        W23024  15.024   7.410  13.213 -0.0043 -0.0811  0.1555
 2745W        W23025  13.726   5.183  10.481  0.2475 -0.1766 -0.2067
 2746W        W23026   9.994   3.011  12.137 -0.2000 -0.0257 -0.0764
 2747W        W23027  17.767   7.088  14.850 -0.0425  0.2174  0.0521
 2748W        W23028   1.942  11.106  14.367 -0.1393 -0.0556  0.2373
 2749W        W23029  11.807   4.811  14.424 -0.1822 -0.2799 -0.2663
 2750W        W23030   5.760   4.200  14.240 -0.0154  0.0821 -0.1868
 2751W        W23031   0.955   9.633   4.472  0.0235  0.0194 -0.0401
 2752W        W23032  11.947   9.137   3.820 -0.0145  0.1018 -0.1696
 2753W        W23033   1.263   2.942  15.311  0.0202 -0.0918 -0.3027
 2754W        W23034  17.918  14.149   0.886 -0.3817  0.1625 -0.1939
 2755W        W23035   9.020  13.173   1.795  0.0937  0.0935 -0.1996
 2756W        W23036  16.465   7.644  15.101 -0.0697  0.0610 -0.1324
 2757W        W23037   4.775  14.231  13.696 -0.0209 -0.0611  0.1527
 2758W        W23038  11.774   4.478   4.675 -0.0430 -0.2139 -0.2650
 2759W        W23039   5.690   4.407   1.510 -0.2461 -0.2986 -0.4561
 2760W        W23040  13.291   0.734   0.529 -0.1178 -0.0198 -0.3314
 2761W        W23041   1.395   5.490  12.648 -0.1759 -0.2495  0.1360
 2762W        W23042   7.968  14.399   0.847 -0.1552  0.2214 -0.0291
 2763W        W23043   8.816   1.526  14.638 -0.1102  0.1119  0.1632
 2764W        W23044   3.755  11.197  14.873 -0.1644  0.4593  0.0663
 2765W        W23045   6.842   8.817   4.972 -0.0172 -0.0424 -0.1192
 2766W        W23046   3.545   8.151  13.902 -0.1069 -0.1947 -0.1423
 2767W        W23047  11.653   0.846  14.146  0.1056 -0.3844  0.0427
 2768W        W23048   2.997  11.018  12.393 -0.2616  0.3057  0.1167
 2769W        W23049   8.268  14.096  14.395  0.0090 -0.2222  0.0297
 2770W        W23050   4.363   6.380  11.924 -0.0313 -0.1899 -0.1500
 2771W        W23051   6.101   4.789   2.163 -0.1161 -0.0083  0.0453
 2772W        W23052   7.180  17.665  16.656  0.3317 -0.1709  0.0711
 2773W        W23053  11.804  16.578  11.770  0.0302  0.3659 -0.0781
 2774W        W23054  12.296   0.816  15.074 -0.1602  0.0428 -0.1535
 2775W        W23055   1.429   9.014  14.386  0.1375 -0.1619  0.3698
 2776W        W23056   3.809   9.521  12.190  0.0164  0.2031  0.0176
 2777W        W23057  17.539   8.661  14.512  0.2419  0.0307 -0.0828
 2778W        W23058   9.041  17.341   3.798 -0.4362  0.0959  0.2977
 2779W        W23059   9.142   7.536  16.597  0.0073 -0.3255 -0.0451
 2780W        W23060  14.755   6.133  13.817 -0.4219  0.3052 -0.3915
 2781W        W23061   0.767   0.373   3.745  0.2227 -0.0918 -0.4008
 2782W        W23062   2.187  17.396   1.908 -0.0522  0.1820  0.1896
 2783W        W23063   9.623  10.282   0.799 -0.1413  0.2058  0.2089
 2784W        W23064   6.976   4.444   4.188 -0.4685  0.2284 -0.0987
 2785W        W23065   4.166  14.652   4.198  0.0370 -0.0789 -0.1402
 2786W        W23066   1.301   9.605  12.971 -0.0118 -0.1187 -0.0905
 2787W        W23067   7.151  15.808   3.232  0.0604 -0.1204  0.0259
 2788W        W23068  15.537   9.931  15.146  0.2793 -0.2106 -0.4918
 2789W        W23069   0.418  11.389  16.125  0.0245 -0.0155  0.1892
 2790W        W23070  13.866   2.857   1.869  0.1876  0.1010 -0.3068
 2791W        W23071  14.983  14.444  15.928 -0.1945  0.0610  0.0186
 2792W        W23072  10.961   6.118  14.635 -0.0299  0.1522 -0.2158
 2793W        W23073   7.386  13.016   3.620 -0.1315 -0.3898 -0.1271
 2794W        W23074  14.960  15.264   1.050 -0.0101  0.0334 -0.0460
 2795W        W23075  10.558  11.273   1.200 -0.0558 -0.0494  0.0128
 2796W        W23076   1.032   6.786   0.370  0.0405 -0.1815  0.3531
 2797W        W23077   4.648  11.185   5.263  0.4667 -0.0663 -0.1025
 2798W        W23078   6.997  11.080  14.038 -0.0355  0.2945  0.0172
 2799W        W23079  11.698   1.916   1.438 -0.1486  0.0550  0.0999
 2800W        W23080  11.055   6.738  12.724 -0.1087  0.0021 -0.3060
 2801W        W23081   2.007  11.953  13.562 -0.0119 -0.1813  0.2195
 2802W        W23082   4.498  17.160  15.655  0.1773  0.0891 -0.0646
 2803W        W23083  10.938   1.924  11.271 -0.0899  0.0146  0.1430
 2804W        W23084  16.539  10.548   2.632 -0.0755  0.0595  0.0359
 2805W        W23085  12.800   5.333   3.411  0.2301  0.0589 -0.0138
 2806W        W23086   8.663  12.785  15.133 -0.3053  0.0015 -0.0453
 2807W        W23087   8.457   6.873  12.488  0.3506 -0.1140  0.0671
 2808W        W23088   9.913  13.253   2.648 -0.0995  0.1411 -0.1484
 2809W        W23089   0.464   3.205  14.433 -0.1506  0.1619  0.2121
 2810W        W23090  15.641  13.553  16.369 -0.0345 -0.0161 -0.2317
 2811W        W23091  10.619   5.761   4.010  0.3853  0.0235  0.0323
 2812W        W23092  11.857  12.930  16.479  0.1090  0.0184 -0.3124
 2813W        W23093   6.264  15.639   5.265 -0.0547  0.2664  0.2536
 2814W        W23094  14.146  13.807  15.558 -0.3283 -0.1449 -0.1387
 2815W        W23095  10.602   5.258  16.115 -0.4707  0.0568  0.3508
 2816W        W23096   3.026  10.633   2.779 -0.0611 -0.0893 -0.1771
 2817W        W23097  10.285  15.360   4.920  0.4317 -0.2195  0.2505
 2818W        W23098  15.522   6.023   1.404  0.3367 -0.2090  0.3508
 2819W        W23099   3.212   8.585  13.124 -0.3217  0.0530 -0.1258
 2820W        W23100   7.479   1.668   0.297 -0.1404 -0.0669 -0.1312
 2821W        W23101   0.720   4.905  12.637  0.0096 -0.1501  0.1460
 2822W        W23102  11.057  17.561  13.366  0.1949  0.1050  0.2540
 2823W        W23103   7.059  11.950  13.843  0.3450 -0.1726  0.1706
 2824W        W23104  14.503  13.593  12.156 -0.0775  0.0190 -0.1112
 2825W        W23105   7.773  17.942   3.463 -0.1855 -0.0177  0.2984
 2826W        W23106  14.101   0.735  13.746  0.0543 -0.0406  0.0566
 2827W        W23107  11.705  16.546   2.567  0.0081 -0.0466  0.0557
 2828W        W23108   4.638   0.134   2.273 -0.0133 -0.0295  0.1832
 2829W        W23109  12.443   9.346   3.848 -0.0174 -0.2033  0.0279
 2830W        W23110   4.270   8.683   0.481 -0.1408  0.2256 -0.4116
 2831W        W23111  16.893  12.063   3.804 -0.2287 -0.1727  0.2540
 2832W        W23112  12.393   4.333   1.702  0.1019  0.0429 -0.2113
 2833W        W23113   2.648   4.595   4.870 -0.1858  0.0434  0.0796
 2834W        W23114   7.011  16.885   4.109 -0.1859  0.1065 -0.1212
 2835W        W23115  13.546  13.997  14.548  0.1592  0.0048  0.0766
 2836W        W23116  17.889  17.765   4.696 -0.0915  0.0379 -0.2295
 2837W        W23117  12.198  13.721   3.259 -0.1733 -0.0371  0.1802
 2838W        W23118   8.877  17.947  16.266  0.0192 -0.0994 -0.0239
 2839W        W23119   6.373   2.369   4.086 -0.1460  0.2309  0.1270
 2840W        W23120   6.634   1.414   0.794  0.0718  0.2843  0.1623
 2841W        W23121  11.113  14.405  16.252 -0.0512 -0.1282  0.0359
 2842W        W23122   2.616   8.631  15.747 -0.0790  0.3040  0.0964
 2843W        W23123   5.996   8.965  15.991  0.3689 -0.2939 -0.0209
 2844W        W23124  15.500  15.431  15.239 -0.1903  0.1513 -0.2211
 2845W        W23125   3.184  10.969  15.207 -0.0359 -0.1528  0.3959
 2846W        W23126  10.648  16.074   5.030 -0.0579 -0.0524 -0.0098
 2847W        W23127  15.469   5.420   0.737  0.2192 -0.0927  0.2031
 2848W        W23128  17.828  12.280   4.322 -0.1375 -0.0220 -0.2001
 2849W        W23129   3.666  14.911  13.388  0.0494  0.1804 -0.0669
 2850W        W23130  13.049   9.194   4.634  0.0336  0.3768 -0.2235
 2851W        W23131  11.552   5.320  12.449 -0.2223  0.0673 -0.0335
 2852W        W23132   2.423  17.207   4.914  0.1082  0.0207  0.0475
 2853W        W23133  12.810   3.694  14.677  0.0976  0.1364 -0.0279
 2854W        W23134   1.661  12.408  13.367  0.0033 -0.1565  0.1939
 2855W        W23135  12.155  17.757   3.304 -0.2117 -0.0332 -0.0325
 2856W        W23136   8.374   6.232  15.384 -0.1387  0.0969  0.1582
 2857W        W23137  16.165  15.150   1.536 -0.0363 -0.0842  0.0318
 2858W        W23138   2.340   7.075   4.471 -0.0836  0.1661 -0.2256
 2859W        W23139  14.555  10.798  15.693  0.0788 -0.1650 -0.1258
 2860W        W23140   6.606  10.798  15.858  0.1067 -0.0785 -0.3083
 2861W        W23141   8.318  11.321   1.520  0.0016  0.0707  0.0974
 2862W        W23142  17.716  12.916  12.404 -0.0453  0.0056 -0.2326
 2863W        W23143  17.914  12.594   1.912  0.0201  0.3017 -0.2231
 2864W        W23144   8.143   1.288  15.430  0.0740  0.0785  0.0098
 2865W        W23145  16.456   2.899  12.597  0.1021  0.1721 -0.0278
 2866W        W23146   6.219   4.263   1.343  0.2335 -0.3816  0.0115
 2867W        W23147   8.555   0.673   3.846 -0.2841  0.2173  0.0364
 2868W        W23148   3.007  13.684  14.902  0.0401 -0.0289  0.5073
 2869W        W23149  12.860   9.496  14.476 -0.2806 -0.1442 -0.0341
 2870W        W23150  15.935   2.668  15.131  0.1592 -0.1880  0.1394
 2871W        W23151  12.979  14.675   4.815 -0.2033  0.0823 -0.2968
 2872W        W23152  16.915   9.613  15.089  0.1732 -0.2402 -0.0736
 2873W        W23153   5.713  10.926   0.517  0.0323  0.0447 -0.2238
 2874W        W23154   1.288  11.431  15.615 -0.0542 -0.0362 -0.0878
 2875W        W23155  11.754  12.034   1.341  0.1518  0.0911 -0.0318
 2876W        W23156  15.464  12.925   1.570 -0.0614  0.0352 -0.1787
 2877W        W23157  11.925   1.998  15.814  0.3197 -0.1916 -0.1186
 2878W        W23158  15.721   5.835   3.026  0.0385 -0.0100  0.1059
 2879W        W23159   3.901  10.291   2.017 -0.0810 -0.0099  0.1407
 2880W        W23160  13.012  15.316   2.068 -0.0538  0.0036  0.4059
 2881W        W23161  17.428  17.419   2.130 -0.0169 -0.0160  0.1841
 2882W        W23162   5.521  10.810  12.330  0.3432 -0.1870 -0.1255
 2883W        W23163  15.370   1.895   0.854 -0.1111 -0.0950 -0.0040
 2884W        W23164   0.635   5.201  15.677  0.1289 -0.2992  0.0245
 2885W        W23165   6.905   9.902  13.077 -0.1238 -0.3201 -0.2195
 2886W        W23166  12.175   4.370  14.325 -0.0387 -0.4387  0.1428
 2887W        W23167   9.332  10.815   2.798 -0.0643  0.1555 -0.1887
 2888W        W23168  16.986  13.193  15.323  0.0027 -0.1546 -0.0816
 2889W        W23169  16.712   6.457  14.617 -0.2645  0.0339  0.0733
 2890W        W23170   0.413  16.819  12.341  0.1596  0.1814  0.0421
 2891W        W23171   3.493  10.238   4.053 -0.1082 -0.0566 -0.3586
 2892W        W23172  15.514  17.641   0.639  0.0528 -0.1021  0.0475
 2893W        W23173   2.814  10.281   1.529 -0.1116 -0.1972  0.2649
 2894W        W23174  12.042  12.420  12.762  0.1487  0.1215  0.1778
 2895W        W23175   6.108  17.787   2.003  0.1145 -0.1164 -0.4057
 2896W        W23176  14.029  17.281   3.372  0.2307 -0.0480 -0.2327
 2897W        W23177  13.946   9.569  13.602  0.0512  0.0258  0.1853
 2898W        W23178  13.666   7.663  16.593 -0.1899  0.1899 -0.1479
 2899W        W23179   7.421   6.132   1.487  0.2081 -0.2105  0.2229
 2900W        W23180   4.851  12.843   4.685  0.2974  0.1064 -0.3450
 2901W        W23181   5.357  15.986  15.693  0.1132 -0.2078 -0.0966
 2902W        W23182   1.173   2.329   4.503 -0.2021 -0.0161 -0.2379
 2903W        W23183   1.168  17.612  12.599  0.1748 -0.1335  0.0480
 2904W        W23184  14.287  13.993   1.498  0.0145 -0.3585  0.2181
 2905W        W23185   2.754   0.258  14.961  0.1243 -0.0595 -0.0697
 2906W        W23186  12.741   4.154  11.573 -0.1138  0.2061 -0.2050
 2907W        W23187   3.540   0.877  15.558  0.0469  0.1258 -0.4617
 2908W        W23188   5.741   3.055  13.054  0.0867  0.0676 -0.0193
 2909W        W23189   5.516  16.049  11.851  0.0734  0.1861 -0.1254
 2910W        W23190  14.934  15.118  12.550  0.0731  0.2887 -0.2535
 2911W        W23191   7.983   5.161   4.923  0.1647 -0.0366  0.3410
 2912W        W23192  17.817  10.876  14.910 -0.0836 -0.0903  0.0425
 2913W        W23193   6.280   2.675   3.680  0.1624 -0.0310  0.2765
 2914W        W23194   2.147  11.809  13.108  0.2099 -0.1471  0.4171
 2915W        W23195   6.724   2.211  14.619 -0.1263 -0.0694  0.0257
 2916W        W23196   7.399  12.075   3.337  0.1221  0.0562  0.1879
 2917W        W23197  17.970  14.743   0.959  0.0916 -0.1217 -0.1793
 2918W        W23198   9.616   1.667   4.841 -0.1467 -0.0425 -0.1689
 2919W        W23199  10.252  17.762  12.471 -0.2765  0.1135  0.1766
 2920W        W23200  12.700  10.690  15.262 -0.0610 -0.2636  0.0766
 2921W        W23201   0.222   6.936  15.023  0.0337  0.1239 -0.0316
 2922W        W23202   2.402  10.570  16.174  0.0330 -0.1012 -0.1412
 2923W        W23203  13.306   5.976   0.069  0.1000  0.0993  0.1034
 2924W        W23204  16.060  11.758  13.412  0.1267 -0.1986 -0.2200
 2925W        W23205  16.231   1.085   2.852 -0.2494  0.0745  0.0006
 2926W        W23206   6.724  16.540   2.837 -0.1327  0.1253 -0.3174
 2927W        W23207  12.659   1.621   2.227 -0.4192  0.2367  0.3310
 2928W        W23208  16.225   5.608   2.871  0.0013  0.0659  0.1814
 2929W        W23209   8.680   5.780  13.641  0.0624  0.1312 -0.0554
 2930W        W23210   3.537  14.122  16.019 -0.3273  0.0046  0.2440
 2931W        W23211  16.407  13.511  12.892 -0.1392 -0.0358  0.2391
 2932W        W23212   5.833   2.228  14.809  0.0212  0.1738 -0.2436
 2933W        W23213   6.885   9.310   3.082  0.0273 -0.0133 -0.0411
 2934W        W23214   4.340   2.599   1.955  0.1349 -0.0497 -0.0432
 2935W        W23215  10.668   7.053  14.447 -0.1471  0.2254  0.0665
 2936W        W23216   9.587   1.362   3.553  0.0241 -0.0655  0.1652
 2937W        W23217   6.003   7.364  12.824 -0.1620  0.1706  0.3682
 2938W        W23218   9.266  13.230   4.777 -0.1345 -0.0913  0.1236
 2939W        W23219  10.220  15.523   3.354  0.0779  0.0073  0.2050
 2940W        W23220  15.490   5.503  13.046 -0.0039  0.0747 -0.1227
 2941W        W23221   4.192  10.812  13.991 -0.3063 -0.1157 -0.0924
 2942W        W23222   3.170   9.130   6.447 -0.2037  0.0174  0.0863
 2943W        W23223   4.776   4.837   3.626  0.3619  0.1705 -0.3248
 2944W        W23224  15.715  15.815   3.279 -0.3025 -0.1662  0.2319
 2945W        W23225   6.803   2.282  11.664 -0.1681  0.2060  0.1901
 2946W        W23226   2.828   4.939  14.212  0.1293  0.3783 -0.2760
 2947W        W23227  15.664   7.686  16.407  0.1786  0.2500  0.2132
 2948W        W23228   2.476  14.831   2.505 -0.0551  0.0109 -0.0737
 2949W        W23229   2.960   5.843   1.017  0.3118 -0.2719 -0.2164
 2950W        W23230  12.730   7.096  13.392  0.1291 -0.2204 -0.3589
 2951W        W23231   4.524   9.608   4.797  0.0585  0.1455  0.2028
 2952W        W23232  10.711  14.751   3.285 -0.3177 -0.3970 -0.2124
 2953W        W23233   3.995  16.611   3.895 -0.0247  0.0932  0.0743
 2954W        W23234  10.440   5.315   3.998 -0.0459 -0.0260 -0.2194
 2955W        W23235   8.251  15.991   1.732 -0.0580 -0.2132 -0.0685
 2956W        W23236   3.506   7.730  15.217  0.0856 -0.2182 -0.0618
 2957W        W23237   5.116   0.521   3.546  0.1652 -0.1450  0.2950
 2958W        W23238  15.033   8.967  12.261  0.0395 -0.0596  0.1365
 2959W        W23239   8.396  14.908  15.695  0.0611 -0.0964 -0.2096
 2960W        W23240  13.943   3.864  14.284  0.0400  0.0535 -0.1783
 2961W        W23241   3.927   2.703  15.303 -0.0148 -0.1160 -0.1576
 2962W        W23242   9.363   4.673  16.018  0.1021  0.0073  0.1003
 2963W        W23243  12.532  15.890  13.849 -0.1335 -0.1926 -0.4791
 2964W        W23244  16.729   9.044   3.041  0.1488 -0.2112 -0.1357
 2965W        W23245   5.990  14.613  15.197  0.1104 -0.3322 -0.3645
 2966W        W23246   9.856   7.278   1.144 -0.1553  0.0738  0.2850
 2967W        W23247  12.228  13.670   0.898 -0.0743 -0.2293  0.0846
 2968W        W23248   7.602   7.746   1.606 -0.0991  0.0388 -0.2422
 2969W        W23249   0.713   6.119   2.314 -0.0483 -0.1946 -0.1429
 2970W        W23250  10.062   4.940  12.093 -0.1076 -0.0722  0.4802
 2971W        W23251   0.606  15.475   1.912  0.1852  0.2259 -0.1134
 2972W        W23252   3.820   1.353  16.020 -0.1823 -0.2076  0.1958
 2973W        W23253   4.273   3.812   2.800 -0.1280 -0.0454 -0.3589
 2974W        W23254  12.961  11.035  12.490 -0.1292  0.1150  0.1309
 2975W        W23255  12.062   4.203  15.650 -0.0657 -0.3281  0.1378
 2976W        W23256   5.363   0.265  15.961  0.1297  0.1252  0.2196
 2977W        W23257  14.689  16.780  12.355 -0.0605 -0.0833  0.2470
 2978W        W23258  13.342   7.478   2.994 -0.1417 -0.2313  0.2020
 2979W        W23259   2.978  17.294  15.034  0.4673 -0.0419 -0.1643
 2980W        W23260  15.896  17.825  12.717 -0.0971 -0.0763  0.0322
 2981W        W23261   0.993   1.341   0.616 -0.1847 -0.0830 -0.0801
 2982W        W23262  11.655   1.634  11.834 -0.1147 -0.4277 -0.2333
 2983W        W23263  14.661   5.375  12.614  0.0864  0.0558  0.3079
 2984W        W23264  12.809  13.586   1.456 -0.0595 -0.1779 -0.1308
 2985W        W23265   0.805   9.455  15.454  0.0295  0.2024 -0.2156
 2986W        W23266   5.818   4.508  13.544 -0.1266 -0.0284  0.0973
 2987W        W23267   5.740   8.530   0.419  0.0219  0.0892  0.1554
 2988W        W23268   5.214  13.562  16.218  0.0617  0.1204  0.2338
 2989W        W23269   9.784  12.570  12.701  0.1375  0.1250 -0.1069
 2990W        W23270   2.910  15.450   4.097 -0.3334  0.0278  0.1278
 2991W        W23271  16.872   8.137   2.992  0.0192  0.0648  0.0747
 2992W        W23272   4.979  14.842   2.954  0.0427 -0.0765 -0.0726
 2993W        W23273   1.532  15.988   2.870 -0.0452  0.1177  0.1480
 2994W        W23274   7.401  10.540   0.900  0.0988  0.0865 -0.0628
 2995W        W23275  15.363  16.630  15.075  0.0346  0.4622 -0.4473
 2996W        W23276   0.362  12.258   3.404  0.0048 -0.0674 -0.4234
 2997W        W23277   4.949  15.358  13.011  0.0458 -0.1160  0.3672
 2998W        W23278  10.998   3.740  11.151 -0.2521 -0.1141 -0.2430
 2999W        W23279  14.539  16.648  16.074  0.0069  0.2144  0.0107
 3000W        W23280  11.869  17.819   4.161 -0.0615 -0.4495 -0.1931
 3001W        W23281   3.645   6.740  13.862  0.0942  0.2803 -0.3265
 3002W        W23282   1.409  15.230  13.757 -0.1755 -0.1589  0.0916
 3003W        W23283   0.571   9.949   2.867 -0.0540  0.2428 -0.1965
 3004W        W23284  16.333  11.822   2.597 -0.0789  0.1150  0.0384
 3005W        W23285   3.547  15.396   4.868 -0.2285  0.0631 -0.0051
 3006W        W23286   0.408  17.947   0.878  0.1715  0.1737 -0.0978
 3007W        W23287   3.525   0.151  15.530 -0.1239 -0.4005 -0.0168
 3008W        W23288   0.502   0.633   0.414 -0.1524  0.1261 -0.1273
 3009W        W23289   1.403   7.305   3.391  0.1471  0.0146  0.1248
 3010W        W23290  15.455  15.043  12.400  0.0491 -0.2231  0.0908
 3011W        W23291   8.396  16.785   3.279 -0.1606  0.3062  0.2016
 3012W        W23292   5.186   3.416  11.720 -0.4008 -0.3000  0.0308
 3013W        W23293  13.464   8.363   1.160 -0.2143  0.0062  0.1309
 3014W        W23294  11.501  16.468  12.690 -0.1844  0.0488 -0.4024
 3015W        W23295  13.872   6.906  14.400 -0.0101  0.1568 -0.2485
 3016W        W23296  11.168   6.971  16.488  0.1556  0.0003  0.3292
 3017W        W23297  15.095   4.598  13.301  0.2380 -0.0607  0.0198
 3018W        W23298  17.072   2.891  15.288  0.0605 -0.3590  0.0619
 3019W        W23299   9.596  12.099   3.229 -0.1838 -0.4060 -0.1029
 3020W        W23300  10.101   0.985  14.873 -0.0037 -0.1644  0.0256
 3021W        W23301   9.352  16.355   2.037 -0.0690 -0.0482 -0.4817
 3022W        W23302  10.510   8.478   1.385  0.0733 -0.1542  0.0833
 3023W        W23303  16.434   1.613  12.248  0.0544  0.0508 -0.1616
 3024W        W23304   5.563  12.670   4.094 -0.1917 -0.0146  0.0051
 3025W        W23305  10.011   4.067   0.778 -0.0479 -0.0831  0.0961
 3026W        W23306   9.952   1.011  15.825 -0.0516 -0.1157  0.1480
 3027W        W23307   9.603   3.018  11.869  0.0882  0.2292 -0.0063
 3028W        W23308   3.819  13.393  12.048 -0.1458 -0.0806 -0.1241
 3029W        W23309   5.666   4.748   4.117 -0.2608  0.2014 -0.0562
 3030W        W23310   0.196  13.478   2.521 -0.3211 -0.1951  0.2603
 3031W        W23311  12.625   9.040  14.551  0.1519  0.0182  0.1713
 3032W        W23312  14.460   6.614   1.416 -0.1419  0.0127 -0.3342
 3033W        W23313   0.149  13.511  11.972 -0.4199  0.2467 -0.2662
 3034W        W23314   3.828   1.861  16.306  0.1909  0.2604 -0.0655
 3035W        W23315   1.373   1.320   1.956  0.4275 -0.0150 -0.0606
 3036W        W23316   2.370   9.673   4.380 -0.0937  0.1393 -0.1413
 3037W        W23317  12.710   3.081  14.775 -0.4525 -0.0372  0.0219
 3038W        W23318   9.263   2.566   2.241 -0.2183 -0.0057  0.3440
 3039W        W23319   8.559  11.859   3.176 -0.0240  0.0050  0.0694
 3040W        W23320   0.714  10.606  15.259  0.0310  0.1679  0.2088
 3041W        W23321  15.698   2.951  14.255  0.1663  0.0062  0.0397
 3042W        W23322   1.739  14.680  15.981 -0.0744 -0.0180  0.1051
 3043W        W23323   5.066  14.160  16.339  0.3002  0.0677  0.0961
 3044W        W23324   3.758  12.473   0.679 -0.4206 -0.1359 -0.4028
 3045W        W23325  14.195   7.592  13.018 -0.1878  0.0529 -0.1387
 3046W        W23326  12.680  10.325  15.599 -0.0149  0.0403 -0.1111
 3047W        W23327  14.779  11.377   0.776 -0.3522 -0.1671 -0.1051
 3048W        W23328  13.907   7.999  12.941  0.1261  0.0875  0.0327
 3049W        W23329  13.664   8.949  14.824  0.3493 -0.3596 -0.1360
 3050W        W23330   8.935   9.626  15.267  0.2226 -0.0930  0.1158
 3051W        W23331   1.124  17.562  14.850  0.0578 -0.0694 -0.0814
 3052W        W23332  17.152   3.839   1.273 -0.1509 -0.0916 -0.1961
 3053W        W23333  16.960  11.464  15.540 -0.0633 -0.0857  0.1350
 3054W        W23334   5.826  10.803   2.118 -0.0232 -0.0730  0.0200
 3055W        W23335   2.721   0.414   2.323 -0.1133  0.0619  0.3372
 3056W        W23336   6.689  14.978  15.861  0.0284  0.0470  0.1045
 3057W        W23337  12.982   6.808   1.544 -0.3068  0.0580  0.0556
 3058W        W23338   4.567  15.693  13.493 -0.0601  0.0921  0.2388
 3059W        W23339  14.025   0.742  12.909 -0.2258 -0.0618  0.2934
 3060W        W23340  15.634  17.055  13.303  0.3347  0.0615  0.0104
 3061W        W23341  11.361  11.918  16.317 -0.0785 -0.3377  0.2890
 3062W        W23342   5.264  15.945   0.689  0.0033 -0.0033 -0.0103
 3063W        W23343  14.361   0.599  16.486 -0.1863  0.1108 -0.2068
 3064W        W23344   0.534   3.581  13.522  0.1280 -0.0245  0.1378
 3065W        W23345   2.525   8.802   4.881 -0.1486  0.3565  0.2208
 3066W        W23346  12.457  16.034   2.088 -0.2445  0.2267 -0.0130
 3067W        W23347   9.244  17.652   3.383 -0.3226  0.1208 -0.2267
 3068W        W23348   7.140  16.922   1.132  0.0233 -0.1127  0.2215
 3069W        W23349  11.637  15.591   3.762 -0.0240  0.0591  0.0436
 3070W        W23350  17.183  17.344  15.885  0.0755  0.0121 -0.2535
 3071W        W23351   0.813  10.036   3.363 -0.2111 -0.4907  0.0969
 3072W        W23352   4.678  10.852  15.636 -0.1584 -0.1990  0.2595
 3073W        W23353   9.943   2.091  12.342  0.0603  0.3049 -0.1975
 3074W        W23354   4.785   5.329   0.300 -0.2913 -0.4870  0.0089
 3075W        W23355   7.945  13.781  14.718 -0.0998 -0.0178  0.3872
 3076W        W23356  10.269   4.469   0.987 -0.0588 -0.0849  0.0242
 3077W        W23357   1.952  13.159   0.342  0.2203 -0.0832 -0.3181
 3078W        W23358  16.051  16.372   2.282  0.1808  0.1225  0.2523
 3079W        W23359  13.093   1.113  16.304  0.1110 -0.0237 -0.0989
 3080W        W23360   4.887   0.772  15.493 -0.0663  0.2184  0.2973
 3081W        W23361   1.886   2.811  16.114  0.0656  0.1995  0.2893
 3082W        W23362  11.770   1.251   4.671 -0.0101 -0.0699 -0.2186
 3083W        W23363   3.710  11.702  15.724 -0.0843 -0.0382  0.1533
 3084W        W23364   9.588   2.181  14.295 -0.0862  0.0944 -0.0503
 3085W        W23365   1.958   2.502  15.762 -0.0584  0.0669 -0.0438
 3086W        W23366   2.442   7.227   3.783  0.1560 -0.1448  0.0168
 3087W        W23367   8.534   4.719  13.747 -0.5963 -0.0067  0.1333
 3088W        W23368  15.081  17.698   1.086  0.0755  0.0182 -0.0426
 3089W        W23369   8.368  10.814  15.068  0.2797  0.0620  0.0162
 3090W        W23370   5.675   2.308  14.264 -0.0980  0.1524  0.1433
 3091W        W23371   2.514  17.697   0.148  0.2386  0.3029 -0.0366
 3092W        W23372   3.229   2.196  13.684 -0.0926 -0.0610 -0.1497
 3093W        W23373  17.361  10.776  14.881  0.2697  0.0892 -0.2748
 3094W        W23374  16.708   6.046   5.854 -0.4055  0.6892  0.0807
 3095W        W23375   1.361   0.557   0.159 -0.3652 -0.0581  0.0412
 3096W        W23376   8.068   9.421  12.677  0.1496  0.0204 -0.4703
 3097W        W23377   3.400   5.455   0.987 -0.2879  0.4007  0.0493
 3098W        W23378  12.256  16.932   3.786 -0.2438 -0.0501  0.1697
 3099W        W23379   7.602   2.894  14.827  0.2557  0.0193 -0.1981
 3100W        W23380   7.254   8.804  11.903  0.0256  0.2017 -0.2078
 3101W        W23381  15.308   0.129   0.890  0.1014  0.3320 -0.1750
 3102W        W23382  17.512   2.362   4.555  0.4227 -0.3030 -0.0290
 3103W        W23383  17.137   6.793   4.781 -0.0865  0.1361  0.0044
 3104W        W23384   1.432  11.878   1.700 -0.0862  0.2555  0.0006
 3105W        W23385  14.119   2.039   2.004 -0.0212  0.2250  0.2239
 3106W        W23386  14.138  14.431   0.695  0.0068 -0.3112  0.0308
 3107W        W23387  15.620   9.558   1.185  0.1104 -0.0894 -0.3984
 3108W        W23388  16.484  13.623  16.643  0.2810  0.2585  0.2832
 3109W        W23389  14.440   0.566  15.010 -0.2157 -0.0392 -0.3290
 3110W        W23390  14.993   1.999  12.334  0.0246  0.0540  0.0711
 3111W        W23391   4.748   1.827  12.433 -0.0771 -0.0135 -0.2515
 3112W        W23392  13.999  15.398   0.548  0.3433 -0.1563  0.1904
 3113W        W23393   3.702  12.885   1.311  0.2339 -0.0654  0.1853
 3114W        W23394   1.687   6.059  15.937 -0.1614 -0.2123  0.2613
 3115W        W23395  11.757  11.296   5.609  0.0374  0.1086  0.0494
 3116W        W23396  14.743   0.198  14.208  0.0779 -0.1550  0.1069
 3117W        W23397   2.377   7.972   2.258 -0.3086 -0.2103 -0.0850
 3118W        W23398   3.030   2.846   2.144  0.1812 -0.3538  0.1781
 3119W        W23399   4.713  16.951   3.534 -0.1645  0.0431  0.1169
 3120W        W23400   0.690   3.794   1.988 -0.0360  0.0533 -0.0448
 3121W        W23401  14.503  16.960  13.160 -0.5607  0.1226 -0.1874
 3122W        W23402   5.148  10.575  14.744 -0.0556 -0.1656  0.0090
 3123W        W23403  10.340  11.088   4.830  0.0463 -0.0874 -0.0787
 3124W        W23404   4.038  17.029  12.839  0.2310  0.1169  0.1965
 3125W        W23405   9.658   1.384   3.036 -0.0626  0.2289 -0.1388
 3126W        W23406  16.750  16.026  16.102 -0.0452  0.1701  0.1852
 3127W        W23407  14.331   7.642  15.773 -0.3522 -0.1185  0.1372
 3128W        W23408   8.883   6.343   3.607  0.1370  0.1119 -0.0503
 3129W        W23409   4.922   0.390  11.989 -0.0839  0.1015 -0.1561
 3130W        W23410   0.199  13.514  12.919 -0.2802 -0.1704 -0.1353
 3131W        W23411   1.152  13.782  12.425  0.5066  0.2184  0.1893
 3132W        W23412   5.223   2.866  13.061 -0.5052 -0.0633  0.2236
 3133W        W23413  16.766   0.861  14.511 -0.1076  0.0326  0.1287
 3134W        W23414  14.475  11.224  11.990  0.0470 -0.2576 -0.4168
 3135W        W23415  12.455  17.773  16.696  0.1341  0.2964  0.2106
 3136W        W23416   6.898   4.471  15.002 -0.1650  0.1567  0.0245
 3137W        W23417  12.875  10.586   0.919 -0.0474  0.1108 -0.0487
 3138W        W23418   4.123   7.797   2.620  0.4248  0.5387  0.1952
 3139W        W23419  15.780   6.095   4.626 -0.0668 -0.0584  0.0701
 3140W        W23420   1.774   9.820   3.570 -0.1030  0.1715  0.1558
 3141W        W23421   1.488  13.700  14.988  0.1441 -0.0244 -0.0619
 3142W        W23422   0.904   1.205   2.032  0.0619  0.1295  0.1450
 3143W        W23423  12.989  17.576   2.179 -0.0131 -0.1389  0.0493
 3144W        W23424   7.723  15.353  14.323 -0.3090  0.2184  0.0178
 3145W        W23425   3.040   8.566   5.022  0.0610  0.1344 -0.3667
 3146W        W23426   1.908   8.766  13.767 -0.3054  0.0303  0.1035
 3147W        W23427   8.663  15.401  12.234  0.1525  0.0430  0.0212
 3148W        W23428  11.804   9.448   3.441  0.0362 -0.0771 -0.0098
 3149W        W23429  15.086   0.424  12.852  0.0413 -0.3251  0.1703
 3150W        W23430  13.584   1.870   0.533 -0.0810  0.1117  0.2093
 3151W        W23431   3.924  17.079   1.202 -0.1394  0.0111  0.1249
 3152W        W23432   0.580   7.649   4.435 -0.1717 -0.1541  0.3159
 3153W        W23433  13.526   7.538   1.767  0.0092  0.0152  0.1555
 3154W        W23434  14.438  13.958  14.704 -0.1314 -0.0137 -0.2315
 3155W        W23435   6.304  16.060  14.967  0.1636 -0.0739  0.0646
 3156W        W23436   6.312   7.907   4.112  0.0299  0.1177  0.1536
 3157W        W23437  13.680  15.314  15.983 -0.0032  0.1833  0.0624
 3158W        W23438  12.343  16.327  15.069  0.2094 -0.0127 -0.0662
 3159W        W23439  13.816   3.625  16.008 -0.2481  0.0792 -0.0125
 3160W        W23440   2.776   8.928   0.565 -0.1719 -0.0835  0.0468
 3161W        W23441  14.446  12.426  15.602  0.3101 -0.1666 -0.3116
 3162W        W23442  11.658   6.647   0.910 -0.0078 -0.1325 -0.1305
 3163W        W23443   2.506   7.842   5.098  0.1210 -0.1256  0.3175
 3164W        W23444   6.877   1.423  15.310 -0.1866 -0.2027  0.2111
 3165W        W23445   6.119  11.098   0.838 -0.1102  0.0627  0.1555
 3166W        W23446  10.245   5.385  12.187  0.1566 -0.2143  0.1343
 3167W        W23447   4.639  12.309   4.973  0.1275 -0.2974 -0.0760
 3168W        W23448   5.791  11.242   2.886  0.0966 -0.3797 -0.1274
 3169W        W23449  17.594  17.454   0.246 -0.0515  0.2206  0.0106
 3170W        W23450  14.245   5.457  14.946 -0.0800  0.2820 -0.3612
 3171W        W23451  14.433  15.783  12.163 -0.0440 -0.0946  0.3633
 3172W        W23452   1.053  10.950   3.251  0.1048 -0.1100 -0.0802
 3173W        W23453  15.402  15.637   1.090  0.3319 -0.0494 -0.1496
 3174W        W23454  15.096  14.107  12.662  0.2125 -0.1464  0.1198
 3175W        W23455   7.299   4.144   2.099 -0.1703  0.5104 -0.2726
 3176W        W23456  12.333   9.208  15.112  0.1391  0.0591 -0.1136
 3177W        W23457   4.105  10.386   0.978 -0.5050  0.0281  0.0137
 3178W        W23458   3.837   0.534   4.442  0.1522  0.0304 -0.0936
 3179W        W23459  14.268   8.392  12.940  0.1617  0.1798 -0.0295
 3180W        W23460  11.421   2.189   3.985 -0.0495 -0.0364 -0.2385
 3181W        W23461  15.708   7.667  15.905 -0.1588 -0.2010 -0.1533
 3182W        W23462   4.775   4.449   4.684  0.0499 -0.0048  0.0540
 3183W        W23463  13.273  11.327   3.778  0.1221  0.2194 -0.0194
 3184W        W23464  10.552  15.751  15.716  0.0684 -0.4322  0.2220
 3185W        W23465   8.981  12.820  16.472 -0.0151  0.0993  0.0132
 3186W        W23466  15.781   3.571   2.957  0.2308  0.2245  0.1161
 3187W        W23467   3.766  10.488  14.175  0.2205 -0.2133  0.0681
 3188W        W23468   0.659   0.566  14.510 -0.0449 -0.1151  0.1309
 3189W        W23469   0.152  13.084   5.003 -0.1502  0.0900  0.2122
 3190W        W23470  12.030   0.812  12.497  0.1072  0.2394  0.2908
 3191W        W23471  10.462  16.698   1.122  0.1134 -0.0443 -0.1755
 3192W        W23472   1.196  16.541   4.511  0.2693 -0.0523  0.1462
 3193W        W23473   9.122  17.363  14.118 -0.2612  0.0029 -0.0173
 3194W        W23474  17.492  16.936  13.440 -0.0961 -0.0255 -0.2194
 3195W        W23475  10.002  16.586   3.246  0.0040  0.1238 -0.0284
 3196W        W23476   5.250   0.256  13.766 -0.0732 -0.0698  0.2038
 3197W        W23477  15.093  15.519   2.752 -0.1550  0.1702 -0.0143
 3198W        W23478   9.208   6.777  12.098  0.1655 -0.2391  0.1521
 3199W        W23479   2.307   4.590   3.433 -0.0038  0.0570 -0.0311
 3200W        W23480  10.920  13.808  14.470  0.0645  0.0149  0.1325
 3201W        W23481   2.350   0.344  16.248 -0.1445 -0.0469  0.1416
 3202W        W23482   7.465   6.628   2.382  0.1052  0.0561  0.4289
 3203W        W23483   7.190  14.384   2.199  0.0470  0.2337 -0.1261
 3204W        W23484  16.721  16.622  16.135  0.0787  0.1145  0.0705
 3205W        W23485  17.224   9.384   0.812 -0.0905 -0.3465  0.1184
 3206W        W23486  11.443  11.790   0.878 -0.0076  0.1477  0.0401
 3207W        W23487   7.901  11.406  15.995  0.2005 -0.3826  0.0311
 3208W        W23488  16.775   2.820   4.174  0.0354  0.1248  0.0761
 3209W        W23489   5.194  12.084   0.908 -0.1790 -0.2691  0.1547
 3210W        W23490   4.486   7.315   5.031  0.0569  0.3045  0.0841
 3211W        W23491   4.452   6.753  16.212 -0.0897 -0.1707 -0.1421
 3212W        W23492   4.946  15.653   1.983 -0.0803  0.0072  0.2809
 3213W        W23493  12.406  14.559  15.960 -0.0206 -0.0072 -0.0429
 3214W        W23494   2.559  11.380  15.484 -0.1257  0.0856 -0.2318
 3215W        W23495   9.454   0.166  12.243 -0.0867 -0.2164 -0.2038
 3216W        W23496   6.311   1.561  15.132 -0.0038 -0.0697  0.1675
 3217W        W23497   2.914  10.500  16.247 -0.2607  0.0975  0.1778
 3218W        W23498   3.111  17.327  14.061 -0.3507  0.3812  0.0441
 3219W        W23499  12.041   9.910   2.677  0.1088 -0.0620  0.1764
 3220W        W23500   0.768   4.367   3.555 -0.1041  0.1321 -0.1626
 3221W        W23501   2.316   4.599  13.565 -0.0686  0.2199  0.3193
 3222W        W23502  13.559   1.612   3.533  0.0646 -0.1795  0.0303
 3223W        W23503   8.315   1.156   2.987  0.2257 -0.0871  0.1270
 3224W        W23504  16.831  12.896  13.937  0.2769  0.2007  0.0914
 3225W        W23505  11.709   7.319   4.399 -0.2509  0.0222 -0.0931
 3226W        W23506   5.704   4.924   0.734 -0.1394 -0.2185 -0.0914
 3227W        W23507   3.275   8.948  13.484  0.0255 -0.2741 -0.4158
 3228W        W23508   8.475   1.676  15.613 -0.1647 -0.1653  0.0003
 3229W        W23509  13.798   7.433   1.330  0.0588  0.1007  0.0250
 3230W        W23510   3.166   6.101  13.353 -0.3275 -0.4044  0.1342
 3231W        W23511  15.108   0.053  12.505  0.0574  0.0784  0.2761
 3232W        W23512  13.236   4.123   0.570  0.2698 -0.0748 -0.1963
 3233W        W23513  16.978  14.666   4.529 -0.0794 -0.1237  0.1750
 3234W        W23514   1.609   3.615  14.125 -0.0592  0.4101 -0.2554
 3235W        W23515   0.062  16.254   0.110  0.0021 -0.2717 -0.1307
 3236W        W23516   4.623   5.184   3.982 -0.2404  0.3213  0.1197
 3237W        W23517   0.526   9.563   2.545 -0.1140  0.1984 -0.1006
 3238W        W23518   7.081   6.520  13.718  0.0988  0.0920 -0.0485
 3239W        W23519   1.409  10.383  13.238  0.1153  0.1403  0.1734
 3240W        W23520   7.278   9.996   0.808  0.3084  0.3489  0.1283
 3241W        W23521  17.798   1.841  16.321 -0.1348 -0.1495  0.2100
 3242W        W23522  10.981   8.044   0.666 -0.1410 -0.1823  0.3031
 3243W        W23523   4.396  14.635  12.472 -0.0171  0.0823 -0.4070
 3244W        W23524  14.789  12.309   4.453 -0.0610  0.2486  0.0414
 3245W        W23525   8.202  15.442  14.262 -0.0758  0.2173  0.1477
 3246W        W23526  14.467  15.586  16.683 -0.1516  0.2349 -0.0530
 3247W        W23527   5.505   7.265   1.490 -0.2442 -0.0675  0.3457
 3248W        W23528   8.438   9.409  14.037 -0.0949 -0.0564 -0.0464
 3249W        W23529   2.163   3.446   0.224  0.2041 -0.2154 -0.0989
 3250W        W23530   7.370   0.361   2.510 -0.0941  0.0919 -0.0131
 3251W        W23531   8.262  15.953  16.652  0.0076  0.4075 -0.1354
 3252W        W23532  16.802   6.869  16.073 -0.2109 -0.0721 -0.0298
 3253W        W23533  17.027  13.048   3.999  0.1924 -0.0291  0.1593
 3254W        W23534  13.638   7.155   2.705 -0.2818 -0.1729 -0.0106
 3255W        W23535   0.730   6.762   2.843  0.0711  0.0317  0.0060
 3256W        W23536  17.022   1.493   2.490 -0.2262  0.2115  0.1552
 3257W        W23537   4.782   3.337   4.470 -0.0781  0.2950  0.1257
 3258W        W23538   2.628  11.732  15.825 -0.3041 -0.0623 -0.0588
 3259W        W23539   8.744   4.460  14.277 -0.0691  0.0566  0.1352
 3260W        W23540   4.669  15.756  12.179  0.2085  0.0456  0.0253
 3261W        W23541   9.314  10.759   0.357 -0.1330  0.2619 -0.4552
 3262W        W23542   9.815  14.728   4.072  0.1160  0.3635 -0.0585
 3263W        W23543  17.520   2.786  12.691  0.0103 -0.0939  0.0153
 3264W        W23544   9.328  17.089   3.310  0.3488 -0.0308  0.2979
 3265W        W23545   2.451  15.737   4.066  0.1169 -0.0221  0.0138
 3266W        W23546  11.736   7.791   4.001 -0.1777  0.1014  0.1801
 3267W        W23547   5.240   9.731  13.335 -0.1831 -0.2721 -0.0851
 3268W        W23548   8.660  11.751  15.213  0.0068 -0.1965 -0.4100
 3269W        W23549   5.585  16.445  15.757 -0.3478 -0.1529  0.2443
 3270W        W23550  17.198  15.160  13.127  0.0499 -0.0473 -0.1232
 3271W        W23551   2.136   0.990  14.465 -0.3543  0.0446  0.1769
 3272W        W23552   6.689  14.952   3.126 -0.0320 -0.2603  0.3087
 3273W        W23553   2.175   2.493   0.363 -0.1166 -0.1262  0.1436
 3274W        W23554  12.757   5.807  14.499 -0.1072 -0.0074  0.2106
 3275W        W23555   7.982  13.000  16.406 -0.2214 -0.3179  0.0408
 3276W        W23556  11.480  10.930   1.457  0.1818 -0.1196  0.2323
 3277W        W23557   8.173  10.875  11.882  0.2863 -0.0175 -0.1540
 3278W        W23558   5.787  17.890   0.622  0.2010  0.2851  0.1130
 3279W        W23559  14.410  15.980   2.180 -0.0487  0.0022 -0.0059
 3280W        W23560  13.426  17.043   2.978 -0.0961 -0.0207 -0.0074
 3281W        W23561  12.220   3.787  16.232 -0.2358 -0.0867 -0.0970
 3282W        W23562  15.846   3.156  14.939  0.0236  0.0443  0.1163
 3283W        W23563  16.428   8.418  11.493 -0.2965 -0.0294 -0.2022
 3284W        W23564   7.498   3.363   0.423  0.1475  0.0808 -0.0426
 3285W        W23565   9.463   6.726  14.020  0.0150 -0.0474 -0.0536
 3286W        W23566  13.037   8.126  14.273 -0.0838 -0.0776  0.0258
 3287W        W23567  10.536   0.305   1.077  0.2428 -0.1732  0.0851
 3288W        W23568  13.617  10.868  13.157  0.0692 -0.1883  0.1831
 3289W        W23569  15.877  13.026  13.201  0.1210 -0.1336  0.1023
 3290W        W23570   8.889   1.607  11.703 -0.0832  0.0040 -0.0945
 3291W        W23571  15.007  14.326   3.919 -0.0186 -0.3167  0.0591
 3292W        W23572  11.520  12.661   0.728 -0.0769  0.0345 -0.1558
 3293W        W23573  16.656   7.469   0.581  0.2134  0.0192  0.3777
 3294W        W23574  13.807   3.778   3.962 -0.2259 -0.3709 -0.3629
 3295W        W23575   9.235  16.239  16.532 -0.4022  0.1012 -0.0105
 3296W        W23576  16.189   8.555  15.873 -0.2422  0.2685  0.0205
 3297W        W23577  16.375   1.282  12.665  0.2434 -0.2244  0.0371
 3298W        W23578  14.558   8.843  13.227 -0.0329  0.3016 -0.0681
 3299W        W23579   8.703   1.684  13.235  0.1498 -0.0656  0.0276
 3300W        W23580   4.703  17.861  16.058 -0.1323  0.1152 -0.1376
 3301W        W23581  15.030  16.960  14.858 -0.4753 -0.2978 -0.1103
 3302W        W23582   5.918   0.841   0.855  0.0576  0.0765  0.4080
 3303W        W23583   7.530   4.766  14.700 -0.1805 -0.2717 -0.3289
 3304W        W23584  15.088   7.137   4.870 -0.0563 -0.0205 -0.3009
 3305W        W23585  10.843   2.104  12.252 -0.1593 -0.1175  0.1043
 3306W        W23586  10.500   6.234   0.363  0.3197  0.1571 -0.5417
 3307W        W23587   8.149   0.309   3.832 -0.1454  0.0598 -0.0497
 3308W        W23588   0.936  12.474   2.152 -0.1548  0.0424  0.4607
 3309W        W23589  14.096  17.897  13.751 -0.1114 -0.0767 -0.3594
 3310W        W23590   7.437   2.635  13.718 -0.0299  0.2590  0.0028
 3311W        W23591   1.213  17.529   4.035 -0.1969 -0.1176  0.0143
 3312W        W23592   9.469   5.525  15.990  0.0333  0.0664  0.2248
 3313W        W23593  16.153   7.640   2.893 -0.2243 -0.2497 -0.0183
 3314W        W23594   4.593   5.382  15.540  0.1313 -0.2814 -0.0477
 3315W        W23595  14.726   0.684  14.529 -0.2369  0.1268 -0.3318
 3316W        W23596  11.080  11.584   1.894  0.6204  0.1125 -0.1541
 3317W        W23597  14.664   4.374   0.072  0.0738 -0.0328  0.0650
 3318W        W23598  16.781   5.610   1.717 -0.0814  0.1574 -0.1618
 3319W        W23599  10.227  11.998   2.625 -0.1610  0.1991  0.0975
 3320W        W23600   0.791   3.689  16.364  0.0203 -0.2362 -0.0450
 3321W        W23601   2.017   0.050   2.667 -0.0809 -0.1576  0.0050
 3322W        W23602   8.891  17.349   3.334  0.1583  0.0776  0.1166
 3323W        W23603  12.137  11.499   2.221  0.0199  0.0552 -0.0494
 3324W        W23604  10.985   2.822  13.463 -0.1767 -0.1012  0.2447
 3325W        W23605  13.703   9.908  14.467  0.1482 -0.0914 -0.0411
 3326W        W23606  15.089   2.596   2.002 -0.0364 -0.0564 -0.2502
 3327W        W23607  17.194  17.003  16.288 -0.1619  0.2651  0.0544
 3328W        W23608  15.972   3.940   2.638  0.1436  0.4141 -0.3997
 3329W        W23609  12.349  13.798   1.357  0.0899  0.0447  0.0138
 3330W        W23610  13.340   5.076   4.587 -0.0748 -0.2499  0.0914
 3331W        W23611  12.166  16.295   2.796 -0.0415 -0.1933  0.0008
 3332W        W23612   3.773  13.138   3.773  0.2997  0.3937  0.0894
 3333W        W23613   7.782   2.576   4.436 -0.0041 -0.0678 -0.1201
 3334W        W23614   3.803   3.821   4.562  0.0901  0.1522  0.1230
 3335W        W23615   8.546  10.717   4.602 -0.0834 -0.4066 -0.1167
 3336W        W23616   5.159   9.349   4.181  0.0404  0.3348  0.0336
 3337W        W23617   8.663   8.761  14.141  0.1248 -0.1019 -0.1230
 3338W        W23618  17.766  16.276  13.182 -0.0419  0.0473  0.2324
 3339W        W23619  17.302  11.809  15.663 -0.1495 -0.1841  0.2022
 3340W        W23620  15.523  12.779  14.314 -0.1992 -0.0593  0.1808
 3341W        W23621   8.782  14.889   1.146  0.0391  0.0745  0.2960
 3342W        W23622   3.809   7.860   3.036  0.0104  0.2449  0.1045
 3343W        W23623   2.747   4.399  13.411 -0.2470  0.1650  0.0558
 3344W        W23624  10.604  13.408  14.449  0.1734  0.2319  0.0614
 3345W        W23625  13.320  11.012  12.782 -0.2468  0.0189  0.2070
 3346W        W23626   8.793   4.595   0.153  0.0961  0.1490 -0.0620
 3347W        W23627   2.495   3.537  16.284  0.0679  0.1417 -0.0317
 3348W        W23628  16.919  15.086   1.168  0.1684 -0.1185  0.0498
 3349W        W23629   3.273   5.087   2.483  0.0270 -0.2732  0.1075
 3350W        W23630  15.153   1.762   3.723  0.1799  0.2204 -0.0979
 3351W        W23631  11.488  11.264  12.171  0.0840  0.0913 -0.0064
 3352W        W23632  14.346  16.459  12.299 -0.1214 -0.0154  0.4673
 3353W        W23633   4.392  17.139  15.127 -0.1907  0.1861 -0.0854
 3354W        W23634   3.142   2.506   3.604 -0.3337 -0.0652 -0.0190
 3355W        W23635  14.288   5.630   1.703 -0.5002 -0.0884 -0.0565
 3356W        W23636  11.542   3.977   2.787  0.0649 -0.0494 -0.0977
 3357W        W23637   7.514  13.571  15.917 -0.1458 -0.1858 -0.1562
 3358W        W23638  12.433   6.145   1.396 -0.1145 -0.0988  0.0925
 3359W        W23639   3.995  16.062   3.836  0.1218 -0.0010 -0.1348
 3360W        W23640  12.644   7.160   4.343 -0.0148  0.0125 -0.1288
 3361W        W23641   6.759  13.889   4.554  0.1816 -0.1760 -0.1554
 3362W        W23642   3.843  11.986   0.173 -0.0865  0.0720  0.0534
 3363W        W23643   0.402  10.384   3.498  0.0320 -0.0714  0.1004
 3364W        W23644   8.370   8.573  13.731  0.1517  0.0170  0.0495
 3365W        W23645  10.070   4.494  14.255  0.0668 -0.0407  0.2527
 3366W        W23646   4.534   6.393   0.133  0.3460 -0.4369  0.0953
 3367W        W23647  17.125   4.267   2.201 -0.1002 -0.2210  0.1107
 3368W        W23648   5.491  15.384   1.932 -0.2890 -0.0248  0.0215
 3369W        W23649  12.276   6.544   3.612 -0.1005  0.1975 -0.1931
 3370W        W23650   4.465   3.449   2.220  0.3343 -0.2428 -0.1173
 3371W        W23651   9.289   1.736   0.092 -0.2344  0.2334 -0.1110
 3372W        W23652   0.208  10.499   6.038 -0.0833  0.0645  0.0368
 3373W        W23653   3.248   6.581  13.211 -0.3330 -0.2635 -0.0924
 3374W        W23654  15.410   7.219  14.190  0.0536  0.0376 -0.2389
 3375W        W23655  14.037  13.868  16.515 -0.0542 -0.2749  0.0664
 3376W        W23656   1.853  16.761  12.539 -0.2270  0.0879 -0.0302
 3377W        W23657   6.491  11.337   4.484  0.0552 -0.1285 -0.0869
 3378W        W23658  15.892  13.448  12.328 -0.0769  0.0378  0.0295
 3379W        W23659  10.643   7.963   0.341  0.1109  0.0035 -0.0160
 3380W        W23660   7.726  10.189  12.504 -0.4170 -0.0263  0.1042
 3381W        W23661   5.490   1.502   4.254 -0.3410 -0.0143 -0.1608
 3382W        W23662   9.162   0.546   4.403 -0.0967 -0.0399 -0.0449
 3383W        W23663   6.037   5.234   4.481 -0.2959  0.3433 -0.1116
 3384W        W23664  16.118   0.875   4.466 -0.1186  0.0015  0.1133
 3385W        W23665  13.192  17.278  13.431 -0.1528  0.0023  0.1384
 3386W        W23666   8.014   7.322   4.770  0.2839 -0.1246  0.1274
 3387W        W23667  16.705   6.990   1.382  0.1626 -0.0777  0.1594
 3388W        W23668   7.887   1.399   3.123  0.0515 -0.3174 -0.1455
 3389W        W23669   5.792  17.555  14.755  0.0021  0.1272  0.1362
 3390W        W23670  17.797   8.239   4.348 -0.1364  0.1260  0.4388
 3391W        W23671   5.278   3.140   3.087 -0.1852  0.0359 -0.2045
 3392W        W23672   9.313   9.129  14.852 -0.0809  0.2054  0.0422
 3393W        W23673   1.828   0.550  15.334  0.1507 -0.3290  0.1382
 3394W        W23674  10.991   5.935   3.681  0.2801 -0.3052 -0.3321
 3395W        W23675  10.890   2.262  12.748  0.3202 -0.0895 -0.1152
 3396W        W23676  14.716   6.750   3.945  0.1697  0.1262  0.0238
 3397W        W23677   7.324  16.989   0.630  0.0665 -0.0076 -0.2044
 3398W        W23678  15.735  15.830  16.133 -0.1037  0.7485  0.0285
 3399W        W23679   6.334  10.082   1.207  0.0057 -0.0330  0.2090
 3400W        W23680  15.993   3.562  11.437  0.0564 -0.0458 -0.2308
 3401W        W23681  12.709   9.929  13.436  0.0183 -0.1609 -0.1207
 3402W        W23682   6.741   1.523  15.932  0.1779  0.0159 -0.2121
 3403W        W23683  10.424   7.484   0.173  0.2323  0.6148  0.3815
 3404W        W23684  11.497   6.187  13.898  0.0011 -0.0586  0.0218
 3405W        W23685  12.320   0.051  12.925 -0.0162  0.0071  0.1208
 3406W        W23686  13.825  16.951  13.909 -0.1999 -0.1703 -0.3275
 3407W        W23687   7.603  11.229   3.775 -0.1431  0.2925 -0.1802
 3408W        W23688   3.871   0.630   0.142 -0.2246  0.2006  0.0593
 3409W        W23689   1.090   0.581  13.372 -0.0886 -0.3557 -0.1933
 3410W        W23690   6.730   3.591  12.895  0.0571  0.0971  0.1046
 3411W        W23691   9.448  11.477  13.413 -0.0623 -0.0731 -0.0553
 3412W        W23692   2.456   6.845   0.436  0.0976 -0.1360 -0.0449
 3413W        W23693  12.091   6.440   1.594  0.0482  0.3811  0.1253
 3414W        W23694   1.622   2.717  12.916 -0.3152 -0.0124  0.2834
 3415W        W23695   8.162   2.293  16.264 -0.0855  0.0344 -0.0898
 3416W        W23696  15.844  15.169  12.917  0.2439  0.2417 -0.1155
 3417W        W23697   7.170  10.018  12.641 -0.2432 -0.3115 -0.2053
 3418W        W23698   1.786  15.600   4.306  0.1608 -0.0890  0.4035
 3419W        W23699   2.879   3.239  15.947 -0.0895  0.2303  0.0813
 3420W        W23700  14.974   1.318   1.589 -0.0813 -0.1596  0.0887
 3421W        W23701  17.680   6.210  15.318  0.1426  0.4450  0.0399
 3422W        W23702   8.822   9.340   2.341  0.0727 -0.0029 -0.1760
 3423W        W23703  11.438  15.460   0.561  0.2027  0.4136  0.1467
 3424W        W23704   1.620   3.750   1.837 -0.0200  0.0651  0.4275
 3425W        W23705  10.671   3.811   0.548  0.2263 -0.0623  0.0499
 3426W        W23706   2.550  10.968  13.655  0.3191 -0.1825 -0.0790
 3427W        W23707  12.470   6.902  13.906  0.0766 -0.1288 -0.1506
 3428W        W23708  17.079   0.909  12.286 -0.3058 -0.2722 -0.3651
 3429W        W23709   6.600   5.553   0.084 -0.2693  0.0861 -0.0549
 3430W        W23710  14.461   2.570   1.281 -0.2195  0.1126 -0.0153
 3431W        W23711   8.785   8.315  13.465  0.0838  0.0877 -0.2712
 3432W        W23712  17.674   3.750  15.846  0.1317 -0.0435  0.0039
 3433W        W23713  10.955   3.649   3.546  0.0970  0.1251  0.3001
 3434W        W23714   4.796   1.979   0.798 -0.0542  0.1250  0.2060
 3435W        W23715  17.566  12.126  15.413 -0.1734  0.1127  0.4548
 3436W        W23716   7.380   1.866  13.923 -0.0059  0.1545  0.1518
 3437W        W23717  13.215   7.439  16.609  0.0366 -0.2148  0.0603
 3438W        W23718  17.876   3.641   1.431 -0.3823 -0.1647 -0.1898
 3439W        W23719   7.265   4.507   2.448 -0.0858 -0.0314 -0.1026
 3440W        W23720  15.487   8.470  15.255  0.2970 -0.1091 -0.1002
 3441W        W23721  10.155   9.860  12.838  0.1214 -0.0672  0.2368
 3442W        W23722   5.673   0.106   2.189 -0.2927  0.0943  0.0544
 3443W        W23723   2.423  11.305   1.238 -0.0775 -0.1437 -0.0017
 3444W        W23724   6.641   5.532   1.612 -0.1716 -0.0916 -0.2599
 3445W        W23725  13.916  16.485  13.643 -0.3341 -0.1280  0.0506
 3446W        W23726  11.343   3.715  13.806  0.3224 -0.0009  0.2343
 3447W        W23727  12.172   5.541   2.274 -0.2726 -0.1848  0.0125
 3448W        W23728   0.293  16.777  16.642  0.2743 -0.1499  0.1125
 3449W        W23729   7.603   2.912  15.717  0.2619 -0.0251  0.0904
 3450W        W23730  17.422  13.801   3.575 -0.1192  0.0291 -0.0396
 3451W        W23731   7.341  11.896  16.612 -0.2214 -0.0886 -0.2421
 3452W        W23732   5.964   9.935  16.257  0.2655 -0.1491  0.1022
 3453W        W23733   7.483   8.122   4.626  0.2672  0.1164 -0.3951
 3454W        W23734   8.147   1.817  14.268 -0.1856  0.0589  0.1550
 3455W        W23735   6.266   8.890   4.119  0.1044  0.0166  0.0530
 3456W        W23736   0.779   8.092   3.194  0.2024 -0.1120  0.3640
 3457W        W23737  15.491  13.004   1.091 -0.1988 -0.3214 -0.0863
 3458W        W23738   2.568   9.461   3.476 -0.4112 -0.0250  0.0252
 3459W        W23739  11.454  11.630  12.566 -0.2633  0.2269 -0.0586
 3460W        W23740   3.894  10.202  15.307 -0.1170 -0.1693  0.0448
 3461W        W23741   1.387  16.725   2.719 -0.0371 -0.2603  0.1921
 3462W        W23742   2.599  14.000   3.249 -0.1054 -0.1039  0.0226
 3463W        W23743  14.349  13.210   1.396 -0.0834 -0.1752  0.1106
 3464W        W23744   2.377   9.026   1.413  0.2164  0.3668 -0.0121
 3465W        W23745   1.077  14.106   4.405  0.3934 -0.1959 -0.0172
 3466W        W23746  15.526   1.808  11.255  0.2901 -0.0223  0.2710
 3467W        W23747  15.030   0.733  14.047 -0.1574 -0.2802 -0.1847
 3468W        W23748   3.551   7.449   1.736 -0.1652 -0.0684  0.0260
 3469W        W23749  10.839   6.095  16.629 -0.2051  0.0693  0.1247
 3470W        W23750   4.958   9.611  12.356 -0.0547 -0.4568 -0.4885
 3471W        W23751  11.054  15.348   4.457 -0.5942  0.1586 -0.2751
 3472W        W23752  17.122   1.139   4.263 -0.1607  0.0101  0.0362
 3473W        W23753  12.310  17.661   1.774  0.0568  0.3325  0.0275
 3474W        W23754  15.726   1.310  14.442 -0.1971  0.0128 -0.0064
 3475W        W23755   9.524  13.096   2.270  0.0220 -0.0661 -0.2997
 3476W        W23756   5.497   0.734   0.522 -0.4687 -0.2260 -0.1894
 3477W        W23757   3.988  12.780   1.678 -0.0071  0.2097  0.3583
 3478W        W23758   1.190  12.917   0.943  0.1060  0.3420  0.4002
 3479W        W23759  13.204  12.902   4.540  0.0444  0.2083 -0.1230
 3480W        W23760   3.972  15.652   0.209 -0.0754 -0.4661 -0.0513
 3481W        W23761   2.705  12.997  12.116  0.2628 -0.1251  0.1178
 3482W        W23762   9.152  10.865  12.609 -0.3095  0.0414  0.3841
 3483W        W23763   5.920  11.184  16.176  0.2093  0.1741 -0.0995
 3484W        W23764   3.842   5.821  15.994 -0.0156 -0.1045  0.1892
 3485W        W23765   1.490   0.139  13.425 -0.0089  0.1153 -0.0273
 3486W        W23766   7.123   1.222   4.123  0.1177  0.2539  0.0280
 3487W        W23767   7.008  13.033   0.593 -0.0843 -0.4241  0.3042
 3488W        W23768   5.268   0.519   3.991 -0.1560 -0.4321 -0.0329
 3489W        W23769  13.887  15.599   4.417 -0.2144 -0.2142  0.0318
 3490W        W23770  17.834  10.791  13.555 -0.2258 -0.0531 -0.0661
 3491W        W23771   9.804   8.129   0.116 -0.1207  0.1533  0.1239
 3492W        W23772   8.962   8.024   3.123  0.1066 -0.0104  0.1683
 3493W        W23773   6.191  14.855  15.643  0.0713 -0.0370  0.0399
 3494W        W23774   7.956   8.687  15.287  0.0280  0.2240 -0.3318
 3495W        W23775   4.835  11.873   0.007  0.1906  0.3689 -0.1597
 3496W        W23776  15.504   1.853  12.042  0.1225 -0.1083 -0.1177
 3497W        W23777  14.804   0.970   2.751  0.1479 -0.0451 -0.2757
 3498W        W23778   6.432   7.656   1.416 -0.0918 -0.0449 -0.0118
 3499W        W23779   3.167   4.701  15.364 -0.0125  0.0850 -0.1793
 3500W        W23780  17.822   4.309   2.852 -0.4014  0.2977  0.0070
 3501W        W23781  16.520   0.789   3.146  0.0315 -0.3860  0.3007
 3502W        W23782  11.061   8.545  15.390  0.0553  0.2738  0.1204
 3503W        W23783   8.047  11.082  16.436 -0.0212  0.0349  0.0470
 3504W        W23784  10.040  11.968  14.926 -0.1739 -0.1070 -0.2166
 3505W        W23785   9.807   3.613   0.558 -0.2221 -0.4994  0.1680
 3506W        W23786  14.731   7.423   1.665  0.1548  0.1746  0.2567
 3507W        W23787  14.292   3.711   0.142  0.1798 -0.1850 -0.1403
 3508W        W23788   7.247  11.331   1.972 -0.0544  0.0423 -0.1017
 3509W        W23789   8.761  12.260  15.080  0.1571 -0.1030 -0.0812
 3510W        W23790  17.794  15.505   0.526 -0.0917 -0.2965  0.2239
 3511W        W23791   6.831  14.787  13.745  0.1611 -0.1264  0.0352
 3512W        W23792  11.780   8.821  14.238  0.2823  0.0605 -0.2277
 3513W        W23793  17.963   8.026   2.002 -0.1252 -0.2357  0.0811
 3514W        W23794  15.712  16.314  15.160 -0.1756 -0.2001  0.0154
 3515W        W23795   5.246  12.228  16.685  0.0148 -0.0537  0.0676
 3516W        W23796   0.748   4.585  14.666 -0.0945  0.0002  0.1133
 3517W        W23797   4.212  16.000  13.158  0.1840  0.0730 -0.0610
 3518W        W23798  15.429   0.438  13.256  0.2810 -0.1002 -0.1424
 3519W        W23799   2.976   3.661   2.071 -0.1369 -0.0365 -0.1217
 3520W        W23800   1.052  16.346  16.446  0.1811  0.0096  0.1918
 3521W        W23801  17.274   5.258   2.964 -0.3102  0.3085 -0.0121
 3522W        W23802   1.636  15.324   1.586  0.1435  0.0113 -0.0773
 3523W        W23803   7.442  13.888   3.151  0.0890  0.1897  0.1714
 3524W        W23804   0.923   0.064  13.430 -0.1069  0.0640 -0.0830
 3525W        W23805   6.207  16.698   1.213 -0.0248  0.1401  0.0216
 3526W        W23806   9.501  14.471  15.005  0.0856  0.0585 -0.0759
 3527W        W23807   8.333  10.325  15.110 -0.0949 -0.2602  0.3692
 3528W        W23808  16.903   6.710  15.001  0.0694 -0.1772 -0.2123
 3529W        W23809   5.925  11.357   0.467 -0.2557 -0.0404 -0.0930
 3530W        W23810   0.785  10.313  13.394  0.2522 -0.0922  0.0526
 3531W        W23811  13.512   8.922   2.822  0.2928  0.0366 -0.0093
 3532W        W23812   8.357   1.539   1.556 -0.1755  0.0016  0.2089
 3533W        W23813   5.760  13.649   2.210  0.0579 -0.1128  0.3906
 3534W        W23814   6.886   2.755  13.314 -0.1448  0.2634 -0.0137
 3535W        W23815  16.701  12.321   1.384  0.2211 -0.0194 -0.1291
 3536W        W23816   5.734  17.066  14.952  0.0832 -0.0284  0.2228
 3537W        W23817  16.565  14.313  14.230 -0.0035  0.0900  0.0221
 3538W        W23818   3.041   0.439   0.283  0.2666  0.0350  0.1173
 3539W        W23819  10.774  12.617  16.659  0.3789 -0.2271 -0.1305
 3540W        W23820   1.488   4.885  13.363 -0.0175  0.2544 -0.1431
 3541W        W23821   8.793  14.369  16.689 -0.1398 -0.0226  0.2078
 3542W        W23822   9.470   2.179  14.825 -0.1767  0.1657  0.3025
 3543W        W23823   5.791   0.295  16.114  0.2814  0.0052  0.0636
 3544W        W23824  15.628  12.174  12.818 -0.1322 -0.3804  0.2339
 3545W        W23825  11.462  10.696   2.931 -0.2618  0.3196 -0.0294
 3546W        W23826  13.524   9.791   3.509 -0.0375  0.3061  0.1374
 3547W        W23827   2.560   9.479  12.352 -0.0304 -0.0876 -0.2008
 3548W        W23828  11.674   0.748   4.530  0.1416  0.2415 -0.1189
 3549W        W23829  16.371   3.352   1.041 -0.1143  0.1338  0.1560
 3550W        W23830  17.147   7.637  16.031 -0.0718  0.5721  0.1862
 3551W        W23831   3.723  10.831   4.694 -0.0069 -0.0797  0.0485
 3552W        W23832   7.122   3.576   2.848  0.1717 -0.0761 -0.1115
 3553W        W23833   6.836   0.660  15.155 -0.1414 -0.0483  0.0211
 3554W        W23834   9.546  11.586  12.948 -0.0458  0.2031 -0.1314
 3555W        W23835   7.598   6.134   3.381  0.1183  0.0197 -0.0446
 3556W        W23836   9.634  17.489   0.287  0.1079  0.0943 -0.0086
 3557W        W23837   1.327   3.512   2.249 -0.2533  0.0476  0.0454
 3558W        W23838   1.095   1.042  11.847  0.1604 -0.1386 -0.0427
 3559W        W23839   2.336   1.337   2.458  0.0022 -0.4102  0.1421
 3560W        W23840   8.890  10.125   1.241  0.3280  0.0688 -0.2615
 3561W        W23841  12.971  17.515   1.680 -0.0822  0.1382 -0.1174
 3562W        W23842   4.101  11.230   1.689  0.1966 -0.0535 -0.1189
 3563W        W23843   2.315   1.958   3.179 -0.1761  0.2472  0.0369
 3564W        W23844  10.955  11.632  12.480  0.1632 -0.1025  0.4394
 3565W        W23845  17.269   8.028  16.287 -0.0510  0.1082  0.0178
 3566W        W23846   4.677   0.810   0.294 -0.1477  0.0186 -0.1572
 3567W        W23847   7.978  17.808   1.387 -0.2265 -0.1671 -0.0710
 3568W        W23848   2.465   9.948   5.209 -0.5294 -0.2007 -0.1749
 3569W        W23849   6.624  16.415  12.566  0.5411  0.1424  0.0554
 3570W        W23850  13.151  15.439   0.032 -0.1468 -0.0404 -0.1110
 3571W        W23851   1.563   1.441   1.457  0.1973 -0.0520 -0.2058
 3572W        W23852   4.183  13.754   0.859  0.2237  0.2097 -0.2353
 3573W        W23853  14.935   6.596   1.167 -0.0460  0.3266  0.0667
 3574W        W23854   3.783   8.265   1.135 -0.0234  0.0612 -0.3298
 3575W        W23855  17.897  11.025   2.476 -0.0133  0.0230  0.4286
 3576W        W23856  16.833   1.467  12.827  0.2329  0.0194  0.1802
 3577W        W23857   8.093   2.327   2.237 -0.0718 -0.2709 -0.0228
 3578W        W23858   8.623  15.259  13.045 -0.0425 -0.0062 -0.0336
 3579W        W23859  11.255   2.264  11.056  0.3125  0.0442 -0.5652
 3580W        W23860  10.885   7.321  15.251  0.1737 -0.0090  0.3348
 3581W        W23861  15.085  12.724  12.794  0.2468 -0.0551 -0.1835
 3582W        W23862  14.462   2.032  12.443  0.0939  0.0807  0.0080
 3583W        W23863   0.280   7.852  13.519 -0.2597  0.0885 -0.1123
 3584W        W23864   3.719   1.523   2.537 -0.2694 -0.0245  0.2991
 3585W        W23865  17.399  17.242   4.254  0.1062  0.0577  0.0034
 3586W        W23866  17.816   7.349   1.648  0.1926 -0.1893  0.3129
 3587W        W23867   3.784  14.448  12.112  0.0752 -0.4033 -0.0729
 3588W        W23868   3.735  17.966  12.823 -0.3524 -0.0181  0.0431
 3589W        W23869   6.378   0.547   3.629 -0.1325  0.2731  0.0280
 3590W        W23870  11.935   9.911  12.103 -0.0841  0.0381 -0.0793
 3591W        W23871  17.401   3.575  13.382 -0.0671  0.3029  0.1197
 3592W        W23872  15.851   8.876  12.029 -0.1672  0.1455  0.0340
 3593W        W23873   3.800   0.380   1.075 -0.1650  0.2224  0.0496
 3594W        W23874  16.528  14.062  13.458  0.4953 -0.1118 -0.0673
 3595W        W23875  13.842  10.343  16.161  0.3477  0.1673  0.2160
 3596W        W23876  11.523   1.098  16.102 -0.3797 -0.0684  0.0149
 3597W        W23877  16.046   3.445   1.833  0.1054 -0.1140  0.1969
 3598W        W23878  13.359   3.222   2.471  0.2004  0.1320  0.2248
 3599W        W23879  12.348   5.417  12.069 -0.2019  0.0499 -0.5393
 3600W        W23880  10.090   5.043   0.251  0.0232 -0.0804 -0.4893
 3601W        W23881  10.436   7.818  12.656 -0.1501  0.0006 -0.2251
 3602W        W23882   5.167  16.160  14.166 -0.1264 -0.0380  0.2111
 3603W        W23883  11.311   8.764   1.833  0.1492  0.3084  0.0792
 3604W        W23884  13.090   5.861   3.995  0.2441  0.1028 -0.1264
 3605W        W23885  11.745  12.568   2.927 -0.0398  0.0105 -0.0252
 3606W        W23886   6.815   1.068  16.626 -0.1254  0.2710  0.0993
 3607W        W23887   5.160   6.189  15.722  0.2391 -0.1628  0.5904
 3608W        W23888   3.491   9.822  12.615  0.0660 -0.2351 -0.3629
 3609W        W23889  16.927   2.458   3.219 -0.0656  0.0454 -0.0116
 3610W        W23890  10.218   9.940   3.254 -0.1223 -0.0510  0.2153
 3611W        W23891   8.340   0.589   1.372  0.0034  0.0906 -0.1181
 3612W        W23892   9.937  15.232  15.635  0.1698 -0.2045  0.0761
 3613W        W23893  11.147  14.903  16.310  0.0674 -0.4416  0.0992
 3614W        W23894  15.942  14.908  14.956  0.1518 -0.2293  0.1363
 3615W        W23895  10.720   6.560  15.703  0.0067  0.0706  0.0264
 3616W        W23896  12.292   3.793  15.422  0.1293 -0.3083 -0.3868
 3617W        W23897   8.178   1.830  15.266  0.1018 -0.0804  0.0063
 3618W        W23898   4.880  15.941   4.818 -0.0239 -0.1651 -0.2768
 3619W        W23899  12.462   0.348  16.411  0.0656 -0.1563 -0.3128
 3620W        W23900  13.419   3.806  14.610  0.2292 -0.0562 -0.2256
 3621W        W23901  16.980  15.898  12.576  0.1557 -0.0148 -0.1008
 3622W        W23902   2.052  14.734   0.368 -0.1025  0.1391 -0.1309
 3623W        W23903   9.890   9.014  15.995 -0.1535 -0.0769 -0.1065
 3624W        W23904  10.635  17.915   2.057 -0.1299  0.1640  0.3309
 3625W        W23905  10.922   4.972  13.277  0.0094 -0.0486 -0.0527
 3626W        W23906   4.587  15.062  12.221  0.6296  0.0204  0.1443
 3627W        W23907  13.801  17.588  15.591 -0.3285  0.2213  0.0003
 3628W        W23908   5.438  11.297   4.235 -0.4552  0.0266  0.1141
 3629W        W23909  15.372  13.063  15.611 -0.0821  0.0402  0.3423
 3630W        W23910   6.727   2.127   0.467  0.2210 -0.0344 -0.0006
 3631W        W23911   5.600   5.249  14.882 -0.1236  0.1306 -0.1050
 3632W        W23912   6.421  14.427  13.878  0.1018 -0.3347  0.0527
 3633W        W23913   1.385   1.121  14.174 -0.1232  0.3660  0.1531
 3634W        W23914   8.529  16.785   4.420  0.1944 -0.4121 -0.3479
 3635W        W23915  14.883  17.078   0.041  0.0748  0.1950  0.2968
 3636W        W23916  13.831   3.816   2.817 -0.3594 -0.0545 -0.1132
 3637W        W23917  16.073  17.205  13.504 -0.0027  0.1394 -0.1264
 3638W        W23918  14.116   4.979  12.027 -0.0250 -0.1563 -0.1030
 3639W        W23919   0.607  13.453   3.743 -0.3157 -0.1154  0.3797
 3640W        W23920  12.397  12.672   1.205 -0.1565 -0.0923 -0.3699
 3641W        W23921  17.083   4.122   3.924 -0.1078 -0.1133  0.1217
 3642W        W23922   9.502  15.540  14.442  0.0797 -0.3068 -0.0227
 3643W        W23923  10.768  16.553  14.799 -0.4220 -0.0659  0.0211
 3644W        W23924   6.755   5.095   2.006 -0.2331 -0.0474  0.2536
 3645W        W23925   9.862   5.639   3.424 -0.1985  0.0746  0.1098
 3646W        W23926   5.447   6.398  16.506 -0.0655 -0.1443  0.1213
 3647W        W23927  17.325  16.582   1.849 -0.1675  0.1777  0.0374
 3648W        W23928   6.753  16.524  16.470  0.2121  0.4303 -0.0251
 3649W        W23929   7.474  14.336   0.170  0.0236  0.3011  0.5113
 3650W        W23930   2.729  15.809   3.399 -0.1242 -0.0076 -0.3277
 3651W        W23931   9.472  17.533   2.450  0.0912 -0.2399 -0.1936
 3652W        W23932  17.923  13.721   1.713  0.3431  0.5608 -0.3125
 3653W        W23933  14.341   7.394   3.053  0.0993  0.1008  0.3815
 3654W        W23934   9.370  15.613  13.896 -0.1516 -0.2152 -0.1876
 3655W        W23935   7.776   1.045  14.597  0.3883 -0.0706  0.5413
 3656W        W23936   3.554  12.688   3.704 -0.2708  0.0817 -0.2310
 3657W        W23937   6.436   6.378   2.338 -0.0984  0.0645 -0.0898
 3658W        W23938  10.564   0.401   4.063  0.1642 -0.2501  0.2136
 3659W        W23939   3.232   2.841  15.102 -0.0059  0.0039  0.3948
 3660W        W23940  17.639   5.635  16.679 -0.1233 -0.1395 -0.1448
 3661W        W23941  14.763  17.545  16.518 -0.1504 -0.0442 -0.3730
 3662W        W23942  16.997   7.547   0.978 -0.0463 -0.2835 -0.1672
 3663W        W23943   2.098   5.490   1.145  0.0488  0.2721  0.1886
 3664W        W23944   3.947   8.206   1.686 -0.0131 -0.0998  0.2954
 3665W        W23945   3.350   7.023   3.458  0.1556  0.5620  0.1056
 3666W        W23946  11.747   3.956  14.739 -0.0354  0.0084  0.1593
 3667W        W23947  13.009   9.627   0.738 -0.0166  0.1693 -0.0829
 3668W        W23948  13.681   3.988   3.510 -0.1137  0.2317 -0.2859
 3669W        W23949  12.219   3.934   3.682  0.2023  0.0907  0.2344
 3670W        W23950   7.462   1.741  13.241 -0.0724 -0.2556  0.0151
 3671W        W23951   0.709  14.568   0.678  0.0204 -0.1318  0.1006
 3672W        W23952   2.637   1.633  15.340 -0.0350  0.2489  0.1182
 3673W        W23953   3.468  12.405   0.300  0.0592  0.1528  0.1098
 3674W        W23954   4.834  12.642   2.616 -0.1153  0.2323 -0.0292
 3675W        W23955   8.125   5.863  15.672 -0.0477  0.2956 -0.2759
 3676W        W23956   3.560  12.262   4.653  0.0671 -0.0509  0.0856
 3677W        W23957   9.049   6.113  13.577  0.0046  0.2087 -0.1404
 3678W        W23958  12.328   0.120   1.472 -0.1746 -0.2066  0.2140
 3679W        W23959   6.762  17.743   0.540 -0.1665  0.1690 -0.0776
 3680W        W23960   8.212  10.059   0.640 -0.0136 -0.1152 -0.1127
 3681W        W23961   8.712   9.725   2.766  0.0171  0.2617  0.0609
 3682W        W23962  11.344   4.707  14.686 -0.2593 -0.0898 -0.0147
 3683W        W23963   6.122   1.428  14.549 -0.1360  0.1728  0.0894
 3684W        W23964   0.561  17.941  12.659  0.2449 -0.1258 -0.1283
 3685W        W23965  10.379   5.155  15.598  0.0904 -0.0182 -0.2005
 3686W        W23966   3.611   5.049   0.112 -0.2528 -0.1998  0.0898
 3687W        W23967  13.245   8.760  12.676  0.1864 -0.3246  0.0946
 3688W        W23968   3.822   9.665  14.516 -0.0526 -0.3096 -0.1522
 3689W        W23969  16.458  12.772   2.124  0.1691  0.1216  0.0103
 3690W        W23970   6.891   8.423  16.072 -0.0529  0.0303 -0.2391
 3691W        W23971   6.279  15.345  15.611 -0.0310  0.1698 -0.1469
 3692W        W23972   5.208  10.519   5.253  0.2081  0.3044 -0.2324
 3693W        W23973   1.464   0.439   1.614 -0.2086 -0.1453 -0.1453
 3694W        W23974   9.201  12.376  16.237  0.1297  0.1965 -0.1320
 3695W        W23975   5.845  14.491   1.467 -0.1669  0.4034  0.2053
 3696W        W23976  14.328  12.389   3.065  0.0470  0.3637  0.2650
 3697W        W23977   9.354   2.527  15.572 -0.2402 -0.0309 -0.0212
 3698W        W23978   7.284  15.301  16.563  0.1846 -0.1818 -0.0627
 3699W        W23979  14.902   5.870  11.393  0.0906  0.0794  0.1030
 3700W        W23980   1.198   2.091   4.030 -0.0127 -0.0648  0.1295
 3701W        W23981   9.139   4.200  11.716 -0.1047 -0.1176 -0.1311
 3702W        W23982  13.085   0.699   3.598  0.1061  0.0652  0.1213
 3703W        W23983   2.560  15.109   4.282 -0.0798 -0.0948 -0.0218
 3704W        W23984   3.759  15.915   1.012  0.1511 -0.0987  0.2787
 3705W        W23985   8.507  14.997   3.550 -0.1476  0.1781  0.0963
 3706W        W23986  11.092   8.751   3.707  0.2766 -0.0165 -0.1745
 3707W        W23987   9.201  13.506  12.678 -0.2506  0.1049 -0.1658
 3708W        W23988   5.685  13.353   3.935  0.1465  0.0516 -0.2006
 3709W        W23989  12.717   1.262  14.134 -0.0786 -0.0603 -0.0926
 3710W        W23990   7.634   4.746  13.322 -0.1190  0.1744  0.2333
 3711W        W23991   6.844  17.670   2.310 -0.0898  0.0138 -0.2902
 3712W        W23992  13.037   5.093  13.406  0.0058 -0.2997 -0.1069
 3713W        W23993   5.780   6.552   1.125 -0.0747 -0.0157 -0.0030
 3714W        W23994   0.323  14.286   2.044  0.0414  0.0290  0.0790
 3715W        W23995  10.747  15.892  13.512 -0.0057  0.1102 -0.3998
 3716W        W23996   9.732  12.566   4.996 -0.1307  0.2181  0.1919
 3717W        W23997   0.634   2.883   2.309  0.2119 -0.0104  0.2149
 3718W        W23998  11.445   0.833   2.709 -0.0700  0.1022 -0.0115
 3719W        W23999  14.112   7.920   0.023  0.1032  0.2808 -0.0160
 3720W        W24000  13.385   8.091   2.557  0.0526 -0.0278 -0.1577
 3721W        W24001   4.037  11.396  15.983 -0.0997  0.0155  0.4990
 3722W        W24002  17.587   7.140  12.134 -0.1917  0.2876  0.1551
 3723W        W24003   3.594   3.152   1.956  0.2105 -0.1914 -0.1068
 3724W        W24004  15.012   7.745  15.278 -0.0874 -0.1873  0.1639
 3725W        W24005  17.503   1.441  13.025  0.0369 -0.0653  0.1006
 3726W        W24006  12.804  13.167  15.612 -0.1792 -0.0214  0.0284
 3727W        W24007   8.990   1.469   0.419 -0.2103  0.0974  0.2972
 3728W        W24008  12.482   8.630   1.011 -0.3145  0.1057 -0.4636
 3729W        W24009  11.036   7.472   3.486 -0.2226  0.3469 -0.1727
 3730W        W24010  16.293   3.172  14.283  0.0726 -0.0891  0.1767
 3731W        W24011  15.686  15.806  12.912  0.0167 -0.0048  0.1611
 3732W        W24012  14.752   4.976  13.455 -0.1412 -0.0144  0.0977
 3733W        W24013   0.772   9.300  16.612 -0.0263 -0.2732 -0.0405
 3734W        W24014  13.297   3.420   0.245 -0.1498 -0.0511 -0.2941
 3735W        W24015   6.599  11.315   2.324 -0.2275  0.2167  0.0583
 3736W        W24016  12.765   6.215  14.179  0.2294  0.0153 -0.0557
 3737W        W24017  16.771  11.953  13.710  0.1670  0.2605 -0.1080
 3738W        W24018   2.642   8.771   4.392  0.0328 -0.1674  0.0246
 3739W        W24019  14.965   6.434  13.124  0.2818 -0.1998  0.0346
 3740W        W24020   1.689   4.277  14.845  0.3226 -0.0506 -0.1957
 3741W        W24021   7.631  11.672   4.097  0.0943  0.0489  0.1859
 3742W        W24022   0.047   3.501   2.741  0.1179  0.0669 -0.4837
 3743W        W24023  15.368   1.291  14.889 -0.1564 -0.1444  0.2722
 3744W        W24024  15.155   6.216  12.316 -0.4103  0.3041 -0.3092
 3745W        W24025  13.603   7.921  16.117 -0.1425 -0.1081  0.1487
 3746W        W24026  15.684  12.986   2.062  0.0885  0.0018  0.1092
 3747W        W24027   7.847  16.799   3.446  0.0276  0.2533 -0.1838
 3748W        W24028   0.421   2.494  12.481 -0.2877  0.0346 -0.1382
 3749W        W24029   6.584   5.102  14.432 -0.4333 -0.3628 -0.0308
 3750W        W24030   7.874  14.863  14.630  0.1520 -0.2106 -0.1518
 3751W        W24031  12.248   2.250  12.892  0.3545 -0.1300  0.2323
 3752W        W24032   1.215   9.936  13.347  0.3201  0.0816  0.0066
 3753W        W24033  16.328  15.123  15.814 -0.2652 -0.4098 -0.0464
 3754W        W24034   6.763   8.816  14.317 -0.4068 -0.3357 -0.2521
 3755W        W24035  11.379   5.472  12.037 -0.1335  0.1852  0.0194
 3756W        W24036   2.702  14.088   0.030  0.0978  0.1377 -0.0475
 3757W        W24037   1.465   7.954   1.110  0.2079 -0.0568 -0.0012
 3758W        W24038  12.128   0.379  13.389 -0.2579 -0.2617  0.0743
 3759W        W24039   0.459   5.798   0.408 -0.2883  0.1544 -0.0418
 3760W        W24040  10.350  17.344   1.109  0.0020  0.2126 -0.2865
 3761W        W24041   5.741   3.632   2.073 -0.2634  0.2482  0.2442
 3762W        W24042  15.258  10.600  13.187 -0.2239  0.1627  0.0705
 3763W        W24043   5.086   6.306   2.956 -0.0443 -0.0822  0.0161
 3764W        W24044   9.629   6.934   3.532  0.2205  0.1675  0.1604
 3765W        W24045  16.757   4.858  15.743 -0.3151  0.2694 -0.2991
 3766W        W24046   7.151   6.277   2.611  0.1671  0.0006  0.0458
 3767W        W24047   0.654  10.943  14.510 -0.2515  0.1957 -0.2517
 3768W        W24048   6.254  15.305  14.170 -0.0024  0.0753 -0.0776
 3769W        W24049  14.864  10.651  13.635  0.1087 -0.0821  0.0953
 3770W        W24050   8.962   2.510  14.868  0.0833 -0.0749 -0.3305
 3771W        W24051  15.196  10.539   5.096  0.0398  0.2302 -0.3022
 3772W        W24052   9.157   4.353  15.625  0.5792  0.0490 -0.2787
 3773W        W24053  15.097  12.655  13.418  0.1023 -0.0496 -0.4074
 3774W        W24054  15.415   2.953  14.796 -0.0716 -0.3179 -0.3792
 3775W        W24055   8.621   3.183   3.681 -0.3208 -0.0935  0.0088
 3776W        W24056  17.842  12.777  15.064 -0.2797  0.0505  0.2805
 3777W        W24057  15.280   2.760   4.156  0.2046  0.1154  0.3842
 3778W        W24058  16.849  13.080  13.462  0.1631 -0.1118 -0.1709
 3779W        W24059  10.880   2.651   3.212  0.0428  0.1340 -0.1125
 3780W        W24060   7.463   7.608   3.284 -0.1260 -0.3273 -0.0973
 3781W        W24061   3.953   7.596   3.698 -0.3211 -0.0044 -0.4161
 3782W        W24062  11.104   6.039  14.178 -0.1460 -0.0899  0.0916
 3783W        W24063  15.942  16.041   1.762 -0.3240  0.2438  0.4224
 3784W        W24064  14.526   8.867   0.181 -0.0866 -0.1284  0.3203
 3785W        W24065   8.804   5.565  12.145 -0.1290 -0.2530  0.1508
 3786W        W24066   6.897  13.531  13.137  0.1440 -0.1129  0.1994
 3787W        W24067   9.213   1.828  11.414 -0.1571  0.0685 -0.0579
 3788W        W24068  10.829   1.721   1.765  0.2701  0.2116 -0.0341
 3789W        W24069  10.407   6.383   3.275 -0.0491 -0.0864 -0.0562
 3790W        W24070   4.815   6.931  13.543 -0.0032 -0.2728  0.0277
 3791W        W24071  10.724   9.017  14.701  0.2579  0.1269 -0.2947
 3792W        W24072  12.083   9.434   2.382  0.3745  0.1976  0.2242
 3793W        W24073  17.460   8.096  15.776  0.1564 -0.0188 -0.0959
 3794W        W24074  12.202  17.109  13.876 -0.1600 -0.0283  0.0432
 3795W        W24075   8.217  14.021   2.379  0.0043 -0.3788 -0.0951
 3796W        W24076  11.228   8.030   1.494 -0.0383 -0.2192  0.0951
 3797W        W24077   3.415  10.297   1.766 -0.1531  0.1179  0.2791
 3798W        W24078   5.607  15.320  12.119  0.0928  0.2378  0.2524
 3799W        W24079  13.432   1.863  15.946 -0.1342 -0.0481 -0.1020
 3800W        W24080   3.552  17.168   0.383  0.1150 -0.0489  0.0987
 3801W        W24081   0.466   5.474   4.664  0.2448  0.5014 -0.0460
 3802W        W24082  13.694   9.889   4.718 -0.1080  0.2095  0.1594
 3803W        W24083   7.125  15.138  13.460 -0.3099  0.2211 -0.1635
 3804W        W24084   9.890   6.043  12.237  0.1950  0.1571 -0.3161
 3805W        W24085   1.850   4.003  13.172 -0.0459  0.0054  0.4372
 3806W        W24086  14.490  13.716  16.355 -0.4130  0.2382  0.0632
 3807W        W24087   2.187   1.657  13.995  0.5101  0.1329 -0.0697
 3808W        W24088   1.565   3.080  16.356 -0.1606  0.4265 -0.2313
 3809W        W24089  10.955   4.141   4.964 -0.0407  0.1184 -0.1918
 3810W        W24090  15.532   1.245  12.762  0.4023  0.1710 -0.0024
 3811W        W24091   7.246  14.968  15.902 -0.2962 -0.0606 -0.1830
 3812W        W24092   7.176   7.755   1.376 -0.0244 -0.2041 -0.3260
 3813W        W24093   6.779   7.723   1.084  0.0634  0.1810  0.0733
 3814W        W24094   5.490   3.015   3.542  0.2255  0.2275  0.3833
 3815W        W24095   0.115   0.605   3.120  0.2044 -0.0422 -0.1650
 3816W        W24096  17.785   5.142  15.973  0.0117 -0.1499  0.0828
 3817W        W24097   1.190  13.204   4.760  0.1479 -0.2156  0.3367
 3818W        W24098  13.908  16.697  14.374  0.1282  0.0805 -0.0339
 3819W        W24099  11.732   2.540   4.478 -0.0044 -0.0188 -0.0428
 3820W        W24100   3.454  10.862  14.293  0.0367 -0.1167 -0.1926
 3821W        W24101   3.610  10.610   0.966 -0.0128 -0.1465 -0.0091
 3822W        W24102   3.470  15.061  16.263 -0.2215 -0.1454 -0.1468
 3823W        W24103  14.532   1.431   4.451 -0.0504  0.2330  0.3374
 3824W        W24104   0.191  10.771   5.063  0.1022  0.2829  0.0454
 3825W        W24105   8.520   5.785  16.216 -0.1183  0.0966  0.1080
 3826W        W24106  17.638   2.885   0.433  0.1597  0.2083 -0.1690
 3827W        W24107  13.552   2.356  14.328 -0.2167  0.0448 -0.2583
 3828W        W24108  12.599   4.231  15.487 -0.1198 -0.0817  0.2521
 3829W        W24109   4.081  12.116   0.917  0.2105  0.0790 -0.0137
 3830W        W24110  12.808   0.464   4.581 -0.1442 -0.1221  0.1971
 3831W        W24111   4.091  17.668  12.545  0.1430 -0.0641 -0.1162
 3832W        W24112   4.900   6.997   5.037  0.2221 -0.0123 -0.4563
 3833W        W24113   3.467   2.502  16.656  0.0280  0.1295 -0.0707
 3834W        W24114   5.861   8.479  16.087 -0.1592  0.1577 -0.1287
 3835W        W24115  11.809  13.725   4.548  0.1663 -0.2551 -0.0075
 3836W        W24116  16.363   7.757  12.681 -0.1485 -0.0861  0.0423
 3837W        W24117  11.241   4.874  15.220  0.0237  0.1580 -0.0522
 3838W        W24118  17.410  14.293   0.996 -0.1792  0.3910  0.3288
 3839W        W24119  10.951   2.727   2.666  0.0657  0.0922 -0.0546
 3840W        W24120   2.987  14.671   0.781 -0.2111  0.0011 -0.1502
 3841W        W24121   5.000  16.923   2.666 -0.0868  0.1000 -0.2741
 3842W        W24122  16.292   3.006   0.632 -0.1108  0.1062 -0.0700
 3843W        W24123  12.802  15.465  14.028 -0.0780 -0.1371 -0.2670
 3844W        W24124   8.159   3.701   1.941 -0.0991 -0.0365 -0.5650
 3845W        W24125  10.081   8.917  16.465 -0.1544  0.3144 -0.0039
 3846W        W24126   1.459  14.847   1.331  0.0241  0.0636 -0.2788
 3847W        W24127   1.176   6.333   0.361  0.2458  0.0344 -0.0592
 3848W        W24128  17.027   4.353   3.105 -0.0773  0.0101  0.1405
 3849W        W24129   8.696   0.107  13.041  0.0490  0.2289  0.1223
 3850W        W24130  15.491   2.114  12.489  0.0092  0.3017 -0.2677
 3851W        W24131  14.750  10.418   1.864  0.1513 -0.2095  0.0732
 3852W        W24132  16.500  17.511  16.672 -0.1807  0.1499  0.3054
 3853W        W24133   5.477   9.544   2.714 -0.0716 -0.1657  0.3480
 3854W        W24134  14.396   7.770  14.459 -0.2915  0.1950 -0.2375
 3855W        W24135   7.062  13.522   4.721  0.0684  0.0055  0.3730
 3856W        W24136  11.107   9.291  14.957  0.1578  0.2924 -0.1460
 3857W        W24137  16.638   2.880   2.219  0.2301  0.1871  0.1035
 3858W        W24138   9.429   1.547  15.532  0.1726 -0.1752 -0.1531
 3859W        W24139   7.925  13.197  11.864  0.0091 -0.3330  0.0291
 3860W        W24140   0.971   3.567  14.489  0.1529 -0.3488 -0.0368
 3861W        W24141   9.449   7.747  16.215 -0.0495  0.0151 -0.2233
 3862W        W24142  12.568   5.955  15.017  0.3054 -0.1477 -0.0454
 3863W        W24143   8.597  15.674  16.229 -0.1301  0.0291 -0.4338
 3864W        W24144  17.929  16.391   2.678 -0.0631  0.0159  0.0914
 3865W        W24145  15.054   5.218   3.453 -0.1887 -0.0419 -0.1130
 3866W        W24146  12.480  10.389  13.518 -0.1550  0.2805  0.1125
 3867W        W24147   0.999  13.897  14.776 -0.0934 -0.1752 -0.2452
 3868W        W24148   3.010  11.495  15.139  0.1838  0.1538 -0.1174
 3869W        W24149  11.648   1.714   4.661  0.0345  0.0259 -0.0773
 3870W        W24150   9.011   8.708  11.885 -0.1510  0.1557 -0.1654
 3871W        W24151   2.866  14.992  13.971 -0.0949 -0.2034  0.0222
 3872W        W24152  13.596   4.911   1.463 -0.0778 -0.1805  0.0059
 3873W        W24153   5.329  13.466   0.323  0.1258  0.0611  0.1203
 3874W        W24154  17.025   8.928  13.218  0.3272 -0.2057  0.2302
 3875W        W24155  12.389   7.601   0.015  0.0406  0.2165 -0.2667
 3876W        W24156  16.659  15.124  13.727  0.1023  0.0963  0.0839
 3877W        W24157   5.834   1.794  12.372 -0.1150  0.1568  0.0535
 3878W        W24158   1.288  10.882   2.290 -0.3177  0.0658  0.2684
 3879W        W24159  10.257  15.244   1.585 -0.2482 -0.0479  0.0178
 3880W        W24160   7.522   7.033   0.820  0.2063  0.1538 -0.0129
 3881W        W24161  16.840   4.395   2.541  0.2900  0.0399 -0.0220
 3882W        W24162   0.447   5.215   0.395  0.3626  0.0546  0.0509
 3883W        W24163   4.425   0.405   4.263  0.0872  0.2516  0.0546
 3884W        W24164   0.575   4.130  12.952 -0.2704  0.0744  0.1627
 3885W        W24165   7.205  12.366  16.471  0.0885 -0.0631 -0.2514
 3886W        W24166   2.840  10.509  12.377 -0.0630  0.0416  0.0441
 3887W        W24167   6.016  12.260   2.883  0.1427 -0.1423 -0.0965
 3888W        W24168  11.349   2.478   2.988  0.0883  0.0541  0.1192
 3889W        W24169   0.878  16.991  14.011 -0.2797  0.1725  0.2498
 3890W        W24170   6.600  15.625   0.733  0.0717  0.4258 -0.3507
 3891W        W24171  15.644  11.528   2.399  0.2670 -0.2325  0.0878
 3892W        W24172  13.840  16.458   4.141  0.2549 -0.0590 -0.2172
 3893W        W24173   5.673  15.484   0.924  0.0377  0.0897  0.0008
 3894W        W24174   2.836  16.966  12.666 -0.0826  0.1108  0.0273
 3895W        W24175  11.545   9.306  12.510  0.3092 -0.0371  0.1428
 3896W        W24176  16.536  10.672  15.232  0.0264 -0.2899 -0.0951
 3897W        W24177   2.631   3.850  11.351 -0.0219 -0.1340  0.0058
 3898W        W24178   0.522   7.880   4.876 -0.2178  0.2049  0.3149
 3899W        W24179   8.708   8.620   1.777  0.1763  0.1368 -0.2616
 3900W        W24180  13.561   6.155   2.871 -0.3909 -0.0806 -0.2040
 3901W        W24181  10.760   5.169   4.619 -0.2375 -0.2206  0.1627
 3902W        W24182   2.018  13.084   5.112  0.2545  0.0027  0.2495
 3903W        W24183   8.284  15.561   0.821  0.2660 -0.0069 -0.1816
 3904W        W24184   7.445  15.140  14.666  0.2378  0.0130 -0.0063
 3905W        W24185   4.442   1.141   0.813  0.1565 -0.1013 -0.0855
 3906W        W24186  12.803  15.696  13.492 -0.1297 -0.2379 -0.1492
 3907W        W24187   0.859   9.617  13.298 -0.2270 -0.2035  0.0449
 3908W        W24188   7.989   0.087  14.520  0.1356 -0.2286 -0.0771
 3909W        W24189   6.716   5.524  13.338 -0.1669 -0.0957  0.2460
 3910W        W24190  17.041  11.813  16.546 -0.0298  0.3798  0.0484
 3911W        W24191   4.920  12.348  16.207  0.1710 -0.0210 -0.1233
 3912W        W24192   6.344   5.999   2.593  0.0912  0.1495  0.1107
 3913W        W24193  13.349   2.155  16.358 -0.0833  0.3803 -0.0249
 3914W        W24194   7.613   7.307  13.430 -0.2680 -0.2176  0.1993
 3915W        W24195  16.987  17.285   2.350  0.0002  0.0048 -0.1400
 3916W        W24196   5.113  15.738   0.248 -0.0312 -0.0486  0.1240
 3917W        W24197  13.415   0.547   1.852 -0.1831 -0.1143 -0.1019
 3918W        W24198   1.953   9.216   1.213 -0.0737 -0.1538  0.1097
 3919W        W24199  17.021  11.511   0.840 -0.1951 -0.0063  0.1699
 3920W        W24200   5.239   6.783  13.771  0.2203  0.0328  0.1634
 3921W        W24201   7.018  16.520  14.867  0.0199 -0.0930 -0.2303
 3922W        W24202   4.825   3.704   2.557 -0.1362  0.0350  0.0395
 3923W        W24203   0.950   6.063  14.373  0.1996 -0.0081 -0.0218
 3924W        W24204   5.451   4.176  16.312  0.0065 -0.1463 -0.0788
 3925W        W24205  13.223   5.276  12.439 -0.1373  0.3834  0.0299
 3926W        W24206  10.114   2.926  14.459 -0.1196 -0.2030  0.5121
 3927W        W24207  12.283  10.424  15.374  0.1514 -0.0268  0.0845
 3928W        W24208  11.169  11.805  13.807 -0.4524  0.0097 -0.1011
 3929W        W24209   0.090   2.044   4.619  0.0381 -0.0054  0.1988
 3930W        W24210   0.679   0.911   3.031 -0.1591  0.1652 -0.2417
 3931W        W24211  12.032  12.354   0.413 -0.1240  0.0251 -0.1840
 3932W        W24212  17.119  11.319   2.945 -0.0971 -0.0863  0.1568
 3933W        W24213  14.429   3.250  14.933  0.0886 -0.1427  0.0397
 3934W        W24214   0.888  16.106   3.658 -0.1386 -0.2217  0.0146
 3935W        W24215   3.214   4.239   2.843 -0.0849 -0.1164  0.2446
 3936W        W24216  17.856  12.715   2.768 -0.1361 -0.0136 -0.1185
 3937W        W24217   7.992   8.668   2.367  0.3433  0.1841  0.1043
 3938W        W24218   9.877   0.708   3.416 -0.0957  0.0870 -0.2144
 3939W        W24219  10.281  12.883   0.021 -0.0738 -0.1949 -0.0569
 3940W        W24220  17.268  11.934  12.843  0.1118  0.1528 -0.0605
 3941W        W24221   7.805  10.042   2.397 -0.0482  0.1313 -0.0090
 3942W        W24222  12.740  11.336   1.269 -0.0394  0.0950 -0.0308
 3943W        W24223   7.170  10.759   4.414  0.2870  0.0019  0.0902
 3944W        W24224  12.349   9.937   2.212 -0.0404  0.1710  0.1370
 3945W        W24225  12.144   2.570   0.226 -0.2213 -0.0682 -0.0355
 3946W        W24226   6.548  17.293  15.321  0.4587  0.3047 -0.1992
 3947W        W24227   2.765   0.443   4.378  0.2692  0.0334 -0.0084
 3948W        W24228   4.040  13.207   2.403 -0.1024 -0.0609 -0.3638
 3949W        W24229   8.060   8.762   4.123  0.1034 -0.0422  0.1083
 3950W        W24230  16.200   8.317  12.378  0.3248  0.1544 -0.2731
 3951W        W24231  14.178   0.246   0.225 -0.0688 -0.1908 -0.1745
 3952W        W24232   9.897   6.710   3.081  0.2849 -0.0501 -0.2322
 3953W        W24233   9.824   2.789   1.044  0.0318 -0.0221 -0.2449
 3954W        W24234   3.415   9.316  12.530  0.2857  0.0072 -0.1906
 3955W        W24235  13.399  12.533   4.234  0.0326  0.1719 -0.1091
 3956W        W24236  16.035  15.815  13.802  0.0447  0.1716  0.2173
 3957W        W24237   2.266  13.270  12.983  0.0218 -0.0448 -0.1162
 3958W        W24238   0.896   6.057  15.821 -0.3694  0.0621  0.0257
 3959W        W24239   8.766  11.901  16.482  0.1570  0.0570  0.0415
 3960W        W24240   4.093   2.346  14.775 -0.1547  0.2625  0.1742
 3961W        W24241  17.128   7.980  14.922  0.1152 -0.2004  0.2941
 3962W        W24242  12.622  15.094  16.451  0.1628  0.0466  0.0820
 3963W        W24243   5.816  15.043  13.783 -0.0924 -0.1134 -0.0804
 3964W        W24244  11.445   0.557   1.810 -0.0795  0.2925 -0.1738
 3965W        W24245   7.591  11.493  12.484 -0.1867 -0.0497  0.0828
 3966W        W24246  13.006  10.911   0.538  0.0374  0.0310  0.3893
 3967W        W24247  16.151  15.308  13.757 -0.1413 -0.1978 -0.2071
 3968W        W24248   9.212   6.007   0.091 -0.2585 -0.0256 -0.0132
 3969W        W24249  15.208   4.861   4.351  0.2144  0.1479  0.0010
 3970W        W24250  17.205   9.478  15.953  0.2129  0.1015 -0.1338
 3971W        W24251   6.900  15.775  14.760  0.3444  0.6013  0.2245
 3972W        W24252  11.269  17.487   3.934 -0.3233  0.0027 -0.4232
 3973W        W24253   9.152   1.454  15.055 -0.4514  0.0122  0.2079
 3974W        W24254  12.886   9.781   1.931 -0.0933 -0.0368  0.0641
 3975W        W24255   9.813  10.587  14.639  0.1398  0.1199 -0.1023
 3976W        W24256  13.871   1.251   1.879 -0.0784  0.1813  0.0264
 3977W        W24257   3.306  11.180   0.232 -0.3671 -0.0405 -0.1896
 3978W        W24258  14.115   4.306   3.829 -0.0734 -0.1320 -0.0997
 3979W        W24259  15.415   3.228   1.416  0.0529  0.1952 -0.0685
 3980W        W24260  11.377   9.535  14.587  0.0328 -0.0938 -0.1472
 3981W        W24261   0.625  14.280   4.054 -0.0175  0.1168  0.1770
 3982W        W24262   9.759  11.865  16.555  0.2046 -0.2237 -0.2262
 3983W        W24263  15.737  17.960   3.986 -0.0552  0.1280 -0.1313
 3984W        W24264   8.434   2.300  11.143  0.3427  0.2293 -0.1530
 3985W        W24265   4.073  16.766   2.043  0.0657  0.1511 -0.1848
 3986W        W24266   0.731   5.608  16.169 -0.0527 -0.1375  0.0110
 3987W        W24267  17.019   1.294   0.118  0.0683  0.2081  0.0597
 3988W        W24268  14.774   7.171   3.137 -0.1079  0.2496  0.0027
 3989W        W24269   2.166  13.340  16.610 -0.0024  0.3971  0.2853
 3990W        W24270   7.590   1.188   0.458  0.0400  0.2817 -0.2447
 3991W        W24271   7.095   5.309   0.273  0.2953  0.0095 -0.0643
 3992W        W24272  14.052  16.965   2.243  0.0448  0.6889  0.2120
 3993W        W24273  12.264   4.416   0.833 -0.1337 -0.2281 -0.1900
 3994W        W24274   8.950  16.245   0.233  0.2061  0.3468  0.1869
 3995W        W24275  11.434   4.740  13.697 -0.1510 -0.0542 -0.0043
 3996W        W24276   4.723   1.561  14.862  0.2837 -0.0247  0.1852
 3997W        W24277  17.867  10.445   3.670  0.1352 -0.1279 -0.0417
 3998W        W24278   3.683  15.974   2.019  0.1326 -0.1776 -0.2111
 3999W        W24279   0.511   3.314   2.101 -0.0033 -0.2937 -0.5052
 4000W        W24280   2.988  12.678   0.064 -0.1408  0.2516 -0.0287
 4001W        W24281  14.741  15.597   1.362 -0.2460 -0.2258  0.1119
 4002W        W24282   1.738   9.760  13.436 -0.1229 -0.2214  0.2594
 4003W        W24283   6.668   2.450   2.327 -0.1282 -0.1485 -0.1370
 4004W        W24284   0.856   2.212   0.462 -0.0871  0.0465 -0.1205
 4005W        W24285   0.425   1.683   4.479  0.4652  0.2514  0.3707
 4006W        W24286   1.266   0.191   4.731 -0.1511  0.2214 -0.2138
 4007W        W24287   5.302   1.717  12.209  0.2303  0.1610 -0.0227
 4008W        W24288   3.974  12.080  15.403  0.1060  0.1121  0.0256
 4009W        W24289  15.584   5.677  15.069 -0.0082 -0.4002 -0.0326
 4010W        W24290  10.731   2.921   4.616 -0.1613  0.3397 -0.0579
 4011W        W24291   5.137  14.683   4.923 -0.0143  0.0076 -0.0902
 4012W        W24292   3.414  16.627  14.106 -0.3484  0.1871  0.1172
 4013W        W24293   9.854   8.670  13.773  0.1273 -0.0899 -0.0473
 4014W        W24294  14.436   0.159  15.971 -0.1022  0.1498  0.2416
 4015W        W24295  17.323   2.402   2.322 -0.1257  0.3706  0.1212
 4016W        W24296   9.811   3.173  15.881  0.0935  0.1469 -0.0880
 4017W        W24297  14.754   0.185   0.948  0.1169  0.0633 -0.2772
 4018W        W24298   4.952   1.144   0.967  0.1247 -0.0729 -0.4319
 4019W        W24299   0.243  14.639   4.255 -0.1728  0.1241  0.1004
 4020W        W24300  12.587   1.312  14.637  0.3235 -0.2064  0.1505
 4021W        W24301   6.641   5.763  12.218  0.1394 -0.2252 -0.0878
 4022W        W24302  14.297  16.370   3.921  0.0871 -0.1886 -0.1021
 4023W        W24303  15.506  11.823   1.107 -0.1287  0.2648 -0.4173
 4024W        W24304  15.139   3.063   3.394 -0.1538 -0.4360  0.1895
 4025W        W24305  10.045  12.784   0.878  0.0238 -0.1424 -0.0014
 4026W        W24306  15.115   5.988   3.603  0.1850  0.1122  0.0290
 4027W        W24307  17.493   5.451  15.770  0.2753  0.1362 -0.3155
 4028W        W24308   5.619  14.016   1.670  0.1299  0.1357  0.0625
 4029W        W24309  17.022   0.076   1.594 -0.0580  0.0171  0.0982
 4030W        W24310   8.015  17.494   4.872  0.2184 -0.0461 -0.1215
 4031W        W24311   0.499  13.058   0.306 -0.1462  0.1704 -0.2189
 4032W        W24312   0.513   4.559   4.415  0.1247 -0.2593  0.2413
 4033W        W24313  17.912   9.186   2.806 -0.0903 -0.1920  0.1134
 4034W        W24314   9.415  14.771   0.978 -0.0503  0.0921  0.2587
 4035W        W24315   6.473   9.596   5.123  0.0282  0.1039 -0.0313
 4036W        W24316  16.452   8.124  14.269 -0.1676  0.4516  0.0427
 4037W        W24317  15.357  16.207  13.233  0.0559 -0.1651 -0.2076
 4038W        W24318  10.079   7.332  15.664 -0.2225 -0.0580  0.3097
 4039W        W24319   4.548   5.702   1.836 -0.0334  0.0913  0.2402
 4040W        W24320  15.876  16.099  16.531  0.1247 -0.1530  0.3515
 4041W        W24321   9.041   0.335  12.720  0.1185  0.1328  0.1566
 4042W        W24322   3.444  10.845   5.179 -0.2388  0.0182  0.0419
 4043W        W24323   2.402   4.483  15.973  0.3307  0.0563  0.1252
 4044W        W24324  16.681   2.480  12.119 -0.1584  0.0189  0.0875
 4045W        W24325   5.365   1.939  12.687  0.2610  0.0942  0.0997
 4046W        W24326   5.790   2.590   3.510 -0.2165  0.0288 -0.2039
 4047W        W24327  13.201  12.974   0.801  0.3005 -0.1665 -0.1860
 4048W        W24328   4.016   0.742  12.200  0.0532  0.2004  0.0532
 4049W        W24329   5.627  13.916  13.113 -0.2004  0.0177 -0.1927
 4050W        W24330   1.414  15.152  14.743  0.1997 -0.5110 -0.1398
 4051W        W24331   9.143  17.565  14.910  0.1596 -0.0637 -0.0745
 4052W        W24332  12.374   5.171  16.637  0.4634  0.1655 -0.1840
 4053W        W24333   5.426  10.510  15.212  0.1488  0.0369  0.1947
 4054W        W24334  11.463   2.750   0.417  0.2689  0.2938  0.2509
 4055W        W24335   5.190  13.982  15.852  0.0255  0.2999  0.1809
 4056W        W24336   5.421   5.751   1.321  0.0112 -0.1190 -0.2291
 4057W        W24337   2.980   3.650   4.099 -0.0761  0.0355 -0.0062
 4058W        W24338   5.991   2.133  13.284  0.1412 -0.1178 -0.1015
 4059W        W24339   3.047  14.273  12.620 -0.0621  0.0612  0.0286
 4060W        W24340   5.066   8.592   5.443 -0.0928 -0.1362  0.0304
 4061W        W24341   5.242  11.701  12.097  0.2040 -0.1986 -0.0739
 4062W        W24342  11.754   2.124   3.536  0.0473 -0.2920 -0.0186
 4063W        W24343  14.963   4.263   1.261  0.2605  0.1818 -0.2325
 4064W        W24344  14.390   6.102   0.121 -0.5560  0.1375  0.0254
 4065W        W24345   9.758   0.617  12.172  0.2531  0.2261  0.1160
 4066W        W24346   6.784  10.060  14.032 -0.4521 -0.0516  0.3116
 4067W        W24347   7.477  12.825  16.576 -0.0185  0.0056 -0.2681
 4068W        W24348   0.528  17.961   2.657 -0.1761 -0.2596  0.3096
 4069W        W24349  11.238   5.274  12.919  0.1700  0.1192  0.2882
 4070W        W24350   0.882   1.322  13.964  0.2153 -0.1263  0.1017
 4071W        W24351   0.282   8.207   3.120  0.2788 -0.2594 -0.1651
 4072W        W24352  10.580   4.512   1.407 -0.4198  0.1863  0.0907
 4073W        W24353  11.373   4.407   0.425 -0.2882  0.1773  0.0777
 4074W        W24354  12.771  12.774  14.355  0.1081 -0.0520  0.2111
 4075W        W24355  10.576   4.020   0.053 -0.1859 -0.2259 -0.0104
 4076W        W24356  11.274  14.110  14.622 -0.0231 -0.0184  0.0256
 4077W        W24357  13.475  12.545  12.199 -0.0669 -0.2008  0.1441
 4078W        W24358   0.669   1.741   0.444  0.0484  0.0416 -0.1330
 4079W        W24359   1.099   0.013   4.032  0.2399 -0.2581  0.2229
 4080W        W24360  10.930  16.327   0.339 -0.4619  0.0614  0.1750
 4081W        W24361   7.643   6.090  14.878  0.0713 -0.1313 -0.1997
 4082W        W24362  17.834   6.069   3.499 -0.1641  0.0478  0.2587
 4083W        W24363   0.779   2.804  14.929  0.2878 -0.0392  0.3868
 4084W        W24364   7.990   0.876   2.586 -0.0659  0.1219  0.1388
 4085W        W24365   7.175   2.696  14.616 -0.0921 -0.2232 -0.0148
 4086W        W24366  17.398   6.336  13.792  0.0301  0.1717 -0.0504
 4087W        W24367  17.498   3.779  15.081 -0.0341  0.3327  0.0082
 4088W        W24368  11.579   5.208   3.942 -0.2727 -0.2404  0.0555
 4089W        W24369   6.898   2.377  12.201 -0.0099 -0.1077 -0.0326
 4090W        W24370  11.074   4.741   2.709 -0.1043  0.1307 -0.2220
 4091W        W24371   8.078   9.830   1.110  0.0425 -0.0206 -0.0165
 4092W        W24372  16.921  17.774   0.153  0.1168  0.1455 -0.0900
 4093W        W24373   6.111  13.852   1.946  0.3346 -0.0759  0.0414
 4094W        W24374   6.234  12.857   1.377 -0.0986 -0.2269  0.0074
 4095W        W24375  13.340   0.505  14.297  0.1203 -0.0226 -0.0466
 4096W        W24376   2.542   7.083  16.635  0.2841 -0.2562 -0.1224
 4097W        W24377   3.932  12.871  12.362  0.2498  0.2648 -0.0908
 4098W        W24378  17.935  16.890  12.508 -0.3694  0.2899 -0.0631
 4099W        W24379   8.303  17.923  13.227  0.1433  0.0988 -0.0884
 4100W        W24380   2.044   6.135   0.415  0.0967 -0.1087  0.3083
 4101W        W24381   5.536   2.743   4.851  0.1837 -0.1217  0.1824
 4102W        W24382   0.798   6.215  13.057 -0.0387  0.0327  0.1111
 4103W        W24383  16.557  13.835   4.722  0.2048 -0.0746  0.1508
 4104W        W24384  12.016  11.977  16.336  0.0425  0.0154 -0.0059
 4105W        W24385   7.225   4.819   1.600 -0.2027 -0.0489 -0.1369
 4106W        W24386   4.772   5.698   4.815  0.0082  0.2335  0.1416
 4107W        W24387  15.702   4.744  14.790 -0.1055  0.1206  0.0104
 4108W        W24388   0.560  17.249   4.595  0.2017  0.0458 -0.2644
 4109W        W24389  13.418   5.657   2.939  0.2436 -0.0931 -0.1788
 4110W        W24390  11.847   2.320  12.471  0.0292 -0.0288 -0.3035
 4111W        W24391   8.952  15.631   4.570  0.2261  0.0812 -0.4346
 4112W        W24392  10.419  13.504  15.587  0.0733  0.2344  0.0040
 4113W        W24393  12.548  13.835  12.449 -0.0802  0.1446 -0.2751
 4114W        W24394  11.962   0.209   3.162 -0.0575 -0.0340 -0.2943
 4115W        W24395   1.513   4.515   0.293  0.1933  0.0879 -0.3884
 4116W        W24396   4.696  14.330  14.663 -0.2964 -0.0907 -0.2223
 4117W        W24397   7.613  15.556   1.541 -0.4640 -0.1570  0.2130
 4118W        W24398  11.772  13.086  13.400 -0.3863 -0.0135 -0.1934
 4119W        W24399   7.974  10.624   4.253  0.0138  0.2307  0.2366
 4120W        W24400   8.279  15.831  12.210 -0.3901  0.3891 -0.2622
 4121W        W24401   6.795   0.044  12.945  0.2587 -0.2804  0.1300
 4122W        W24402   1.411  14.725  12.413  0.2907 -0.0341 -0.1869
 4123W        W24403  13.899  11.911   4.962 -0.1168 -0.0165 -0.0605
 4124W        W24404   9.279  15.136   1.983  0.1460 -0.3415 -0.1182
 4125W        W24405   6.075  14.098   1.511 -0.0576 -0.0095  0.0761
 4126W        W24406  17.667   8.530   3.842 -0.4356 -0.2762 -0.0437
 4127W        W24407   9.479  16.394  14.277  0.0235 -0.1281  0.1969
 4128W        W24408  17.264   9.017   1.390  0.0179 -0.4415  0.0596
 4129W        W24409   0.791   7.158  15.681 -0.2581  0.0687 -0.0676
 4130W        W24410   6.982   7.627  16.425  0.1396  0.1202  0.2344
 4131W        W24411   2.536   0.739  14.789 -0.0393  0.1449 -0.0823
 4132W        W24412   5.878  17.243   2.432  0.0007  0.0598 -0.0789
 4133W        W24413   8.694   2.094  14.496  0.1853  0.2311  0.2864
 4134W        W24414  11.205  12.830   2.314  0.2083 -0.0539 -0.0925
 4135W        W24415  11.713  15.813   4.215 -0.0251  0.3193 -0.0870
 4136W        W24416   1.813  14.049  14.928  0.4256 -0.0082 -0.2634
 4137W        W24417   8.062  11.625   4.445 -0.1325  0.0275  0.0643
 4138W        W24418  14.086  15.530   3.967 -0.3567  0.0848 -0.1572
 4139W        W24419   6.344   0.597  16.056  0.1355  0.1787 -0.1435
 4140W        W24420  14.073  17.057   0.101 -0.0414  0.4509  0.2649
 4141W        W24421  10.253  12.497   3.961  0.2946  0.4142 -0.1318
 4142W        W24422   2.223   9.366  12.709 -0.1220 -0.2418 -0.2268
 4143W        W24423  13.662   4.897   0.126  0.1531 -0.1068  0.2918
 4144W        W24424  14.589   8.832  14.555 -0.1724 -0.4144 -0.0402
 4145W        W24425   1.635  11.772  13.240 -0.0383  0.0800 -0.2087
 4146W        W24426   6.884   1.468  14.339  0.0778 -0.1403 -0.2119
 4147W        W24427  11.853  16.357   0.015 -0.1336  0.1834 -0.1492
 4148W        W24428   5.366  16.614   4.508 -0.0989 -0.0947  0.1141
 4149W        W24429   2.839   9.197  16.454  0.0756 -0.1236 -0.1551
 4150W        W24430   1.476  16.384  14.526  0.1952 -0.0688 -0.1478
 4151W        W24431   8.626  14.085  16.157 -0.1476  0.0244  0.1749
 4152W        W24432   5.796   2.271  15.599 -0.1134  0.0360 -0.1736
 4153W        W24433   0.743   7.735  13.339  0.0641  0.4264 -0.0205
 4154W        W24434  14.408  15.988   1.292  0.1975  0.4368 -0.1311
 4155W        W24435   8.697   1.203  13.932  0.0358 -0.0333  0.0339
 4156W        W24436   6.618  12.870  12.201 -0.1636  0.0563 -0.0108
 4157W        W24437   8.189  12.893  13.059  0.0391  0.0221  0.1584
 4158W        W24438   6.245  13.453  15.672 -0.0873 -0.0248 -0.2886
 4159W        W24439  12.051   9.437  12.329 -0.0852 -0.0471 -0.0666
 4160W        W24440  12.214   1.354  16.398  0.0985  0.0668  0.1562
 4161W        W24441   1.988   5.664   1.800  0.1755  0.3714  0.2844
 4162W        W24442  12.660  14.944  15.427 -0.0646  0.1464 -0.0089
 4163W        W24443   0.380   7.060  14.502  0.0894 -0.2007  0.1770
 4164W        W24444  11.364  12.232   0.502 -0.1563 -0.2354 -0.0667
 4165W        W24445   3.297   6.070  12.765  0.0196 -0.1243  0.2323
 4166W        W24446  16.542   3.986  16.612 -0.0094  0.1485 -0.1429
 4167W        W24447  11.581   6.084  15.947  0.1333  0.2150  0.1913
 4168W        W24448   7.826  15.704   0.643 -0.1158 -0.1591 -0.3874
 4169W        W24449   6.577   5.664  16.290  0.1259 -0.3364  0.1493
 4170W        W24450   4.026   1.999  12.973 -0.0147  0.1633 -0.3006
 4171W        W24451   5.884  17.636  14.282  0.1917 -0.3860 -0.0800
 4172W        W24452   0.310  10.089  13.985  0.3541  0.2043 -0.4399
 4173W        W24453  11.830   3.649  15.815 -0.2550 -0.2513  0.2081
 4174W        W24454   0.269  16.809  13.900 -0.1616  0.0087 -0.0214
 4175W        W24455   5.877  12.075  13.004 -0.1128 -0.3407 -0.1463
 4176W        W24456   7.764  16.444   3.849 -0.2091  0.2555  0.1504
 4177W        W24457   7.804  11.292  13.769 -0.1110  0.1154  0.1718
 4178W        W24458   0.956   7.077  16.675 -0.1437 -0.0298  0.0022
 4179W        W24459   4.056   8.097  15.352 -0.3265 -0.1011  0.1735
 4180W        W24460  11.444  10.730   2.422  0.2404  0.0953 -0.0031
 4181W        W24461  12.643   4.802   2.697  0.1566 -0.0107  0.0364
 4182W        W24462   3.433   5.468   4.657 -0.0390  0.1635  0.1894
 4183W        W24463   4.950   3.507  16.465  0.1102 -0.0003  0.2531
 4184W        W24464  12.822   0.018  12.496  0.1262 -0.1040 -0.1138
 4185W        W24465   4.222  12.582  15.254 -0.0179  0.2766  0.1415
 4186W        W24466  16.533   4.505  16.589  0.1238  0.2351 -0.0728
 4187W        W24467   7.046   3.108  12.898 -0.0357  0.0477 -0.0424
 4188W        W24468   3.575   8.333  14.501  0.1260  0.2459  0.3475
 4189W        W24469   1.131   2.883   3.164  0.0340  0.0375 -0.1619
 4190W        W24470  12.229   9.956  16.467 -0.1057 -0.0425 -0.1303
 4191W        W24471   2.226   5.632   3.124 -0.2208  0.1671 -0.0368
 4192W        W24472  11.987  10.702   2.693  0.1200  0.1537 -0.0694
 4193W        W24473   9.314  10.113   2.459  0.0964  0.1005 -0.1874
 4194W        W24474   6.158  13.279   1.089 -0.2383  0.2864 -0.0912
 4195W        W24475  13.374   3.227  16.053  0.0470  0.1271 -0.0525
 4196W        W24476   6.618  13.468   0.879  0.0062  0.0399 -0.1963
 4197W        W24477  13.108  12.430   1.867  0.0269  0.0667 -0.1122
 4198W        W24478   3.398  14.192  12.277 -0.4310 -0.2075  0.1951
 4199W        W24479   8.084   3.025   1.654  0.3998 -0.1185 -0.1676
 4200W        W24480  15.558  16.949   2.498 -0.1360 -0.1488  0.1103
 4201W        W24481   8.901  12.022  15.519 -0.0205  0.0879  0.0560
 4202W        W24482  14.199  12.250  14.783 -0.1662 -0.1237 -0.0892
 4203W        W24483  17.783  10.150  14.212 -0.0489  0.0262 -0.0527
 4204W        W24484   2.184   4.388  14.001 -0.0629 -0.2106 -0.2451
 4205W        W24485   3.066  14.552   1.287  0.1462 -0.1777 -0.1568
 4206W        W24486   8.271   9.168  12.314  0.0426  0.2214 -0.1878
 4207W        W24487   9.265   2.948   3.114 -0.1342 -0.1546  0.1161
 4208W        W24488   4.472   1.077  15.397 -0.1137 -0.0877  0.0687
 4209W        W24489   7.704  17.055  12.788  0.1229 -0.1415  0.1232
 4210W        W24490   9.435  11.286   2.439 -0.1940 -0.3538 -0.0379
 4211W        W24491   8.855   9.527   4.623  0.0962  0.1583  0.2594
 4212W        W24492  11.071  13.286   0.264 -0.0018  0.2834 -0.3208
 4213W        W24493   8.260   2.801  12.159  0.1567 -0.1595 -0.1041
 4214W        W24494   4.932  12.964  15.065 -0.0480 -0.0561 -0.0977
 4215W        W24495  15.496   2.548  16.275 -0.1925 -0.0360 -0.0789
 4216W        W24496   2.100   5.911   4.373  0.2146  0.0132 -0.1030
 4217W        W24497  14.130  12.339   1.931  0.0059  0.2642  0.1511
 4218W        W24498   2.928  10.610  14.944 -0.1108  0.3156 -0.5007
 4219W        W24499   1.468   3.643  13.177 -0.0636  0.0570 -0.1629
 4220W        W24500  12.748   6.654   4.436 -0.3039 -0.2080 -0.2556
 4221W        W24501  14.257  10.076   2.682 -0.4428  0.1009 -0.0472
 4222W        W24502  15.866   8.620   1.219 -0.0222  0.0560 -0.1592
 4223W        W24503   3.495   0.055  13.685 -0.0984 -0.0218  0.1208
 4224W        W24504   3.159   8.259   3.859  0.2855 -0.0116 -0.0398
 4225W        W24505   2.949  16.294  14.471 -0.1978  0.0212 -0.0115
 4226W        W24506   6.500   3.238  14.504  0.0556  0.1010 -0.0317
 4227W        W24507  13.919   8.473  12.542 -0.0808 -0.2558 -0.1017
 4228W        W24508  11.575  16.460  10.753 -0.0405 -0.1463 -0.0282
 4229W        W24509   1.408  11.586   1.267 -0.0854 -0.0204  0.0012
 4230W        W24510  11.248   3.086   5.407 -0.2276  0.0874  0.0448
 4231W        W24511  12.163  12.287   1.424 -0.3774 -0.1240  0.1407
 4232W        W24512   6.125   4.913  12.780  0.0992 -0.0232 -0.0224
 4233W        W24513   7.988   2.581   2.674  0.1632 -0.0201  0.3293
 4234W        W24514  13.387  15.836   1.358 -0.0607  0.0352 -0.2370
 4235W        W24515   6.341   9.269  15.218 -0.2187 -0.3235  0.0128
 4236W        W24516   7.220   9.050  12.330 -0.2892  0.2174  0.1093
 4237W        W24517   2.787  17.796  15.209 -0.0859 -0.1728 -0.5118
 4238W        W24518  12.807  14.098   0.133  0.0425  0.2456  0.0946
 4239W        W24519   3.512   8.077  15.564  0.0713  0.3503  0.2315
 4240W        W24520  10.837  12.040  15.144  0.0534  0.0502 -0.3278
 4241W        W24521   2.190   0.775  16.485 -0.0624  0.1488  0.0154
 4242W        W24522   6.196   6.067   0.788 -0.2110  0.0549  0.0982
 4243W        W24523  17.867  10.755   0.181 -0.1527 -0.0137 -0.0410
 4244W        W24524  17.372  13.754   1.028  0.1718  0.1344 -0.2401
 4245W        W24525   9.754  13.730   1.819  0.0697  0.1227 -0.3343
 4246W        W24526   6.067  10.136  14.554 -0.1224  0.0306  0.0455
 4247W        W24527  14.445   7.453  11.630  0.0014 -0.0664 -0.0096
 4248W        W24528   2.269   0.969   1.840  0.2061  0.0928 -0.1325
 4249W        W24529   2.351  13.021   4.655  0.0229  0.4666 -0.3656
 4250W        W24530  13.681   1.076   4.365  0.0369  0.3072 -0.0687
 4251W        W24531   0.257  14.978  13.033  0.0853 -0.0805  0.2965
 4252W        W24532  15.144   9.405   2.254 -0.0745  0.0450  0.2960
 4253W        W24533  14.521   6.422  13.449 -0.1004  0.0815  0.3117
 4254W        W24534  15.383  13.693   4.266 -0.1456 -0.1512 -0.0113
 4255W        W24535  16.905  10.912   1.249 -0.1991  0.0211  0.3787
 4256W        W24536   5.684  14.834   4.819  0.1568  0.0240  0.2988
 4257W        W24537  16.680   0.861  12.603  0.2642  0.3877 -0.3770
 4258W        W24538  10.420   3.861   2.799 -0.0143  0.0302  0.0808
 4259W        W24539   3.923  14.330   0.061  0.0479  0.0458 -0.2813
 4260W        W24540   1.957  10.312  12.524 -0.2056  0.0522  0.2422
 4261W        W24541   6.912  12.603  14.812  0.0319 -0.2039 -0.1565
 4262W        W24542   6.261   5.261  11.200  0.5336  0.2553 -0.0400
 4263W        W24543  10.169  10.863  14.842  0.0307 -0.0709  0.3859
 4264W        W24544  14.627  12.914  13.160 -0.1653 -0.0254 -0.1323
 4265W        W24545   6.686   7.962  16.249  0.0662  0.1949 -0.1754
 4266W        W24546   7.698   5.605   0.494 -0.1536  0.0856 -0.0412
 4267W        W24547   3.562  11.963  13.592 -0.1426 -0.0152 -0.2956
 4268W        W24548  11.711  14.412   0.508 -0.1283 -0.2486  0.3825
 4269W        W24549  15.646   9.392  15.499 -0.0019 -0.1741  0.1496
 4270W        W24550  17.521   2.879  11.797 -0.0237  0.1974  0.2577
 4271W        W24551  16.499  12.306  11.458  0.2475  0.0518  0.4945
 4272W        W24552   5.567   9.594   4.282 -0.0355 -0.1430 -0.2323
 4273W        W24553   2.764  17.940   1.110 -0.3506  0.1560 -0.0981
 4274W        W24554   5.633   8.044  15.795  0.0814 -0.0257  0.1005
 4275W        W24555  14.711   0.626  15.664 -0.1982 -0.1449 -0.1002
 4276W        W24556  11.828   9.346  14.293  0.0198 -0.1882  0.0441
 4277W        W24557   7.289   0.334   3.348 -0.2270  0.0626  0.0857
 4278W        W24558  16.665  14.142   0.615  0.1172  0.0631  0.0761
 4279W        W24559  10.122  16.411   0.912  0.1583 -0.1338 -0.3401
 4280W        W24560   2.779   3.021  13.862 -0.1235  0.0045  0.0367
 4281W        W24561   1.920   2.844   1.925  0.1725 -0.1728  0.0953
 4282W        W24562   3.620  14.394  12.721  0.0592 -0.0319 -0.1658
 4283W        W24563  13.352   9.604  14.686  0.2749  0.2205  0.1394
 4284W        W24564   3.018   7.794   4.049  0.0603  0.1304  0.2851
 4285W        W24565   8.677   3.668   3.065  0.1278 -0.3659 -0.0280
 4286W        W24566  14.184   5.474  14.437 -0.0074  0.2150 -0.0294
 4287W        W24567  15.850  11.194   4.164  0.0490 -0.3156  0.0216
 4288W        W24568  11.206   7.009   3.697 -0.2716 -0.2476  0.0718
 4289W        W24569   1.511   9.820   3.972  0.0500 -0.0726 -0.1831
 4290W        W24570  13.440  16.521   2.762  0.1521  0.0335  0.2219
 4291W        W24571   1.639   8.133   5.156  0.3843 -0.0225  0.0189
 4292W        W24572   5.796  15.725  15.630 -0.1650  0.1819  0.3703
 4293W        W24573   0.964   7.303   3.654  0.0805  0.0879 -0.2026
 4294W        W24574  14.381  10.439  16.010  0.0694 -0.0304  0.1206
 4295W        W24575   0.890   4.179  16.320  0.5091  0.0045  0.0189
 4296W        W24576   1.304  10.321  15.055  0.0100 -0.2642 -0.0237
 4297W        W24577  12.557  15.564   1.940 -0.0609  0.2279 -0.0499
 4298W        W24578   2.636  10.618   0.111 -0.0356  0.0849  0.1951
 4299W        W24579   2.033   0.094  13.533  0.0996 -0.0527  0.1856
 4300W        W24580   4.214  14.452  13.949  0.0429 -0.0838 -0.1607
 4301W        W24581  15.755  16.588  16.562 -0.1370 -0.0048 -0.1458
 4302W        W24582   2.362   7.087   4.988  0.2060  0.1438 -0.2001
 4303W        W24583   8.269   1.510  16.428  0.1983 -0.0652 -0.1044
 4304W        W24584  13.398   3.240  13.681 -0.0901 -0.1333  0.0595
 4305W        W24585   8.462  15.013  13.610 -0.2642 -0.0284 -0.1621
 4306W        W24586  12.662  14.268   4.654  0.0092 -0.0143 -0.0891
 4307W        W24587  15.189  16.055   0.657 -0.2670 -0.0345  0.0542
 4308W        W24588  14.092   8.793   0.497  0.1564 -0.3278 -0.1325
 4309W        W24589  10.660   8.944   1.049 -0.0907  0.0711  0.1429
 4310W        W24590  15.800   1.550   3.989 -0.1668  0.1435 -0.3679
 4311W        W24591   0.364  10.467  16.266 -0.1288  0.1825 -0.0032
 4312W        W24592  14.484   6.590  16.635  0.2969  0.0894  0.2503
 4313W        W24593  12.124   4.848  11.980  0.4403  0.0747  0.1385
 4314W        W24594   2.380   6.042  14.979 -0.1649 -0.0739 -0.0142
 4315W        W24595   5.283  13.837  16.650 -0.1756 -0.1437 -0.1280
 4316W        W24596  16.069   4.697  12.521  0.0895  0.1025 -0.2192
 4317W        W24597  16.847   0.864  13.059  0.1567 -0.0312  0.2176
 4318W        W24598   4.660   8.706   4.717 -0.0363  0.2068  0.1162
 4319W        W24599   6.332   2.084   2.275  0.1003 -0.0537  0.3319
 4320W        W24600   8.841   8.518   3.155 -0.2335 -0.0421 -0.4759
 4321W        W24601   7.557  15.593   2.970  0.2091 -0.0742 -0.2946
 4322W        W24602   5.039   4.892   4.764 -0.0502  0.0424  0.0600
 4323W        W24603   6.180   1.910   0.259 -0.1029  0.0357 -0.4945
 4324W        W24604   0.827  11.283   4.835 -0.0931 -0.0208 -0.0222
 4325W        W24605   9.827  11.046  16.695  0.2298  0.0493 -0.0886
 4326W        W24606  14.176   1.413  16.504 -0.0303  0.0006 -0.1502
 4327W        W24607  14.709   7.055   2.020 -0.0605 -0.0437 -0.1433
 4328W        W24608   4.931  15.314  13.524 -0.1518  0.0602  0.1093
 4329W        W24609  14.055   0.781  14.647  0.2393 -0.1170 -0.0990
 4330W        W24610  10.457  17.174   0.254  0.1905 -0.1128 -0.1464
 4331W        W24611   4.009   1.276  12.319  0.1983 -0.2614  0.1405
 4332W        W24612   3.918   3.029  15.698 -0.1376 -0.2125  0.0545
 4333W        W24613  12.358   4.392   4.476  0.2158  0.2566 -0.2223
 4334W        W24614  10.297   1.352   3.669  0.0705 -0.2429  0.1141
 4335W        W24615   8.003   8.009  14.183  0.0846  0.0209  0.3695
 4336W        W24616   5.271   6.426  12.368 -0.2895 -0.0831 -0.2287
 4337W        W24617  12.009   8.260  16.536 -0.0210 -0.0113  0.0222
 4338W        W24618   2.505  16.272  16.583  0.1289 -0.4629  0.4142
 4339W        W24619   7.870   7.512   0.188  0.1587  0.0660 -0.1392
 4340W        W24620  16.278   1.795  12.650  0.0557 -0.1104  0.2499
 4341W        W24621  16.990   2.392  14.795 -0.3923  0.1533  0.1065
 4342W        W24622   3.231   6.689  15.153  0.0908 -0.0063  0.1721
 4343W        W24623   3.923  12.104   2.212 -0.4281 -0.2772  0.0622
 4344W        W24624  10.634  15.435  15.236 -0.0231  0.0400  0.4005
 4345W        W24625   2.212   8.354  13.726 -0.1912  0.3069  0.1944
 4346W        W24626   9.962  14.041  15.634 -0.4277  0.2535 -0.1367
 4347W        W24627   9.951  11.640  16.057  0.2365  0.0922  0.0649
 4348W        W24628  12.525  11.461   1.707 -0.0362 -0.1085 -0.2074
 4349W        W24629  17.037  12.380   3.377  0.0980 -0.0796  0.1288
 4350W        W24630   1.945   5.581   3.559 -0.3989  0.2173 -0.1032
 4351W        W24631   6.398   5.266  13.101  0.4098 -0.0364 -0.4135
 4352W        W24632  10.036  15.972  16.317  0.4212 -0.1382 -0.1036
 4353W        W24633  16.952   0.556  15.396  0.3483  0.2185 -0.2666
 4354W        W24634   5.798   6.446  12.445  0.3186  0.1480  0.1460
 4355W        W24635   4.145  16.467   2.910  0.0007  0.1785  0.1544
 4356W        W24636  11.372  15.383  16.288 -0.1057 -0.3097  0.3671
 4357W        W24637  12.576   4.251  13.960 -0.0288 -0.2057 -0.0859
 4358W        W24638   0.483   7.255   1.523  0.0730  0.0550  0.0479
 4359W        W24639   8.068   2.615   3.354  0.1252  0.1306  0.0152
 4360W        W24640  11.170  16.290   0.795 -0.3773  0.0490  0.1208
 4361W        W24641   4.786   6.193   4.526  0.0816  0.2183  0.1509
 4362W        W24642  15.530   0.422   2.612  0.0881  0.0346 -0.1696
 4363W        W24643   7.704   7.094  13.886  0.1232 -0.0881 -0.0076
 4364W        W24644  12.453  17.436  13.138  0.3237  0.1818 -0.2527
 4365W        W24645  13.102  10.010  13.098 -0.0382 -0.1316 -0.0261
 4366W        W24646  15.169   6.068  12.767  0.0120  0.0391 -0.6294
 4367W        W24647  16.930   8.780  11.769 -0.4373 -0.1761  0.1378
 4368W        W24648  15.527   8.433   2.960  0.0269 -0.0112 -0.1635
 4369W        W24649   3.377  14.757   0.420  0.0742 -0.3602 -0.0204
 4370W        W24650   7.311   7.994  14.763 -0.0107 -0.1072  0.0179
 4371W        W24651  17.959  10.679  12.793 -0.1239  0.1066  0.1827
 4372W        W24652  15.690   5.245  12.479 -0.1633 -0.0667 -0.1495
 4373W        W24653  13.089  13.177   2.742  0.0673  0.1176 -0.1502
 4374W        W24654   9.486  16.440  14.883  0.0618  0.3073 -0.3519
 4375W        W24655   3.020   6.772   4.332  0.0924  0.1036 -0.0458
 4376W        W24656   4.906  10.183   4.315 -0.0730  0.2254  0.1134
 4377W        W24657   1.243   7.016   1.687 -0.0481 -0.0780  0.0119
 4378W        W24658  13.356  16.719  16.315  0.0257 -0.2280 -0.2014
 4379W        W24659   9.450   8.076   3.290  0.2295 -0.0622 -0.1149
 4380W        W24660   7.658   8.073   4.038  0.0982  0.2858 -0.1344
 4381W        W24661  11.715   6.963   0.524 -0.1121 -0.1779  0.1894
 4382W        W24662  15.871   7.456   0.072  0.1413  0.1664 -0.1148
 4383W        W24663  10.930  15.259   3.220 -0.1018 -0.0021 -0.0728
 4384W        W24664   4.449  16.334   4.723 -0.2206 -0.0075  0.1207
 4385W        W24665  17.718   1.054   3.939  0.0371  0.0975 -0.2686
 4386W        W24666   5.583  17.015   2.084  0.1372  0.0088 -0.0271
 4387W        W24667   2.785   8.158  12.531 -0.0018  0.1572 -0.3163
 4388W        W24668  14.781   8.095  14.294 -0.0407  0.0915  0.1383
 4389W        W24669  15.587   4.637   4.029  0.0310  0.2619 -0.2006
 4390W        W24670  14.553   8.993   4.622 -0.2649  0.2166  0.0072
 4391W        W24671  17.423   7.655  13.877  0.2656 -0.0937  0.1056
 4392W        W24672  13.244   8.651   0.477 -0.3887  0.3501 -0.1858
 4393W        W24673   3.496   2.325   4.461 -0.2608  0.1527  0.1574
 4394W        W24674   2.067   4.233  15.715 -0.1730 -0.0647 -0.0153
 4395W        W24675  11.388  11.222   1.044 -0.1074  0.2265 -0.0378
 4396W        W24676   7.413   4.584  15.175  0.0507 -0.2830  0.1485
 4397W        W24677  14.171  14.583  13.768 -0.1144 -0.0012 -0.1229
 4398W        W24678  15.419   9.474  14.487 -0.0681  0.1993  0.1042
 4399W        W24679   6.617   3.972  12.603 -0.0006 -0.0925  0.3142
 4400W        W24680  12.504   5.204  15.378  0.0187  0.0896  0.0677
 4401W        W24681   4.353   8.618  14.556 -0.0100  0.1990 -0.1326
 4402W        W24682   6.885  10.798  11.569  0.0742 -0.0771 -0.0717
 4403W        W24683   5.120   7.322   3.873 -0.1065  0.2635  0.0065
 4404W        W24684   6.926  15.469  13.817  0.1793  0.0900  0.0477
 4405W        W24685  12.917   4.750  12.560 -0.0173  0.0122  0.5488
 4406W        W24686   1.920  16.772  13.043  0.0043 -0.2538  0.2511
 4407W        W24687   0.067   3.021   0.713  0.3049 -0.0535  0.1663
 4408W        W24688   3.496  12.902   1.972  0.2825 -0.1505  0.0031
 4409W        W24689  11.467   2.849  14.487  0.3249 -0.1131 -0.1799
 4410W        W24690  17.480  11.916   3.070 -0.1589  0.2498  0.1979
 4411W        W24691   7.228   1.348  14.020  0.1859  0.1322 -0.0054
 4412W        W24692  13.629  15.853  12.753 -0.2484  0.0745  0.0870
 4413W        W24693  17.423  14.342  12.309  0.5714 -0.1384  0.1002
 4414W        W24694   9.690  10.362  14.021  0.0558  0.0976  0.1300
 4415W        W24695   4.173   4.896  13.750 -0.1393  0.0316 -0.0646
 4416W        W24696   6.059  16.248  15.861  0.2170  0.0640  0.2437
 4417W        W24697  16.628  13.335   1.536 -0.0313  0.0661  0.2352
 4418W        W24698   6.930  11.178  16.100  0.0218 -0.1813  0.0571
 4419W        W24699   7.340   5.660   0.056  0.1107  0.1567  0.1323
 4420W        W24700   9.602  15.997   2.654 -0.2337  0.1605 -0.2568
 4421W        W24701   8.089  17.062  15.117 -0.0910  0.0810 -0.0116
 4422W        W24702  15.561   4.362   0.019  0.2982  0.1761 -0.1706
 4423W        W24703  15.311   4.706   1.218  0.3380 -0.0480 -0.2533
 4424W        W24704   8.108   2.266  13.511  0.0376 -0.1770 -0.5438
 4425W        W24705   5.623   6.730   4.520  0.4101  0.0320 -0.0962
 4426W        W24706  12.062   9.744   3.807  0.1287  0.3390 -0.1345
 4427W        W24707  15.287  14.791   0.969 -0.2699  0.3513  0.3606
 4428W        W24708   7.082  15.386   1.183  0.0502  0.1338  0.0261
 4429W        W24709   7.565   1.645   0.776  0.0085  0.1413 -0.1468
 4430W        W24710   5.323  12.624  15.995  0.0701 -0.3810  0.1757
 4431W        W24711  15.957  16.650   4.709 -0.3552 -0.0871  0.0169
 4432W        W24712   6.349   3.243   1.455 -0.1167 -0.2886 -0.1677
 4433W        W24713   0.800   9.904   1.616 -0.0860 -0.1854  0.3676
 4434W        W24714   3.534  11.427   1.529  0.1039 -0.3455  0.1725
 4435W        W24715   8.149  10.037  14.677  0.1211 -0.0405 -0.0918
 4436W        W24716   0.487   9.086   4.859 -0.2646  0.1552 -0.4386
 4437W        W24717  11.492   8.504  16.409 -0.0126  0.2507  0.0098
 4438W        W24718   4.211  11.473  12.239 -0.1126 -0.0103 -0.2684
 4439W        W24719  14.251   2.937   2.560 -0.2640  0.1315  0.2606
 4440W        W24720   6.097   4.146  16.242 -0.1407 -0.2289 -0.1988
 4441W        W24721   9.409  15.225   3.744 -0.1151  0.0284  0.0750
 4442W        W24722  16.084   1.390  14.873  0.2253 -0.2571 -0.1252
 4443W        W24723   3.703   4.740  15.543 -0.1414  0.0542 -0.2147
 4444W        W24724  12.066   2.091   0.499 -0.0557 -0.1348  0.1147
 4445W        W24725   3.846   3.709   0.937  0.2111  0.0753 -0.0932
 4446W        W24726   3.598  11.804  12.980 -0.1318 -0.0751  0.0667
 4447W        W24727  17.737  10.621  14.105 -0.1210  0.1694 -0.1071
 4448W        W24728  14.780  15.588   3.633  0.3337  0.1703 -0.3014
 4449W        W24729   4.200   0.634   2.566  0.1539 -0.0863  0.1379
 4450W        W24730   2.773  11.453   3.442  0.0772 -0.0548  0.0880
 4451W        W24731   2.538   7.137  12.991 -0.3065  0.1439 -0.3317
 4452W        W24732  17.905   3.395  13.598 -0.0497  0.2257  0.2576
 4453W        W24733   4.092  14.204   1.028 -0.3619  0.1056  0.0225
 4454W        W24734  13.413   8.333   1.738  0.2870  0.1098 -0.2478
 4455W        W24735   6.684  14.057   1.117 -0.1763  0.1379 -0.3709
 4456W        W24736   0.899   4.973  14.889  0.1007  0.1010  0.1322
 4457W        W24737   4.246  12.320   1.905  0.4518  0.1430 -0.0816
 4458W        W24738  17.469   7.199  13.745  0.1347 -0.3018 -0.0002
 4459W        W24739   7.320   0.884   3.294  0.0119 -0.0443  0.1817
 4460W        W24740   6.120   3.429   2.359  0.0944 -0.1942  0.0897
 4461W        W24741   0.184   7.073  12.189  0.0035  0.0947  0.1351
 4462W        W24742   2.700  10.051   4.713 -0.0254  0.4254 -0.2580
 4463W        W24743  11.707  17.410  12.539  0.0537  0.0968 -0.1616
 4464W        W24744   5.342  13.721   1.385 -0.1069 -0.3062  0.0752
 4465W        W24745   3.978   8.094  12.431 -0.1362 -0.1177  0.0109
 4466W        W24746  15.237   5.548  16.081 -0.3880  0.2348  0.1491
 4467W        W24747  17.261   6.964   1.623 -0.0966  0.2579 -0.0195
 4468W        W24748   8.077   6.002  14.525 -0.3231  0.2247 -0.0038
 4469W        W24749   4.766  11.487   3.301 -0.2370 -0.2230  0.0689
 4470W        W24750   1.629  13.974  12.431 -0.1548  0.0245 -0.3711
 4471W        W24751  17.287   5.870  13.008  0.0433  0.1203  0.0686
 4472W        W24752   0.053  15.878   1.441 -0.0811 -0.0153 -0.1049
 4473W        W24753   7.247   8.998   4.134 -0.0197 -0.3095  0.1060
 4474W        W24754   3.654   1.462   4.275  0.1837  0.0542 -0.0511
 4475W        W24755  14.261   1.027  12.561 -0.1251 -0.1050 -0.0350
 4476W        W24756   7.325  15.070   3.770  0.0049 -0.3071  0.1322
 4477W        W24757   8.766  10.707  14.331  0.1425  0.0575 -0.3382
 4478W        W24758  13.262  15.693  13.890  0.1576 -0.0306  0.1736
 4479W        W24759  17.967  10.013  12.038  0.2593  0.0193 -0.2199
 4480W        W24760   0.965   0.318  15.908 -0.1325  0.3003  0.2891
 4481W        W24761  10.439   9.106  15.981 -0.0828 -0.1889 -0.0376
 4482W        W24762   4.413   6.199   3.290  0.3937 -0.1797 -0.0678
 4483W        W24763   7.950  14.199   3.547  0.1204  0.1944 -0.0921
 4484W        W24764  13.666   1.123   1.195  0.0947  0.0325  0.2710
 4485W        W24765  17.679  15.916  16.464 -0.1988 -0.0717 -0.1211
 4486W        W24766  14.478   3.914  13.153  0.1057 -0.3552  0.2144
 4487W        W24767   6.366  17.326  16.661 -0.1021  0.0164  0.1145
 4488W        W24768   7.665  13.243   0.124 -0.0479 -0.0678  0.2156
 4489W        W24769   7.087  10.342   2.236 -0.0659 -0.1882  0.1397
 4490W        W24770   7.440  10.419  12.882  0.0418 -0.0279  0.4054
 4491W        W24771  15.209  17.960   1.765 -0.1401  0.0547 -0.5205
 4492W        W24772  17.314  11.939  13.424 -0.0593  0.0011 -0.3140
 4493W        W24773  14.244   7.306  15.316 -0.2216  0.1662  0.1438
 4494W        W24774  17.010  11.549   4.281  0.1306 -0.4152 -0.0020
 4495W        W24775  16.421   9.084  14.415  0.5591  0.1525  0.0681
 4496W        W24776   9.420  16.807   5.005 -0.1857  0.1637  0.3659
 4497W        W24777   9.243  10.445  14.190 -0.2824 -0.1577  0.2525
 4498W        W24778  16.724   7.025  13.916 -0.1167 -0.0080  0.1436
 4499W        W24779  14.059  15.167   2.488 -0.2161 -0.1766 -0.0804
 4500W        W24780  17.939  16.448  14.984 -0.1338 -0.1966 -0.1093
 4501W        W24781  14.182   3.890   2.300  0.0087 -0.0464 -0.0786
 4502W        W24782   9.509   4.102  16.025  0.0554  0.0433  0.0244
 4503W        W24783   5.895  11.827  14.000  0.1565 -0.0625 -0.5105
 4504W        W24784  17.584   1.597  11.802 -0.2332 -0.0118 -0.0208
 4505W        W24785  16.514   6.697   3.996 -0.2461 -0.2616 -0.0754
 4506W        W24786   8.780   7.692   2.840  0.0756 -0.2200  0.1220
 4507W        W24787  17.105  15.240   4.599 -0.0112 -0.0946 -0.2388
 4508W        W24788  17.852   6.228  13.436  0.0021 -0.1353  0.1055
 4509W        W24789   6.698   6.916  13.751  0.2346 -0.0239 -0.0477
 4510W        W24790   9.043  13.843   4.949  0.0102 -0.1094  0.0505
 4511W        W24791   6.273  13.246  12.068  0.0047  0.0147 -0.0090
 4512W        W24792   6.789  12.406   0.872  0.1307  0.3856 -0.1615
 4513W        W24793   5.679  12.347   5.980 -0.0895 -0.1403 -0.0216
 4514W        W24794   8.388   0.564   4.764  0.0200 -0.0861 -0.1501
 4515W        W24795   7.775   0.573  11.932 -0.1912 -0.1017  0.1155
 4516W        W24796  14.446  14.979  14.731 -0.0202  0.2414  0.1519
 4517W        W24797   5.097   8.760   3.534  0.2189  0.3729 -0.0686
 4518W        W24798   4.706  14.865  15.922 -0.0849 -0.0394 -0.2007
 4519W        W24799   0.195   1.424   0.193 -0.0920  0.2304 -0.1283
 4520W        W24800   7.711   8.256   2.322 -0.0583  0.0336  0.2147
 4521W        W24801   0.583  17.497  14.808 -0.0047  0.1740  0.1555
 4522W        W24802  10.948  10.296  12.478  0.0578  0.1466  0.0824
 4523W        W24803  13.131  13.717  14.424  0.0002 -0.2387 -0.1261
 4524W        W24804  17.495   4.363  12.778  0.1290 -0.1762  0.1136
 4525W        W24805   9.592  11.836   0.410  0.2730 -0.1615 -0.0554
 4526W        W24806  13.578  11.116   2.954 -0.1178  0.1194 -0.3304
 4527W        W24807  17.208   5.042   3.899 -0.0162  0.2814 -0.1795
 4528W        W24808   9.936  17.764   4.283  0.2016 -0.1882 -0.1042
 4529W        W24809   1.505   3.024   0.587  0.0342 -0.0882 -0.0400
 4530W        W24810  13.970  11.463   1.661  0.0042 -0.2555 -0.2215
 4531W        W24811   6.989  17.133  14.194  0.1680 -0.1351  0.2830
 4532W        W24812   8.591   6.293   4.954  0.1474 -0.0851 -0.2857
 4533W        W24813   3.091  15.192   0.723 -0.2736 -0.1287 -0.4751
 4534W        W24814   2.132   7.490   1.805 -0.0783  0.1029  0.2096
 4535W        W24815   1.883   6.042   0.954  0.1388  0.1135 -0.1825
 4536W        W24816  16.273   0.234  13.412 -0.2630  0.0565 -0.3666
 4537W        W24817   7.416  14.307  13.118  0.0200  0.1400  0.1774
 4538W        W24818   0.435  12.471   2.024  0.0462 -0.0779  0.4607
 4539W        W24819   4.321  11.660   1.048 -0.0678  0.2012  0.1314
 4540W        W24820   3.977  16.145  12.666  0.0892 -0.0452 -0.0775
 4541W        W24821   4.773  10.378  15.283  0.2123 -0.3141 -0.0809
 4542W        W24822  10.493   5.697  12.469 -0.1233  0.2936  0.1203
 4543W        W24823   5.710  11.164  13.931 -0.2830 -0.0760  0.0843
 4544W        W24824   3.942  13.768   0.276  0.0825  0.2731 -0.0484
 4545W        W24825   3.890  11.149   6.651  0.0909 -0.2299 -0.0100
 4546W        W24826  12.381  15.336   4.477  0.0384  0.1215 -0.1748
 4547W        W24827   8.421   5.454   2.132  0.3230 -0.3660 -0.0361
 4548W        W24828  10.026   7.552   0.480  0.2895  0.2439  0.0706
 4549W        W24829  15.558   2.207  13.208 -0.2894  0.4010 -0.2851
 4550W        W24830   8.534   7.479  14.839 -0.0987  0.0736 -0.1624
 4551W        W24831  10.965   5.606  12.625  0.0287  0.2971  0.1893
 4552W        W24832  12.713  16.830   2.298 -0.1374  0.0057 -0.0609
 4553W        W24833  11.511   2.148   1.044 -0.1015 -0.0572 -0.0275
 4554W        W24834  11.795  16.601   4.444  0.0590 -0.0349 -0.0757
 4555W        W24835   0.355   9.330  15.819 -0.1673 -0.1390  0.1045
 4556W        W24836   3.099  16.364  11.998 -0.0192 -0.0447  0.0355
 4557W        W24837   5.443   1.522  16.632  0.3115 -0.0300 -0.0413
 4558W        W24838   6.430   0.504   1.042  0.0612 -0.1604 -0.2816
 4559W        W24839  16.700  17.183   2.838  0.1978 -0.0746  0.0633
 4560W        W24840  11.787   2.028   2.252  0.1677 -0.1216 -0.0963
 4561W        W24841  11.886  13.685  13.556  0.0017  0.0984 -0.0834
 4562W        W24842   1.259   1.356  12.239 -0.0988  0.0741  0.2063
 4563W        W24843   5.726  17.420  16.149 -0.2011 -0.0631  0.1024
 4564W        W24844   2.178  15.033   1.302 -0.2192  0.1157 -0.3126
 4565W        W24845   3.232  15.153  12.507  0.0904 -0.0659  0.0803
 4566W        W24846  16.478  16.687   1.113 -0.0501 -0.1939 -0.0731
 4567W        W24847  16.072   5.494   0.694 -0.0349 -0.0415 -0.0317
 4568W        W24848   3.577  14.229   3.609  0.0464  0.1029 -0.2370
 4569W        W24849   0.040   4.858   0.685 -0.2524 -0.0381 -0.2718
 4570W        W24850  13.583   0.359   2.794  0.1680 -0.1695  0.0968
 4571W        W24851   9.013  14.511  15.153  0.0609 -0.1973 -0.0406
 4572W        W24852  14.073  12.878   4.550  0.3736 -0.2946 -0.0051
 4573W        W24853  13.685   3.596   0.785 -0.0189 -0.0119 -0.0565
 4574W        W24854  10.054   0.721   0.982  0.2213 -0.0782  0.0659
 4575W        W24855  15.373  10.265  15.608  0.0704 -0.2400 -0.0249
 4576W        W24856  15.028   3.049  13.219  0.2219 -0.0929  0.2307
 4577W        W24857  11.476   6.785   1.345  0.0930  0.0160 -0.0816
 4578W        W24858  11.596  13.347  13.838  0.2568  0.3718  0.2826
 4579W        W24859   9.733   9.843   3.200  0.1339 -0.1960 -0.0776
 4580W        W24860  12.356  10.252   3.900  0.0477  0.0229  0.3228
 4581W        W24861   6.117  12.636  13.051  0.0274  0.2985  0.0211
 4582W        W24862   5.235   8.660   2.774 -0.2833 -0.3039 -0.1276
 4583W        W24863   7.705   9.245  12.257  0.0211 -0.2360  0.0084
 4584W        W24864  15.291   3.905  12.770 -0.2388 -0.0110 -0.0926
 4585W        W24865  11.124  16.268   2.790  0.0163  0.1519 -0.0962
 4586W        W24866  13.375  11.789  16.109  0.0010  0.0131 -0.1900
 4587W        W24867   2.004  12.210   1.112  0.2126 -0.1784  0.2970
 4588W        W24868  16.798   9.780   4.503 -0.2134  0.1202 -0.1718
 4589W        W24869   5.459  13.021  13.637  0.1648 -0.3573 -0.0340
 4590W        W24870  15.925   7.661  13.781 -0.0623  0.4791 -0.3285
 4591W        W24871   9.249   2.340   0.218 -0.0562  0.2649  0.1066
 4592W        W24872  13.161  15.362   1.270 -0.1072 -0.0533  0.1058
 4593W        W24873  16.394   5.751  12.523  0.1701 -0.0581  0.3189
 4594W        W24874  10.873  16.130   2.207  0.0979 -0.2557 -0.0742
 4595W        W24875   7.644  17.897  10.885  0.2361  0.3617  0.2387
 4596W        W24876  11.980   9.023   0.207  0.2579  0.0058  0.3654
 4597W        W24877   6.222  15.093   4.614 -0.2419  0.0669  0.0996
 4598W        W24878   8.789  17.032  14.388 -0.2175 -0.3226 -0.0340
 4599W        W24879  12.715  15.546   0.875 -0.3047  0.0769 -0.0091
 4600W        W24880   1.185  12.071  13.712  0.0090  0.2193  0.2068
 4601W        W24881  13.541  12.382   2.559 -0.0953  0.2719  0.0258
 4602W        W24882   0.290   3.225   1.459  0.1032 -0.0071  0.1408
 4603W        W24883   6.930   2.034   3.159 -0.5029  0.1639 -0.2231
 4604W        W24884   6.624   6.400   2.840  0.1881  0.2443 -0.2053
 4605W        W24885   6.273  15.509   1.735 -0.2314 -0.0730  0.3250
 4606W        W24886   2.093  10.424   1.973  0.0124 -0.0553 -0.1983
 4607W        W24887  12.764   0.403  12.198 -0.1438  0.1025  0.1410
 4608W        W24888   9.810   7.820   1.941  0.1804 -0.0157 -0.0250
 4609W        W24889   2.119   2.122   4.171 -0.0184  0.1612 -0.0904
 4610W        W24890   2.497  17.367  15.091  0.0105  0.1907  0.1085
 4611W        W24891   0.498  12.914  14.029 -0.0000 -0.1016  0.0361
 4612W        W24892   1.546   6.716   3.873  0.1615 -0.0171 -0.2831
 4613W        W24893   7.175   9.779   0.362 -0.3748 -0.0904 -0.1648
 4614W        W24894  10.343  12.544   0.433 -0.0606  0.1814  0.3216
 4615W        W24895   4.462   3.822   3.493 -0.1415  0.1172  0.0163
 4616W        W24896  16.128  14.336   0.177 -0.0636  0.0937 -0.1236
 4617W        W24897   7.443  17.706   3.063 -0.3811 -0.1756  0.0838
 4618W        W24898  11.728   4.916   1.918 -0.1232  0.1012  0.0650
 4619W        W24899   0.414   2.294   4.886  0.1847  0.1236  0.0558
 4620W        W24900  13.844   4.812   4.670  0.5025  0.0449  0.0161
 4621W        W24901   2.308   5.174  15.780  0.0523  0.0643 -0.1841
 4622W        W24902   2.090  12.888   4.275 -0.0143 -0.2339 -0.0708
 4623W        W24903   6.164  10.937  14.131 -0.1213 -0.1190  0.1554
 4624W        W24904   5.296  15.131  15.298  0.0658 -0.1330  0.2398
 4625W        W24905  11.238  14.918   4.244  0.1260  0.0691 -0.0025
 4626W        W24906  12.717   7.806  15.171  0.1086 -0.0556  0.0816
 4627W        W24907   1.958   7.242   4.695  0.0045  0.1878 -0.0130
 4628W        W24908   5.162   3.558   4.760 -0.1290  0.1370 -0.2377
 4629W        W24909   1.852   6.979   3.429  0.0521 -0.0602 -0.1759
 4630W        W24910  14.971  17.782  14.376 -0.0234  0.4040  0.0405
 4631W        W24911   8.329  11.831   1.117  0.2078  0.2288 -0.1154
 4632W        W24912   5.452   7.579   3.531 -0.3561 -0.5022 -0.3600
 4633W        W24913  13.550   4.307   1.427 -0.0293  0.1154  0.0576
 4634W        W24914   3.728  13.281   2.870 -0.2346  0.1199  0.2862
 4635W        W24915   9.021   2.753  12.496 -0.0174  0.0049  0.1970
 4636W        W24916  16.428   9.254  12.461 -0.1822  0.1099 -0.1235
 4637W        W24917  15.070   6.524   4.222 -0.3135 -0.1204  0.0038
 4638W        W24918  13.434   1.659  12.350  0.0778  0.0280  0.2176
 4639W        W24919   5.101  17.487  14.256 -0.1702 -0.3673  0.0905
 4640W        W24920  11.829  14.101   4.981 -0.1513 -0.0671  0.1667
 4641W        W24921   7.117   6.817  12.506 -0.0030 -0.0466 -0.1882
 4642W        W24922  12.847  11.919  12.655  0.1066 -0.1125  0.1227
 4643W        W24923   9.689  13.995  16.137  0.1949 -0.0751 -0.2965
 4644W        W24924  14.740   3.642  16.392 -0.1621 -0.1645  0.2780
 4645W        W24925  16.729  13.845   1.537  0.2492  0.2455 -0.2109
 4646W        W24926  13.422   7.257  14.326 -0.0820  0.2433 -0.1521
 4647W        W24927  17.904   5.041  12.232 -0.3817  0.1724  0.0414
 4648W        W24928  14.737   9.795  13.082  0.0326  0.0500 -0.2077
 4649W        W24929   6.824   9.430  16.211  0.2979  0.3310 -0.1626
 4650W        W24930   5.252   1.112  13.555 -0.0090 -0.0305 -0.0864
 4651W        W24931  10.582  16.217   4.189 -0.0519 -0.0512 -0.0058
 4652W        W24932   5.212  11.681   3.529  0.1723  0.1208  0.0117
 4653W        W24933   2.578   8.096   3.173 -0.0893  0.3853 -0.1726
 4654W        W24934  16.529   1.394   0.123  0.0451 -0.0326 -0.2216
 4655W        W24935  15.662   3.088   3.111 -0.0237  0.0377  0.0869
 4656W        W24936  11.880   1.133  13.700  0.1518  0.0823 -0.0615
 4657W        W24937  12.864   7.158   1.174  0.1542 -0.0485  0.0415
 4658W        W24938  10.365   0.362  15.324 -0.1824 -0.2300 -0.0113
 4659W        W24939   8.831  10.604   0.114  0.2122 -0.2372 -0.1653
 4660W        W24940   9.343  15.934  15.721  0.0845 -0.0973  0.0659
 4661W        W24941  17.235  14.389   4.126  0.1802  0.2842  0.0735
 4662W        W24942  13.674   3.877   4.476  0.2376  0.0532 -0.0993
 4663W        W24943   2.894   1.970   1.003 -0.1409 -0.1671  0.2590
 4664W        W24944   0.665  14.296   2.426  0.1172  0.0447  0.1822
 4665W        W24945   1.193   6.870  15.783  0.0098 -0.2216  0.2316
 4666W        W24946  14.135   5.315   3.730  0.2970 -0.0975  0.2363
 4667W        W24947   3.484  10.036  14.432  0.2436  0.4553 -0.0872
 4668W        W24948   4.908  16.159  16.069  0.3057  0.1635  0.0827
 4669W        W24949   8.219   2.043   4.340 -0.0169  0.0064 -0.1550
 4670W        W24950   4.239  12.829   0.713  0.0922 -0.0949 -0.0032
 4671W        W24951   6.562   4.042  16.062 -0.1451  0.0423 -0.0890
 4672W        W24952   0.727  17.392   2.432 -0.3276  0.1143 -0.1119
 4673W        W24953   3.506   4.683   5.142 -0.0514  0.0526  0.0334
 4674W        W24954  14.859   7.528  12.213 -0.2417  0.0941  0.3436
 4675W        W24955  11.869   6.343  16.222  0.1731 -0.0175 -0.1518
 4676W        W24956   2.627  17.818  15.902  0.0628  0.1841  0.0595
 4677W        W24957   8.494   3.295  16.182  0.0339 -0.2598 -0.2989
 4678W        W24958  16.131   4.496   3.159  0.0064  0.1775  0.1360
 4679W        W24959   2.368  15.489  12.563 -0.0593  0.2616 -0.2752
 4680W        W24960  13.712  14.879   3.143  0.0813  0.0656  0.0699
 4681W        W24961   0.319  16.379  13.090  0.1456 -0.2253 -0.2301
 4682W        W24962  15.360   7.710  12.946 -0.1631 -0.1299 -0.0667
 4683W        W24963  17.067  15.376   3.312 -0.2907  0.2713  0.0776
 4684W        W24964   5.182  13.926  13.496 -0.0063  0.0108  0.4070
 4685W        W24965  15.517   3.559  16.234  0.0938  0.1157  0.0695
 4686W        W24966   9.022  10.384  12.417 -0.0358 -0.0315  0.0369
 4687W        W24967  16.158  10.085   1.699 -0.1067 -0.2863 -0.0152
 4688W        W24968   8.732   6.374   4.475 -0.0068 -0.0899 -0.0333
 4689W        W24969  15.718  16.258   0.303  0.2428 -0.0102  0.5177
 4690W        W24970   5.658  14.951   0.140  0.0868 -0.3052  0.1174
 4691W        W24971  11.116  15.817   2.560  0.0475 -0.0938  0.0748
 4692W        W24972   7.689   8.544   0.490  0.1232  0.0277  0.1214
 4693W        W24973   1.904   9.916   4.265 -0.2704  0.1197  0.1593
 4694W        W24974   3.216   4.391   1.313 -0.1520 -0.0493 -0.0307
 4695W        W24975   4.376   6.475   2.285  0.1953 -0.0617  0.4904
 4696W        W24976   6.646  15.245   3.657  0.0989  0.2610 -0.0049
 4697W        W24977   0.995   4.886  13.472  0.1695  0.2333 -0.0875
 4698W        W24978   5.418  13.014   0.567 -0.0902  0.2975  0.0653
 4699W        W24979  10.974   9.853  15.523  0.0966 -0.2999 -0.1262
 4700W        W24980  14.361   0.873  15.406 -0.3229 -0.2316  0.0782
 4701W        W24981   4.519   3.409  13.107  0.1875 -0.0051  0.1618
 4702W        W24982  17.181   4.074  12.461  0.2866  0.0764 -0.4459
 4703W        W24983  14.329   8.631  14.949 -0.1144 -0.0036  0.1131
 4704W        W24984  15.267   5.005  14.107 -0.1959  0.0348 -0.2222
 4705W        W24985   7.408  15.714   1.945 -0.1193  0.2598 -0.1742
 4706W        W24986  14.139  15.455   2.936  0.1103  0.1111 -0.1814
 4707W        W24987   2.317   3.459  15.793  0.0090  0.0300  0.1180
 4708W        W24988  15.637  16.574   4.198 -0.2121  0.0677 -0.0597
 4709W        W24989  10.409  16.241   3.721  0.2244  0.0386  0.1483
 4710W        W24990   6.963  15.729   2.343  0.0630 -0.1347 -0.1264
 4711W        W24991   6.859   8.929  16.043  0.2143  0.0240  0.0462
 4712W        W24992   1.556  15.222   3.454  0.1511  0.0335 -0.2312
 4713W        W24993   2.921   1.854   2.565 -0.0047  0.2978  0.1785
 4714W        W24994   1.240  11.855  16.537  0.0132  0.1090  0.2834
 4715W        W24995   1.894   1.753   3.895 -0.1596  0.0693  0.0704
 4716W        W24996  16.504  16.763  12.137 -0.1142  0.0676 -0.2174
 4717W        W24997  16.435  14.095   1.093 -0.0275 -0.2161  0.1300
 4718W        W24998  16.915   8.279  13.292  0.0269 -0.2385 -0.1753
 4719W        W24999   7.710   6.337  11.613 -0.2332 -0.2416 -0.2192
 4720W        W25000   0.022   0.050   2.498 -0.3588  0.0148  0.0348
 4721W        W25001  16.474   1.620  15.147  0.1517  0.0809  0.2338
 4722W        W25002   6.211   5.813  14.521 -0.2371  0.1012 -0.1500
 4723W        W25003   2.976  13.485  11.960 -0.0572 -0.1079 -0.1807
 4724W        W25004  17.972  14.927   4.573 -0.1779 -0.0750 -0.1328
 4725W        W25005   6.513   1.358   3.571 -0.1930 -0.2039 -0.1062
 4726W        W25006   8.217   8.044   0.881 -0.0711  0.3038  0.1622
 4727W        W25007  15.896   9.518  13.895  0.4790 -0.1257  0.2713
 4728W        W25008   7.818   9.156  15.272  0.0954 -0.3310 -0.2527
 4729W        W25009  13.921   1.848  16.260 -0.4490 -0.1088  0.1633
 4730W        W25010  17.215   3.602  12.641 -0.2407 -0.2038 -0.0985
 4731W        W25011   6.857  15.675   3.627 -0.0797  0.2311  0.0183
 4732W        W25012  13.210   6.584  14.818 -0.1539  0.2543  0.1004
 4733W        W25013  12.856  17.234  13.107 -0.0814  0.0944  0.1119
 4734W        W25014  14.576   9.669   1.224  0.0924  0.0648 -0.0350
 4735W        W25015  17.928   4.392  15.596  0.1919 -0.0596 -0.0307
 4736W        W25016   0.920   1.383   0.142  0.0304 -0.3096 -0.2516
 4737W        W25017   0.433   7.376  16.636 -0.2860 -0.0187  0.0272
 4738W        W25018   9.402  10.978   4.756 -0.1314  0.2277  0.1102
 4739W        W25019   5.099  13.213  13.304 -0.0047  0.3246  0.1076
 4740W        W25020   5.034   4.157  14.212  0.0264  0.3468 -0.0703
 4741W        W25021  12.523   5.133  11.645 -0.1010 -0.0975 -0.2422
 4742W        W25022   0.455  15.302  12.255  0.1631 -0.2627  0.1166
 4743W        W25023   0.594  17.514   1.120 -0.2111  0.0999 -0.2178
 4744W        W25024   7.791   5.497  15.647 -0.2631  0.4627 -0.1419
 4745W        W25025   7.268   4.812   3.916  0.0516 -0.2497 -0.0599
 4746W        W25026  17.632  11.812  14.857  0.1564 -0.0691  0.2601
 4747W        W25027   5.012   2.748   1.256 -0.3862  0.2558 -0.0753
 4748W        W25028   0.040   9.448   3.915 -0.0764  0.1856 -0.0084
 4749W        W25029  11.655  14.943  16.442  0.3510  0.0149 -0.0521
 4750W        W25030  16.490   1.862  16.586  0.1219  0.1663 -0.2478
 4751W        W25031  16.779   8.687   4.790  0.1689 -0.0720  0.1525
 4752W        W25032  17.582  12.306   1.713 -0.1347 -0.0311 -0.0651
 4753W        W25033   6.705  13.257   4.569  0.0217  0.4005 -0.4751
 4754W        W25034   5.121  14.476  13.504  0.0976 -0.1729  0.0938
 4755W        W25035   5.649  11.311   5.265  0.2311 -0.1044  0.0849
 4756W        W25036  15.643  17.753   2.541  0.0872 -0.4933  0.1141
 4757W        W25037   3.138   1.271   4.352  0.1194 -0.0771 -0.4024
 4758W        W25038  11.975  11.456  14.356 -0.2689  0.3303  0.0303
 4759W        W25039  11.318   6.865   3.213  0.0567  0.0634  0.0985
 4760W        W25040  14.015   6.395   2.220  0.1465 -0.2467 -0.1102
 4761W        W25041   5.251  17.808  13.524 -0.1446  0.1164  0.2397
 4762W        W25042  16.788  17.347   1.605 -0.2421 -0.3292  0.3444
 4763W        W25043   2.024   5.058   0.796  0.3616 -0.0437 -0.0304
 4764W        W25044   8.273  14.969   0.950 -0.1068 -0.2612 -0.0306
 4765W        W25045   6.747  15.138  14.187 -0.0704  0.0144 -0.0702
 4766W        W25046   8.630  16.364  16.581 -0.3311 -0.0987  0.0730
 4767W        W25047  15.659  11.233   1.591 -0.0538 -0.2681  0.1925
 4768W        W25048   8.766   0.563  12.311 -0.1351  0.1467 -0.2986
 4769W        W25049  16.011   9.830   2.956  0.3869  0.0050 -0.0183
 4770W        W25050   2.398   4.278   2.104  0.2983  0.0952  0.4973
 4771W        W25051   3.261   2.803   0.343 -0.2237  0.4639  0.1881
 4772W        W25052  14.460   1.814   3.213  0.1856  0.2547  0.3071
 4773W        W25053  13.699  14.137   3.403  0.1940  0.0105  0.1754
 4774W        W25054   0.582   3.621  13.047  0.3411  0.1316 -0.2785
 4775W        W25055  11.620   6.879   3.959 -0.0838  0.0162 -0.1192
 4776W        W25056   5.727   4.033  13.767  0.1602  0.2495 -0.1908
 4777W        W25057  14.688  13.563  13.804 -0.3669 -0.1050 -0.0067
 4778W        W25058   3.019   8.016   2.103  0.3435  0.0255  0.2789
 4779W        W25059  16.048  17.472   3.861  0.3073  0.0691 -0.2291
 4780W        W25060  11.079  13.175  12.331  0.1387 -0.0711 -0.0421
 4781W        W25061  12.620   0.985   2.747  0.0602 -0.1187 -0.3224
 4782W        W25062  14.740   6.100  14.661 -0.1701 -0.1700 -0.3125
 4783W        W25063  14.047  16.915  11.725 -0.1077  0.1762  0.0030
 4784W        W25064  11.643  12.505   2.169  0.1824  0.0275  0.0802
 4785W        W25065   2.205   8.233  15.196 -0.0642  0.0571 -0.2834
 4786W        W25066  11.097   8.954   1.253  0.0183  0.0123  0.0655
 4787W        W25067  10.527  17.171  14.567 -0.1279 -0.2970 -0.1088
 4788W        W25068  15.599   3.696   2.287 -0.1419  0.2157 -0.0311
 4789W        W25069   5.851   7.694   3.192  0.0642  0.0826 -0.2668
 4790W        W25070   7.344  13.683   3.860 -0.0203 -0.2520  0.1027
 4791W        W25071  14.586   3.506  15.867 -0.2541  0.0697 -0.1528
 4792W        W25072  11.788  13.508  14.578  0.0616 -0.1026  0.2540
 4793W        W25073   7.575   0.925  14.183  0.2208 -0.2287  0.0411
 4794W        W25074  12.625   8.727   4.590 -0.2463 -0.1632  0.1638
 4795W        W25075   4.083   4.438   1.350  0.1909 -0.1329  0.3956
 4796W        W25076   1.304  11.013   0.983  0.2682  0.4684 -0.0616
 4797W        W25077   6.233   7.110  11.152 -0.0142  0.0021  0.2188
 4798W        W25078   0.677   3.279  15.794 -0.0035 -0.1066 -0.0835
 4799W        W25079  12.040   4.245  10.410  0.0703  0.0153  0.1657
 4800W        W25080  12.796  14.939   1.800 -0.1501  0.3162  0.1042
 4801W        W25081   4.111   0.820  12.720 -0.1566 -0.0536  0.3073
 4802W        W25082   8.320  12.849   4.631  0.0734 -0.1959  0.2150
 4803W        W25083   3.016  10.050  13.264  0.3832 -0.1272  0.0520
 4804W        W25084   0.726   4.277   2.167  0.0047  0.1480  0.0917
 4805W        W25085   8.375   7.665   0.538  0.0410  0.0986  0.1412
 4806W        W25086  10.514  14.007  13.339  0.1740 -0.1745  0.1901
 4807W        W25087   5.838  10.150   1.995 -0.0578  0.1086 -0.1974
 4808W        W25088   5.687  14.412  13.222  0.1296  0.1874  0.2652
 4809W        W25089  13.805   6.549   3.748 -0.0277  0.2126  0.0504
 4810W        W25090   0.959  14.761   1.334  0.1104  0.0210  0.1267
 4811W        W25091  10.307  15.758   5.247  0.2086  0.2063  0.1398
 4812W        W25092  10.296   1.430  12.565  0.1406 -0.2033  0.0226
 4813W        W25093   0.475  17.833  13.656  0.0826 -0.0224  0.0416
 4814W        W25094  15.715   2.683   1.344  0.0928 -0.0588  0.1032
 4815W        W25095   9.168  16.608   0.606 -0.2614  0.0549 -0.1485
 4816W        W25096   7.713  10.212   3.268 -0.1354  0.3317 -0.0547
 4817W        W25097  14.075  10.264  12.085  0.0379  0.1859  0.2356
 4818W        W25098  15.662   8.123  13.670  0.2694 -0.0318  0.0830
 4819W        W25099   9.275   9.418   2.491 -0.1894  0.0829  0.0251
 4820W        W25100   6.276  14.949  13.303 -0.1743 -0.0110  0.1420
 4821W        W25101  12.165   1.998   3.838 -0.3167  0.0932  0.4037
 4822W        W25102  16.575   0.409   2.120  0.3894  0.0998  0.1022
 4823W        W25103   5.042   6.033   4.103 -0.1973  0.0397 -0.1089
 4824W        W25104  14.492   6.918  12.392  0.0529 -0.1131  0.0502
 4825W        W25105   1.780   8.646  15.353 -0.2815 -0.2616 -0.1905
 4826W        W25106  16.609  14.509   1.962  0.0261 -0.0097  0.2638
 4827W        W25107  16.251   0.033   3.146 -0.1604 -0.0355  0.1640
 4828W        W25108  14.120  15.825  12.959 -0.0600 -0.2572  0.1060
 4829W        W25109  13.923   6.371   3.318  0.3380  0.1022 -0.1088
 4830W        W25110   0.068   9.764  15.655  0.1318  0.1921  0.1686
 4831W        W25111   8.614  12.221   0.318 -0.1169 -0.1040  0.0383
 4832W        W25112  11.026  13.611  12.152  0.1885 -0.0050  0.4151
 4833W        W25113  17.542  15.155  12.395 -0.0096 -0.2043  0.1389
 4834W        W25114   8.870   5.487  14.025  0.0587  0.0009 -0.0240
 4835W        W25115   2.981   8.287   4.444 -0.2388  0.2079 -0.0315
 4836W        W25116  16.495   0.732   2.517 -0.1201  0.0926  0.1241
 4837W        W25117   9.496   7.237   4.006 -0.1592 -0.0712 -0.0305
 4838W        W25118   9.081   5.157  15.776  0.1543 -0.0324 -0.0051
 4839W        W25119   8.845  17.869   0.911  0.0209  0.0266  0.0541
 4840W        W25120  17.440   1.747   3.399  0.2837  0.2522 -0.1875
 4841W        W25121   6.115   0.308  15.630 -0.2523 -0.3133 -0.1881
 4842W        W25122   2.477  14.057  12.351  0.2685  0.0320 -0.1628
 4843W        W25123   0.875  17.152  15.516  0.0268  0.0890 -0.0334
 4844W        W25124   2.774   6.443  13.412  0.0568 -0.1861 -0.0045
 4845W        W25125  16.181  11.272   0.752 -0.5025  0.0859 -0.0319
 4846W        W25126  10.793  11.143   5.636  0.0817 -0.0601 -0.0281
 4847W        W25127   1.394   5.438  15.488  0.0272  0.0789  0.0965
 4848W        W25128  10.238   3.755  12.994 -0.0450  0.0555 -0.1068
 4849W        W25129   5.432   7.022   4.104 -0.0082  0.0620 -0.1138
 4850W        W25130   4.462  10.002   3.480 -0.1963  0.1466 -0.0179
 4851W        W25131  16.126  17.697   2.116  0.2253  0.0523  0.0198
 4852W        W25132   9.803   1.303  11.836  0.1177 -0.4569  0.2598
 4853W        W25133  17.340  17.931  14.731 -0.0791  0.1476  0.0328
 4854W        W25134   0.583  14.245  13.577 -0.3318  0.3703  0.0156
 4855W        W25135  11.707   9.982  13.141 -0.0095 -0.1799  0.5095
 4856W        W25136   7.947  16.968  16.463  0.2140 -0.2814  0.2269
 4857W        W25137  13.887  16.802   3.105  0.0180 -0.0136  0.2249
 4858W        W25138  11.215  17.945   3.546 -0.3595  0.1990 -0.2478
 4859W        W25139   0.169   3.352  13.170  0.3579 -0.0465 -0.1062
 4860W        W25140   4.253   5.671   3.944  0.2186  0.0195 -0.0517
 4861W        W25141  13.051  14.018   4.355 -0.1594 -0.1373  0.2198
 4862W        W25142   8.041  13.651  14.213  0.5031  0.0868  0.1185
 4863W        W25143  16.452  17.928  14.120  0.1046 -0.0939  0.0128
 4864W        W25144   4.998   5.254  14.797 -0.2661  0.0651 -0.1656
 4865W        W25145   3.054  15.460   0.310 -0.2175 -0.3763 -0.0027
 4866W        W25146  12.517   6.109  13.754 -0.2454 -0.0053 -0.3526
 4867W        W25147  15.418   6.806  16.228  0.2420  0.0413 -0.2533
 4868W        W25148   5.512   8.145  13.861 -0.1972 -0.4486  0.2376
 4869W        W25149   9.316  10.480  13.673  0.3775  0.1666 -0.0279
 4870W        W25150  12.450   1.887   1.019 -0.1799 -0.2671  0.0145
 4871W        W25151  16.876   5.079  13.949  0.1007  0.0606 -0.1419
 4872W        W25152  17.175  17.048  10.962 -0.0726  0.1300  0.0958
 4873W        W25153   1.300  13.808   1.889  0.1067  0.2295 -0.2722
 4874W        W25154  13.420  10.000   0.669  0.1215 -0.0284 -0.0305
 4875W        W25155   4.203  14.265  14.817  0.0323 -0.1022  0.3386
 4876W        W25156  14.504   2.506  16.033  0.1867 -0.0120  0.1849
 4877W        W25157  14.939   9.780  16.415  0.1363  0.0112 -0.2911
 4878W        W25158  11.780   2.231   2.766 -0.0924 -0.1068  0.1997
 4879W        W25159   6.349  15.688  14.598 -0.3564 -0.0163 -0.2242
 4880W        W25160   1.755  15.975   3.424 -0.3953 -0.0182 -0.1926
 4881W        W25161  17.125   2.739   0.334  0.0361  0.0537 -0.1035
 4882W        W25162  10.037  10.155   3.666  0.1571  0.0139  0.2362
 4883W        W25163   8.377   2.076   2.683  0.0855 -0.0408  0.1803
 4884W        W25164  16.352  15.488  15.011 -0.0968  0.0197  0.2203
 4885W        W25165  17.442  16.833  12.611  0.0390 -0.3012  0.3499
 4886W        W25166   6.683  10.191   3.752  0.0953 -0.1924 -0.1344
 4887W        W25167  12.437  16.641  11.817  0.2564  0.2881 -0.0762
 4888W        W25168  15.416   4.874  12.233 -0.0900 -0.2164  0.2416
 4889W        W25169  12.996   9.741   3.372  0.2125  0.0776  0.0095
 4890W        W25170   4.317   2.200  13.817  0.2444 -0.0039 -0.0148
 4891W        W25171  14.933   5.880  14.258 -0.1761 -0.0866  0.0303
 4892W        W25172   2.356   1.976   3.779  0.0737  0.0872 -0.1441
 4893W        W25173   4.897   8.262   1.810  0.2921  0.1704  0.0535
 4894W        W25174   9.666   7.868  15.411 -0.0591  0.1279  0.1396
 4895W        W25175   4.480   7.777   3.895 -0.2209 -0.0377  0.3175
 4896W        W25176  14.838  10.630  15.249 -0.1124  0.0204 -0.0783
 4897W        W25177  16.134  17.347  15.979  0.0153  0.0903  0.2365
 4898W        W25178  11.762  11.524   1.818 -0.2022 -0.1998 -0.1046
 4899W        W25179   4.016  15.198   3.538  0.1569  0.2541 -0.2096
 4900W        W25180   8.342   3.630  13.846 -0.1558  0.1476 -0.0983
 4901W        W25181  12.300  15.834  15.435 -0.2127 -0.0706  0.0366
 4902W        W25182   5.645   4.825  13.105  0.4575  0.1352 -0.1241
 4903W        W25183   0.522  12.479   4.235  0.1725 -0.0911 -0.1362
 4904W        W25184   3.628   5.004   1.040 -0.2557 -0.1180  0.2723
 4905W        W25185   6.794  12.363   4.357 -0.0400 -0.1275 -0.2324
 4906W        W25186   6.310   2.859  16.506 -0.0264 -0.0367  0.1873
 4907W        W25187  17.014   7.583   2.110  0.0798  0.1444 -0.1628
 4908W        W25188   6.680   6.768  16.034 -0.0269  0.1688 -0.1670
 4909W        W25189   4.208  10.322   5.172  0.0399  0.0965  0.2413
 4910W        W25190  14.078  13.630   4.121  0.0699  0.1206 -0.2818
 4911W        W25191  16.274   3.909   0.914 -0.0550  0.0671  0.1061
 4912W        W25192   4.304   9.591  12.267  0.0215  0.1259 -0.0700
 4913W        W25193   4.274   7.757   0.446  0.2759  0.2055 -0.0570
 4914W        W25194   1.078  11.152  12.756  0.2161  0.1704  0.0293
 4915W        W25195   8.145   0.949   3.576 -0.1179  0.0348 -0.1858
 4916W        W25196   5.261   8.825  14.388  0.0830 -0.1253  0.1501
 4917W        W25197  15.414   6.190  15.296 -0.0975  0.1502  0.1317
 4918W        W25198  15.687   4.543  16.004  0.0391 -0.3718  0.0010
 4919W        W25199  13.620   8.160   0.069 -0.1212  0.3641  0.2288
 4920W        W25200   4.612  14.297   2.138 -0.0894  0.3033 -0.3516
 4921W        W25201  14.066  13.351  14.119 -0.1106 -0.0569  0.2631
 4922W        W25202  15.461  17.074  12.360  0.0911 -0.1010 -0.0353
 4923W        W25203  16.592  17.815   1.632  0.2004  0.1883 -0.2025
 4924W        W25204  11.564   3.394  12.365  0.0759  0.1386  0.3129
 4925W        W25205   1.563   1.342   3.697 -0.1069  0.0046  0.1287
 4926W        W25206   2.756  11.282   4.116 -0.1567  0.0463 -0.0295
 4927W        W25207   8.256  13.410   2.999  0.0221 -0.1295  0.1018
 4928W        W25208   8.449  12.735  13.854 -0.1006  0.2683 -0.0338
 4929W        W25209  13.511   2.004   3.201  0.1592  0.1119  0.1541
 4930W        W25210  12.751  15.559  16.177 -0.1137 -0.1976 -0.0631
 4931W        W25211   1.032  15.919   1.064 -0.0646  0.1832 -0.1490
 4932W        W25212   4.717   5.653  15.035  0.0373  0.2500 -0.1736
 4933W        W25213   8.896   1.773   1.645 -0.1939  0.1343 -0.2385
 4934W        W25214   7.015  16.893   3.573 -0.1481  0.0132  0.0306
 4935W        W25215   4.720   9.877   1.344  0.2236  0.1174 -0.1070
 4936W        W25216   7.235   2.803  15.141 -0.0156 -0.1616  0.1005
 4937W        W25217  12.385   4.932  14.488 -0.2069 -0.1499  0.1917
 4938W        W25218  17.079  14.494   0.538  0.2418 -0.1500 -0.3279
 4939W        W25219  13.097  10.412  16.144  0.0541  0.0351  0.2207
 4940W        W25220  17.228  13.983   0.622  0.3227  0.0189 -0.1227
 4941W        W25221   9.664  12.698   1.993  0.1391  0.1756  0.0129
 4942W        W25222  13.276   4.645  13.500 -0.0378 -0.2969 -0.0517
 4943W        W25223   2.478  11.973  14.570  0.1383 -0.0667  0.1206
 4944W        W25224  14.168   4.940  14.999  0.1090  0.0109  0.2374
 4945W        W25225   1.644  14.711   4.701 -0.1825 -0.0877  0.1687
 4946W        W25226   8.709   6.852   3.582 -0.0225  0.3361 -0.1593
 4947W        W25227  12.577   8.232  13.906  0.0861 -0.3932  0.5185
 4948W        W25228   8.640   3.200  14.017  0.0037 -0.1356  0.1461
 4949W        W25229  16.187   7.174  15.204  0.1425  0.0204 -0.1594
 4950W        W25230  16.301  12.077   3.058  0.1522 -0.0936  0.1791
 4951W        W25231  14.341   7.543   4.571  0.2390 -0.0531 -0.3212
 4952W        W25232   7.409  11.843  14.496 -0.0336 -0.0784 -0.0752
 4953W        W25233   9.462  17.835   2.934  0.1190  0.1034 -0.0009
 4954W        W25234  10.481  10.602   4.790  0.1299  0.0591 -0.3709
 4955W        W25235   3.882   7.590  15.683  0.1040 -0.0819  0.1864
 4956W        W25236   7.842   8.430  15.773 -0.1962 -0.2163 -0.2602
 4957W        W25237   6.489  15.217   0.415 -0.2107 -0.0527 -0.0775
 4958W        W25238  13.534  13.712   1.002 -0.1767 -0.2298  0.1211
 4959W        W25239   8.448   9.929   3.439  0.0306 -0.0402 -0.3781
 4960W        W25240  16.346  13.052   4.749  0.1396  0.1994 -0.2754
 4961W        W25241   6.844   6.047  12.566  0.2460  0.0301 -0.0611
 4962W        W25242  15.056   6.923  13.012  0.2928 -0.1072  0.0780
 4963W        W25243   2.112  11.385  15.699 -0.0461 -0.1790  0.0521
 4964W        W25244   3.937  11.879   4.762 -0.2435  0.0954 -0.2415
 4965W        W25245  15.825   0.397  13.584  0.2493  0.2009 -0.2257
 4966W        W25246  17.595   2.776   3.213 -0.2404 -0.1652 -0.0353
 4967W        W25247   6.542  10.842   3.829  0.1173 -0.1279  0.3775
 4968W        W25248   6.053  17.658   0.962  0.3429  0.1297  0.0104
 4969W        W25249   2.280   4.348  15.248  0.0473  0.0372  0.0613
 4970W        W25250  14.896  16.532  13.763 -0.2870  0.1525  0.0317
 4971W        W25251  17.072   5.815   4.208  0.1166  0.0748  0.1190
 4972W        W25252  14.398  17.385  15.596  0.4109 -0.0846  0.0724
 4973W        W25253  16.152  13.289  15.191 -0.2051  0.1683  0.0215
 4974W        W25254  13.569  12.426   3.725  0.0183 -0.4108  0.1306
 4975W        W25255   6.311   3.879  12.999 -0.0743 -0.2763  0.1773
 4976W        W25256   3.228  13.599  16.264  0.2863 -0.0772  0.1572
 4977W        W25257   3.659   3.040  14.974 -0.1097  0.0646  0.0732
 4978W        W25258  16.656  14.929   3.423  0.0500  0.3011 -0.0592
 4979W        W25259   2.763  15.477  16.046 -0.1557 -0.4308  0.2300
 4980W        W25260  11.750  10.223   3.024 -0.1232 -0.1765  0.0594
 4981W        W25261  14.828   6.672   2.891 -0.1428  0.2383 -0.0206
 4982W        W25262  13.943   8.260  15.891 -0.1799 -0.2368  0.1301
 4983W        W25263  17.261  16.102   2.082  0.4346  0.1184  0.3826
 4984W        W25264  14.907  13.430  16.265 -0.0220 -0.0582  0.1013
 4985W        W25265   1.775  13.334  14.772  0.1378  0.0781 -0.1355
 4986W        W25266   7.429  10.332   4.139  0.2262 -0.0559 -0.0565
 4987W        W25267  17.051  15.720   3.642 -0.3465  0.1489  0.1495
 4988W        W25268  13.664  10.846   4.239  0.0312 -0.1943  0.2397
 4989W        W25269  15.565  15.185   4.787  0.1043  0.1952 -0.0600
 4990W        W25270   0.690   0.874  14.918 -0.1770 -0.2215  0.2813
 4991W        W25271  13.513  10.689   0.241  0.1311  0.2793 -0.0246
 4992W        W25272   1.812  17.602  13.414 -0.0142 -0.0507 -0.1364
 4993W        W25273  15.310  15.796   0.054  0.1068 -0.0763 -0.1834
 4994W        W25274  11.669   7.225   1.019 -0.0558  0.0840  0.1385
 4995W        W25275  11.752  10.335  15.241  0.1451 -0.2961  0.1737
 4996W        W25276  17.110   9.439   2.962  0.1239 -0.0683  0.2577
 4997W        W25277   7.324   6.420  15.127  0.1068  0.0298 -0.2384
 4998W        W25278   9.853   7.701   4.622 -0.3514  0.2533  0.1023
 4999W        W25279   4.927   9.104  13.372  0.1189  0.0485  0.0421
 5000W        W25280   5.324  11.825  15.864 -0.0402 -0.2821 -0.0818
 5001W        W25281   1.951  10.926   2.920  0.0495 -0.3184 -0.0731
 5002W        W25282   5.228  10.603   3.662  0.1301  0.0541  0.4219
 5003W        W25283   2.574   9.583  15.798  0.1035  0.0679  0.0999
 5004W        W25284   0.958  17.938   1.233 -0.0404 -0.1727  0.2551
 5005W        W25285   9.359   1.377   2.651  0.2168 -0.3995  0.3747
 5006W        W25286  12.634  16.684  12.291  0.1930 -0.0966 -0.0493
 5007W        W25287   4.259  17.598   4.590 -0.0427  0.1314  0.2918
 5008W        W25288  15.530   7.802  15.218  0.2087 -0.0110  0.0550
 5009W        W25289   5.949   9.657   5.266 -0.0985 -0.0635  0.0594
 5010W        W25290  15.483  13.991   0.013  0.2379  0.0057 -0.0409
 5011W        W25291   7.339   2.382  11.977 -0.2174 -0.3072 -0.1300
 5012W        W25292  16.822   7.580  16.407  0.4838 -0.1305  0.0740
 5013W        W25293  17.293   0.452  16.616 -0.0334 -0.0283  0.2819
 5014W        W25294   1.515   9.245   3.711  0.3120 -0.1298  0.2579
 5015W        W25295   2.758   1.399   4.013  0.0032 -0.0405  0.0947
 5016W        W25296  16.849  11.080   4.653 -0.0148 -0.0885  0.2413
 5017W        W25297  13.280  13.920   1.648  0.2470 -0.0187 -0.1361
 5018W        W25298  15.822  17.610   0.275  0.3552  0.2382 -0.1992
 5019W        W25299  15.087  14.723   2.286 -0.1582 -0.0962 -0.0806
 5020W        W25300  11.808   2.341  13.127 -0.1131  0.1940 -0.0213
 5021W        W25301   6.765  10.132   4.263 -0.1699 -0.0878 -0.1288
 5022W        W25302   6.134   6.423   2.773 -0.3246  0.0032 -0.1748
 5023W        W25303  13.162   2.639   4.748 -0.3133 -0.1547  0.2587
 5024W        W25304  16.344  13.593   1.831 -0.3390  0.2854 -0.0074
 5025W        W25305   0.544   1.557  15.180 -0.0795 -0.0171  0.1700
 5026W        W25306   3.234   7.841  14.265  0.1513 -0.1878  0.0534
 5027W        W25307  14.381  11.289  13.977  0.1211 -0.1490 -0.1395
 5028W        W25308  16.862   4.209  13.234 -0.0974 -0.1452  0.0869
 5029W        W25309   6.922   6.794   0.827 -0.1458 -0.1918  0.0133
 5030W        W25310   1.099   9.271   1.872  0.1334 -0.0720  0.1457
 5031W        W25311   1.783  14.611  13.288  0.2132  0.1673  0.0288
 5032W        W25312  12.382   8.155  15.055  0.1064  0.1059  0.3770
 5033W        W25313   6.362  11.710   2.174  0.0662  0.0341  0.2525
 5034W        W25314   9.631   5.195  11.900 -0.0488  0.1339 -0.2526
 5035W        W25315  17.611   8.104   3.544  0.0554  0.2645 -0.1509
 5036W        W25316   1.011  11.385   2.987  0.1520  0.2047  0.0820
 5037W        W25317   8.894   3.502   0.259 -0.0596 -0.0873 -0.0512
 5038W        W25318   3.325  10.904   2.426  0.1666 -0.0370  0.2834
 5039W        W25319  10.630   5.704   4.498  0.0700  0.1365 -0.2485
 5040W        W25320   4.452   7.241  13.803  0.0637 -0.0567 -0.2369
 5041W        W25321   0.266  11.539  12.627 -0.3912 -0.0887  0.0960
 5042W        W25322  15.008   8.860   0.082  0.2454 -0.1912 -0.1395
 5043W        W25323   4.757   9.543  12.827  0.0404  0.0908  0.0241
 5044W        W25324   4.798  12.664  15.889 -0.1745 -0.1301 -0.1099
 5045W        W25325  17.968   5.933  13.825  0.1756  0.3867  0.1378
 5046W        W25326   9.406   4.862  13.175 -0.1730 -0.0637  0.0316
 5047W        W25327  11.378  17.699   2.525 -0.3945 -0.3217 -0.0853
 5048W        W25328  15.057  10.681  11.775  0.0981  0.1551 -0.0785
 5049W        W25329   5.382  16.279  16.270  0.1707 -0.3329 -0.1510
 5050W        W25330   7.106  14.549  13.393  0.0329 -0.1894  0.1003
 5051W        W25331   5.082   9.526  14.921  0.0830  0.0724 -0.0816
 5052W        W25332  13.982  17.596   1.895 -0.0497 -0.1708  0.0955
 5053W        W25333   9.572  15.748  12.633  0.0912 -0.0295  0.2147
 5054W        W25334  11.595  14.414  16.382  0.1406 -0.0089  0.1277
 5055W        W25335  17.248  15.983  13.844  0.1328  0.2685  0.1431
 5056W        W25336   3.619   2.264  12.802 -0.0988  0.0391  0.1931
 5057W        W25337   7.887   5.046  14.333  0.0404 -0.2334  0.2757
 5058W        W25338  14.424   6.461   3.178  0.3821 -0.0423  0.0195
 5059W        W25339  16.857   3.766  13.440  0.0955  0.0531 -0.0118
 5060W        W25340   5.582   4.391   4.969  0.0477 -0.1186 -0.1680
 5061W        W25341   3.943   0.349  11.770  0.0328 -0.1107  0.0748
 5062W        W25342  14.628   4.707  14.281 -0.3455  0.1685 -0.0780
 5063W        W25343   1.216  11.540  13.556 -0.1418  0.0327 -0.0196
 5064W        W25344   7.672  10.021   4.865  0.1373 -0.2107 -0.0365
 5065W        W25345  17.419   7.623  15.669  0.0179  0.0494  0.1711
 5066W        W25346  17.767   5.242   3.086 -0.2205 -0.4317 -0.0321
 5067W        W25347   3.714  11.967  14.599 -0.2257 -0.0457 -0.2688
 5068W        W25348   3.619   9.292   1.863 -0.0626 -0.2105  0.1804
 5069W        W25349   7.114   7.472  14.860 -0.1543 -0.3155 -0.2517
 5070W        W25350   8.009   2.747  12.623  0.3843  0.2691  0.4256
 5071W        W25351  10.890   9.247   3.370 -0.0144  0.2152  0.1381
 5072W        W25352   4.342  12.661  13.332  0.2618 -0.0172 -0.0061
 5073W        W25353   3.441   9.129  15.999  0.2708  0.0172 -0.3784
 5074W        W25354   4.138   4.975  16.427  0.1442  0.1084  0.1182
 5075W        W25355   9.944  14.519   0.991  0.0197  0.2797  0.0340
 5076W        W25356   0.118   4.918   0.036 -0.1448 -0.0792  0.0903
 5077W        W25357  10.680   8.821  12.018 -0.2572  0.0660 -0.2225
 5078W        W25358   1.542   9.472   2.812 -0.0628 -0.0705  0.0263
 5079W        W25359   6.981  15.273  14.669 -0.0442 -0.1006  0.0191
 5080W        W25360   3.604   7.212  13.958 -0.0488 -0.0238 -0.0249
 5081W        W25361  15.081   4.541   0.303 -0.2648  0.0388 -0.4302
 5082W        W25362   8.398  16.451  12.299  0.0282 -0.1692 -0.6624
 5083W        W25363  11.936   3.683  13.080  0.0901  0.1602  0.1884
 5084W        W25364  13.906  11.986   1.592 -0.1704 -0.1759 -0.1598
 5085W        W25365   9.143   7.172   1.667  0.0869 -0.2388  0.2483
 5086W        W25366   7.016   9.452   2.613 -0.0232  0.1238  0.2027
 5087W        W25367   5.889  10.640  12.982 -0.1707  0.1217 -0.0153
 5088W        W25368  10.502  17.170   3.636 -0.2599  0.3457  0.0447
 5089W        W25369   1.262   3.683  12.541  0.0330 -0.2285  0.1079
 5090W        W25370  16.989   2.468   4.456 -0.0691  0.0665 -0.3345
 5091W        W25371  17.766   3.711   4.086 -0.4146 -0.0328  0.0686
 5092W        W25372  12.271  11.411   2.761  0.4638 -0.0050 -0.0662
 5093W        W25373   9.792  15.200  12.069  0.1339  0.1363 -0.4304
 5094W        W25374   7.311  10.590  11.833  0.0394  0.3452  0.3305
 5095W        W25375   4.600   2.445   2.355  0.0535 -0.2769 -0.0308
 5096W        W25376   1.898   2.916   3.827  0.1717 -0.0100  0.0127
 5097W        W25377   8.372   0.594   2.336  0.2557 -0.2520 -0.0530
 5098W        W25378   9.945  11.573   3.993 -0.0350 -0.1812 -0.0355
 5099W        W25379   3.764  17.619  12.193  0.1405 -0.2198  0.1031
 5100W        W25380  10.744   9.700   1.820  0.0381 -0.0881  0.0407
 5101W        W25381  14.911   9.557   4.042 -0.2207 -0.3723 -0.2038
 5102W        W25382   4.301  13.710   1.394  0.1298 -0.3927  0.2921
 5103W        W25383  10.914  14.157  12.281  0.1403  0.2589  0.2560
 5104W        W25384   0.289   5.274  16.022  0.1406 -0.2094  0.1988
 5105W        W25385   8.899  14.856   1.735  0.1453 -0.1875 -0.0199
 5106W        W25386   9.734  16.689   0.690  0.0142  0.0360 -0.1460
 5107W        W25387   1.178   9.801  16.301  0.2278  0.1222 -0.0288
 5108W        W25388  13.992   2.450   1.328  0.1781  0.1992  0.1510
 5109W        W25389  10.089  17.241  15.901  0.2011 -0.3837 -0.2320
 5110W        W25390  15.499  13.079  14.706  0.0094  0.1957 -0.1910
 5111W        W25391   2.801   2.567  15.281 -0.0396 -0.2242 -0.0877
 5112W        W25392   2.097   0.813  14.946 -0.1612 -0.0911 -0.1634
 5113W        W25393   2.664  15.587  15.346 -0.3916  0.1882 -0.1371
 5114W        W25394   8.783  16.003  12.305 -0.0535 -0.2143 -0.0828
 5115W        W25395  17.304   4.995  13.407  0.3001 -0.2018 -0.0389
 5116W        W25396  15.013  11.050   0.530 -0.1644  0.0673 -0.1259
 5117W        W25397   8.926   9.541   1.908 -0.0005  0.1322 -0.0831
 5118W        W25398   3.999   8.576   6.465  0.0270 -0.0665 -0.1710
 5119W        W25399   9.597  11.372   4.335 -0.2941 -0.0183  0.1853
 5120W        W25400  10.453  15.912   2.137 -0.0007  0.2599  0.3099
 5121W        W25401   0.906  17.940   0.679  0.2847 -0.1061  0.0205
 5122W        W25402   6.811   6.097  11.803  0.0307  0.2738 -0.1828
 5123W        W25403   9.960  15.465   1.925 -0.2027  0.3808  0.1011
 5124W        W25404   7.183   0.967  15.333  0.0445  0.0465 -0.1215
 5125W        W25405   4.591  14.891   0.505  0.0263 -0.1352  0.3900
 5126W        W25406   0.833   9.627   2.028 -0.0751 -0.1904  0.1352
 5127W        W25407  16.593  11.124  15.446 -0.2311  0.0543  0.1978
 5128W        W25408   4.172   7.669  12.686 -0.1958  0.0740 -0.1753
 5129W        W25409   2.396  13.409  13.476 -0.5290  0.1285  0.0115
 5130W        W25410  13.286   6.657  12.327 -0.2583  0.2779  0.0136
 5131W        W25411   0.871  10.274   1.239 -0.1606  0.2742 -0.1112
 5132W        W25412   1.185   3.988   2.049  0.1743 -0.2934  0.2143
 5133W        W25413  11.966   5.111   0.385  0.1112  0.1627 -0.1772
 5134W        W25414  14.330   5.918  13.741  0.1669 -0.0431  0.0796
 5135W        W25415   9.422   9.235   0.519 -0.0177 -0.0792 -0.0995
 5136W        W25416  13.400   4.084   2.820  0.2116  0.1376 -0.2325
 5137W        W25417  11.328   7.265   0.158 -0.0426  0.0047  0.2661
 5138W        W25418   0.709   5.081   3.379  0.0344  0.1305 -0.1163
 5139W        W25419   1.832  17.133   2.330  0.1529  0.1867  0.0636
 5140W        W25420  15.557   7.551  12.371 -0.4000 -0.0372 -0.0558
 5141W        W25421  12.394   0.572   2.906 -0.1192 -0.2473 -0.1760
 5142W        W25422  12.811   8.836  11.808 -0.0329 -0.0876  0.0534
 5143W        W25423   5.888   0.086   4.459  0.1706 -0.3948 -0.0652
 5144W        W25424   2.024   0.315  14.103 -0.3091  0.3593 -0.3841
 5145W        W25425  10.432   2.807  11.829  0.2287 -0.1668 -0.0966
 5146W        W25426   4.589  12.554   1.031  0.2809 -0.1902 -0.0571
 5147W        W25427  15.954   8.626   4.229  0.2836  0.2110  0.0561
 5148W        W25428  16.897  10.697   3.437  0.3376  0.1437  0.1925
 5149W        W25429   3.966  13.794  15.798 -0.3417 -0.0112  0.2442
 5150W        W25430   0.334  12.883   4.421 -0.0143 -0.0520 -0.3206
 5151W        W25431   1.599  13.953   4.265 -0.5660 -0.0143 -0.1512
 5152W        W25432  10.340  14.450  14.038  0.2676 -0.0533  0.1281
 5153W        W25433   4.367  16.888   0.229 -0.1824  0.0109  0.1130
 5154W        W25434   8.893  10.128   3.209 -0.0961 -0.1332 -0.3970
 5155W        W25435  14.572  17.989   4.546  0.0163  0.1700 -0.0407
 5156W        W25436  17.319  16.389   3.053 -0.3032 -0.3533 -0.0202
 5157W        W25437   2.482   3.533   1.254 -0.0593 -0.2705  0.1281
 5158W        W25438   2.115   7.817  14.903  0.0718 -0.0466  0.3504
 5159W        W25439   5.767   5.045  12.268 -0.0493 -0.0418 -0.0739
 5160W        W25440   5.652   0.606  11.638 -0.1034  0.1365  0.3435
 5161W        W25441   4.807  13.831   1.564 -0.0447  0.0245  0.2618
 5162W        W25442   8.090   1.937  12.116 -0.2020 -0.1697  0.0213
 5163W        W25443   8.101  11.430   3.911 -0.3156  0.0187  0.3994
 5164W        W25444   8.719   3.049  12.762 -0.1211  0.0510 -0.3035
 5165W        W25445  10.918   8.999  15.941 -0.4273 -0.2437  0.2417
 5166W        W25446   4.289  13.311   5.434 -0.0736  0.2068 -0.1146
 5167W        W25447  10.504  15.555   1.214 -0.0184  0.0676  0.1118
 5168W        W25448   3.307   3.450  12.177 -0.0362  0.2669  0.0664
 5169W        W25449   3.218  15.931   2.836  0.1099 -0.0637  0.0152
 5170W        W25450   1.761  17.621  14.701 -0.0101 -0.0043  0.0253
 5171W        W25451   1.840   8.434   0.267 -0.0995 -0.2950 -0.1318
 5172W        W25452   5.818   3.184  16.422  0.2889 -0.1506 -0.0792
 5173W        W25453  13.186   7.833   3.676 -0.4376 -0.1841 -0.0288
 5174W        W25454   2.719   2.478  12.894  0.1223  0.0803 -0.3065
 5175W        W25455   5.899  13.158  15.455  0.1380 -0.0821 -0.1658
 5176W        W25456  15.493  13.494   0.658 -0.4718  0.0483  0.0210
 5177W        W25457   2.312   5.095   4.354  0.3485 -0.0770  0.1927
 5178W        W25458   3.100   5.733   5.345 -0.1736 -0.1577  0.3072
 5179W        W25459   7.284  11.930  13.350 -0.1306  0.0487  0.0136
 5180W        W25460  13.644   3.113  14.671  0.1284 -0.1291  0.2066
 5181W        W25461  12.711  13.457  10.985  0.0899 -0.1241 -0.0076
 5182W        W25462   8.319  13.563   2.043 -0.0999  0.0503  0.0626
 5183W        W25463   3.743   6.281  16.178 -0.1804  0.1184  0.2497
 5184W        W25464   5.272  12.726   1.808  0.0223  0.0943  0.0204
 5185W        W25465  12.207   2.851   3.437 -0.2059 -0.1575  0.2229
 5186W        W25466   8.952  17.810  12.672  0.2360 -0.2925 -0.0230
 5187W        W25467  14.740  10.243   0.405  0.2368  0.0964 -0.0313
 5188W        W25468  10.475   6.148  12.902  0.2845 -0.2261 -0.0699
 5189W        W25469   2.059  16.748   1.278  0.2332 -0.0204 -0.0227
 5190W        W25470  17.233   7.708  13.318 -0.1236 -0.1435 -0.0086
 5191W        W25471   0.481   6.402   2.602  0.1069  0.2572  0.0551
 5192W        W25472  17.513   5.144   3.501  0.0028  0.2353 -0.1420
 5193W        W25473   5.214   6.940   2.253  0.1240 -0.5184 -0.0121
 5194W        W25474   0.561   3.940   4.993  0.1684  0.0094 -0.1473
 5195W        W25475   5.045   8.474   0.943  0.1532 -0.2017  0.1326
 5196W        W25476  16.908   1.373   1.613  0.1634 -0.0296 -0.0876
 5197W        W25477   0.500  13.069  11.878  0.1663  0.0908  0.3949
 5198W        W25478   5.627   4.935   0.168  0.1818 -0.0206  0.0652
 5199W        W25479   5.529   8.769  12.605  0.5165 -0.1525 -0.0660
 5200W        W25480  16.030   3.831   3.923  0.0000 -0.1158  0.0058
 5201W        W25481   2.345  10.168   4.420 -0.0535  0.0214  0.1283
 5202W        W25482   2.518   6.276   4.273  0.0010  0.3444  0.5910
 5203W        W25483  14.392   7.428   2.152 -0.2179 -0.1593  0.2978
 5204W        W25484   1.777   3.437   0.539  0.0191 -0.2918  0.1668
 5205W        W25485   2.881   4.609   2.732 -0.0084 -0.0892  0.2580
 5206W        W25486  16.549  17.382  13.382 -0.0841 -0.1154  0.1470
 5207W        W25487  13.294   4.915  12.119  0.1538  0.1038 -0.0511
 5208W        W25488  10.500   2.182   0.881  0.1783  0.0203  0.1577
 5209W        W25489   3.215   4.974   4.867  0.1251 -0.0275 -0.2038
 5210W        W25490  12.614   0.015  11.940 -0.2334 -0.0690  0.0439
 5211W        W25491   3.154  16.501   2.842  0.2450 -0.0372 -0.1131
 5212W        W25492   2.967   7.919   2.653  0.0908 -0.2694  0.0528
 5213W        W25493  14.746   0.078   2.504  0.0530  0.0247  0.2588
 5214W        W25494   5.369   2.451   0.239  0.2113 -0.2126  0.0174
 5215W        W25495   8.315   9.321   4.881  0.3120  0.3296  0.1112
 5216W        W25496   3.010  12.313  12.739 -0.2274  0.1691 -0.1711
 5217W        W25497  10.052  11.448  12.999 -0.4162  0.3994 -0.0705
 5218W        W25498   9.898  14.017   4.141  0.2495 -0.3853  0.0061
 5219W        W25499  16.528   0.221   2.605 -0.0468 -0.3364 -0.3946
 5220W        W25500   0.008   1.729  13.943 -0.1163  0.0745  0.1991
 5221W        W25501   2.659  12.445  11.936 -0.0802 -0.0281 -0.2077
 5222W        W25502  12.877  12.624   1.450 -0.0137  0.0435 -0.1315
 5223W        W25503   0.286  15.470  12.890  0.1182  0.0209  0.2811
 5224W        W25504  12.774   2.142   2.205 -0.0250 -0.0666  0.0386
 5225W        W25505  10.203  15.772   2.879  0.0017  0.2004 -0.2915
 5226W        W25506   5.233  11.035   2.766  0.1133 -0.1829  0.1197
 5227W        W25507   7.423  10.371   4.647 -0.0162 -0.0652  0.3020
 5228W        W25508   2.312   2.486  16.217  0.2399  0.2507 -0.1366
 5229W        W25509   2.395  14.521  15.491  0.0725  0.3906 -0.0051
 5230W        W25510  10.214  17.902   0.777  0.0828  0.1591 -0.3117
 5231W        W25511  16.295   3.100  15.176  0.0686 -0.2648  0.0636
 5232W        W25512  14.439   6.799  16.129 -0.0696  0.2181  0.0202
 5233W        W25513   3.940   2.874  13.121  0.0431 -0.0659 -0.0029
 5234W        W25514   4.054   0.048  15.476  0.1122  0.0008  0.2777
 5235W        W25515  16.019  10.664   2.798 -0.0843  0.0641  0.1744
 5236W        W25516   0.796  10.074  13.914 -0.0689  0.0180  0.3361
 5237W        W25517   2.371   9.948   1.885 -0.0541  0.3790 -0.0977
 5238W        W25518  12.228   9.049  11.969 -0.0979 -0.3160  0.0983
 5239W        W25519   3.407   3.552  15.063 -0.1034  0.1343  0.0076
 5240W        W25520   3.464   4.600   2.353  0.0498 -0.0339  0.0662
 5241W        W25521  14.834   5.706   0.960 -0.3155  0.2947 -0.0231
 5242W        W25522   0.795  11.491  12.532  0.2354  0.1684 -0.0635
 5243W        W25523  12.914   1.570   3.375  0.0457  0.0903  0.4117
 5244W        W25524   3.768  13.792   3.114 -0.0138  0.2178 -0.1995
 5245W        W25525   4.592   0.018  14.883 -0.0093  0.2719  0.1104
 5246W        W25526   8.922   0.679  15.662 -0.0217 -0.4655  0.3803
 5247W        W25527   3.403  16.463  16.126  0.3869  0.0028 -0.1399
 5248W        W25528  11.846  13.472   1.148  0.1350 -0.1408 -0.0918
 5249W        W25529   8.926  12.832  13.754 -0.1360  0.0374  0.2333
 5250W        W25530   0.048   4.704  16.057 -0.0005  0.0894  0.2268
 5251W        W25531   2.586  11.549   5.091 -0.0916 -0.0280 -0.0358
 5252W        W25532  15.803   3.069  12.022  0.3239  0.0756  0.2844
 5253W        W25533  12.927   9.267   1.903 -0.2465  0.0562 -0.3189
 5254W        W25534  11.261  10.122  12.799  0.0226  0.0338  0.0365
 5255W        W25535   6.022  14.011  13.402  0.0168  0.0913 -0.1733
 5256W        W25536   3.017   4.097  13.875 -0.0036 -0.1153  0.1363
 5257W        W25537   1.465  17.363   3.240 -0.2723  0.1480  0.1272
 5258W        W25538  16.597   5.409   2.517 -0.0619  0.4512 -0.0227
 5259W        W25539   4.213  17.338   2.108  0.1160  0.2065  0.0010
 5260W        W25540  12.511   4.357   0.321 -0.0520 -0.0804 -0.0732
 5261W        W25541  13.487  16.688   3.365 -0.0023 -0.0341 -0.1073
 5262W        W25542  13.431  13.305   3.614  0.0016 -0.0062  0.0789
 5263W        W25543   6.660   5.951  13.899 -0.1316 -0.1257  0.2260
 5264W        W25544  10.238  11.569  13.736  0.1478  0.2390  0.2757
 5265W        W25545   4.887  12.888   3.268 -0.1575  0.1738  0.1556
 5266W        W25546  14.644   5.863  15.757 -0.0647 -0.0010  0.0961
 5267W        W25547  12.116  13.309  13.826  0.2794  0.1095 -0.0466
 5268W        W25548   8.932   5.408   1.452  0.3625 -0.1923  0.2699
 5269W        W25549   1.694  11.371   5.165  0.0179  0.2107  0.0313
 5270W        W25550  12.737  15.583  15.187  0.4716  0.3261 -0.2261
 5271W        W25551  17.698  14.552   1.350  0.0080  0.3880  0.1681
 5272W        W25552   3.103   0.510   3.409  0.1428 -0.1818 -0.2091
 5273W        W25553   2.285   0.610   3.504  0.2933  0.0418 -0.3730
 5274W        W25554  17.838  16.502   3.170 -0.0849 -0.1763 -0.1231
 5275W        W25555   5.805  12.705  13.802  0.1918 -0.1026  0.0637
 5276W        W25556  10.249  14.491   4.008 -0.1246 -0.1641  0.2355
 5277W        W25557   1.729   0.543   1.118 -0.1651 -0.3016  0.1094
 5278W        W25558  12.916  12.618   0.441 -0.2076 -0.1476 -0.1139
 5279W        W25559  13.253  16.667   0.572 -0.3234 -0.0887 -0.0427
 5280W        W25560   8.341   9.688  12.322  0.2470 -0.1003 -0.0395
 5281W        W25561  14.718   6.755   4.472  0.1237  0.1272  0.0875
 5282W        W25562   8.488   1.282   0.197 -0.1165 -0.3539 -0.2551
 5283W        W25563  11.596  12.984   1.959 -0.1054 -0.0813 -0.2503
 5284W        W25564   1.390  13.924   2.747 -0.2284  0.1780  0.0232
 5285W        W25565  14.367  15.895   3.717 -0.0927 -0.0113  0.1226
 5286W        W25566  13.058   9.995  15.726  0.1786  0.2035  0.0110
 5287W        W25567   7.409   4.509   1.259 -0.1984 -0.3457 -0.1191
 5288W        W25568  10.415  14.628  13.542 -0.1001 -0.1308  0.1397
 5289W        W25569   9.285  11.529   1.106 -0.2388 -0.2586  0.1509
 5290W        W25570   8.334  10.049   3.900  0.0703 -0.3671 -0.0576
 5291W        W25571   3.371  13.852   2.772 -0.2106 -0.0136  0.0314
 5292W        W25572   8.284   9.349  15.934  0.1471  0.0820  0.1661
 5293W        W25573   8.907  16.365   1.108  0.0448  0.1334 -0.2025
 5294W        W25574   2.045  15.351  13.990 -0.1710  0.1364  0.0500
 5295W        W25575  12.967   8.613  13.077  0.0146  0.2068 -0.1348
 5296W        W25576  16.576   4.464   1.577  0.1085  0.0877 -0.1029
 5297W        W25577  10.522  13.223   2.719  0.0313 -0.3946 -0.0725
 5298W        W25578   9.372   9.305  13.121  0.0216  0.0438  0.0196
 5299W        W25579  11.084   0.528  13.712  0.0462  0.4153 -0.1461
 5300W        W25580  16.340   2.046   1.331 -0.1325  0.2083  0.0450
 5301W        W25581   0.524  17.100  15.145  0.0017 -0.1276 -0.2957
 5302W        W25582  13.628   8.000  15.584  0.2179 -0.1084  0.1131
 5303W        W25583   6.164   6.635   0.679  0.2111  0.3656  0.3833
 5304W        W25584  13.735   6.717  12.603  0.0233  0.0555  0.0026
 5305W        W25585  15.525  12.052   4.970  0.3124 -0.0841  0.0710
 5306W        W25586  13.465   1.438   2.185 -0.0354 -0.0725 -0.0869
 5307W        W25587   4.516   4.883   4.606  0.0128 -0.0693  0.0456
 5308W        W25588  14.086  10.845  12.854  0.3033  0.4041  0.0434
 5309W        W25589  17.356   7.391  14.619 -0.0193 -0.2293 -0.2712
 5310W        W25590  17.502   9.144   3.090  0.1334  0.0863 -0.3507
 5311W        W25591   8.293   3.096   0.762 -0.0347  0.2837  0.3048
 5312W        W25592  11.117  16.088  15.091  0.2160 -0.0238  0.0611
 5313W        W25593   2.237   8.515  16.131  0.0019  0.2067 -0.1551
 5314W        W25594  12.655  12.406   2.756 -0.3275  0.2908  0.1486
 5315W        W25595   2.980  11.153  14.055 -0.1021 -0.2321 -0.0409
 5316W        W25596   5.958  11.555  15.848 -0.0696  0.4616  0.0630
 5317W        W25597  10.804   5.407   1.000 -0.0687  0.1112 -0.0084
 5318W        W25598  13.823   4.907  13.529 -0.2374  0.0557 -0.1340
 5319W        W25599   5.009  16.119   3.902 -0.4077  0.1691  0.3741
 5320W        W25600  16.672  13.538   2.825 -0.0125  0.0796  0.1486
 5321W        W25601   1.462  11.119  14.542 -0.1690 -0.1536 -0.1198
 5322W        W25602   0.723   1.167   3.616  0.2240  0.1045  0.2473
 5323W        W25603   6.926   5.449   4.176  0.3775  0.3582  0.1627
 5324W        W25604   4.953   1.631  13.444  0.0124  0.1377  0.2110
 5325W        W25605  10.567   5.025   0.131  0.2787  0.2783  0.0366
 5326W        W25606   7.530   1.117  12.654 -0.1622 -0.2946 -0.1379
 5327W        W25607  13.383  10.768   2.043  0.0558 -0.0556  0.1443
 5328W        W25608   2.507   1.898  16.329 -0.0417  0.1166  0.0331
 5329W        W25609  14.509  11.924   1.552  0.1215  0.1104  0.3197
 5330W        W25610  12.243  15.362  14.770 -0.5094 -0.2614  0.0424
 5331W        W25611   9.790  15.874  13.598  0.0930  0.2718 -0.3912
 5332W        W25612   5.023   2.523  12.114  0.0200  0.1425  0.0883
 5333W        W25613  17.931  13.839  14.200 -0.1601 -0.1574  0.1784
 5334W        W25614  10.582  12.867  12.290 -0.1170  0.0219  0.4464
 5335W        W25615  12.952   9.754   2.844 -0.0179  0.2714  0.0957
 5336W        W25616  14.057   0.239   2.773 -0.0208  0.0674  0.0430
 5337W        W25617  12.006  17.493  12.069  0.0673 -0.2472  0.0774
 5338W        W25618  16.695  12.893  12.171  0.0642 -0.0732  0.1914
 5339W        W25619   7.802  17.151  14.597  0.0919  0.0567 -0.4425
 5340W        W25620  16.222  11.490   3.937  0.0342 -0.2090 -0.2142
 5341W        W25621  11.751   5.900   0.359 -0.1081 -0.1729 -0.0173
 5342W        W25622  16.153  11.865  15.636  0.3161 -0.1679  0.0830
 5343W        W25623  17.286   8.129   0.993  0.1533 -0.2378  0.1186
 5344W        W25624  14.162   4.394   0.741 -0.0675  0.0568  0.0134
 5345W        W25625   4.879  17.109   4.088  0.0852  0.1568 -0.0294
 5346W        W25626   2.398  15.142  16.186 -0.2157  0.0824 -0.0796
 5347W        W25627   5.812   3.576   5.079 -0.0866 -0.3514  0.3233
 5348W        W25628  15.588   4.588   3.081 -0.0934  0.0396 -0.0695
 5349W        W25629  13.976  11.337  13.159  0.1291 -0.0148  0.0974
 5350W        W25630   9.128   7.608   4.255 -0.0653  0.0760  0.1050
 5351W        W25631  17.286  17.647   1.432  0.1264  0.1219  0.4412
 5352W        W25632  14.173   4.067  13.821 -0.1405  0.0189 -0.0531
 5353W        W25633   1.535  10.454  14.545 -0.0913 -0.0590 -0.0107
 5354W        W25634   9.430  12.196   4.719 -0.0499  0.1911  0.3013
 5355W        W25635   1.569   2.097  15.147 -0.1492  0.0721 -0.0559
 5356W        W25636   1.850   0.549  13.652 -0.0260  0.2504  0.3885
 5357W        W25637   4.566  15.334  14.393 -0.2104  0.0263  0.1181
 5358W        W25638   9.041   4.538   2.373  0.1229  0.2228  0.2965
 5359W        W25639  16.017  15.834   0.993 -0.2745  0.3039  0.1514
 5360W        W25640  17.090   0.033   4.692  0.0733 -0.3119  0.1012
 5361W        W25641   4.578   0.526   1.385 -0.1907 -0.0485  0.3741
 5362W        W25642  11.357   4.684   4.608 -0.1862  0.1327  0.3656
 5363W        W25643  15.896  16.042   2.762  0.1350 -0.1110  0.0736
 5364W        W25644  10.107   5.729  14.653 -0.3113 -0.1120  0.1363
 5365W        W25645  15.388   2.478   4.613  0.2160  0.0565  0.0965
 5366W        W25646   0.944   9.383   1.371 -0.2475 -0.1626 -0.0474
 5367W        W25647   7.873   6.348   0.795  0.1203 -0.2077  0.0124
 5368W        W25648   7.311  14.002   4.726  0.3732  0.0774  0.2034
 5369W        W25649   4.220   6.967  14.590 -0.3094 -0.0051  0.1110
 5370W        W25650  12.844   8.325  15.058  0.1815  0.0459 -0.0628
 5371W        W25651  17.149   9.053   3.414 -0.2227 -0.2358  0.5263
 5372W        W25652   0.316   8.264   1.158  0.0058  0.2249  0.5636
 5373W        W25653   7.625   1.884  11.979 -0.0010  0.0537  0.2212
 5374W        W25654   8.537  17.262  11.975 -0.0719  0.2234  0.0292
 5375W        W25655   5.303   9.174   1.461  0.0084  0.1011  0.0980
 5376W        W25656  14.382   6.329  15.104  0.1300 -0.1437 -0.1054
 5377W        W25657   1.525   7.362  16.602 -0.1996  0.0857  0.0891
 5378W        W25658  13.124   2.508  12.550 -0.1899 -0.3341 -0.0546
 5379W        W25659   8.708   7.375   1.772 -0.0359  0.1172 -0.1867
 5380W        W25660  15.481   3.339  12.270 -0.1341 -0.2509 -0.2510
 5381W        W25661  10.668   3.741  12.045 -0.3098 -0.5490  0.2736
 5382W        W25662  15.179  15.544   0.583 -0.0366  0.1233 -0.2220
 5383W        W25663  10.107   7.540  12.419 -0.0239  0.0723 -0.3365
 5384W        W25664  14.447   2.802  14.452 -0.2640  0.1308 -0.1781
 5385W        W25665  14.346  12.971  16.694 -0.0412 -0.2335  0.1191
 5386W        W25666  15.148   0.923  12.636 -0.1196 -0.2596 -0.0498
 5387W        W25667   8.426  13.899   2.848 -0.2657  0.2943 -0.1817
 5388W        W25668  13.088  12.727  16.314 -0.1037 -0.2017  0.2264
 5389W        W25669   9.843  15.936   3.152 -0.1781 -0.4162  0.1359
 5390W        W25670   3.868  17.130  15.114 -0.0081 -0.1689  0.0896
 5391W        W25671   8.651   9.216  15.587 -0.0980 -0.1965  0.2330
 5392W        W25672  15.029  12.903   1.210 -0.1037 -0.2413 -0.0365
 5393W        W25673   3.567  15.228   0.202  0.0077 -0.1220 -0.0055
 5394W        W25674  11.008  15.554   0.183 -0.0732 -0.0248 -0.1408
 5395W        W25675  10.587  17.115  15.933 -0.1611  0.0135 -0.2871
 5396W        W25676   9.978   3.653  11.433 -0.2349  0.1925  0.1047
 5397W        W25677  16.203   9.580   0.429 -0.0703 -0.1342 -0.1635
 5398W        W25678   4.043   3.285   0.172  0.2452  0.1844 -0.1591
 5399W        W25679   3.217   0.996   1.677  0.0536 -0.2380  0.0859
 5400W        W25680  16.936  12.668   0.366  0.3487  0.1503 -0.0901
 5401W        W25681   3.178   2.326   4.903 -0.1024 -0.1791  0.1861
 5402W        W25682   3.995  12.556  14.070  0.0266 -0.3000 -0.1889
 5403W        W25683   7.761   5.780   0.965 -0.0907  0.1134  0.1626
 5404W        W25684   6.068   9.701  12.732  0.1946  0.1390 -0.0559
 5405W        W25685  14.596   7.703  16.210 -0.1397 -0.1688 -0.3150
 5406W        W25686   6.681  13.196  15.434  0.1151  0.1026  0.0823
 5407W        W25687   3.982   9.997  14.132  0.1621 -0.0359 -0.1793
 5408W        W25688  15.700   5.610  16.512 -0.1285 -0.1520 -0.0992
 5409W        W25689  17.728  14.471  13.674 -0.0939  0.1337 -0.1595
 5410W        W25690   1.034  10.910  15.460  0.1260 -0.4262 -0.5061
 5411W        W25691   4.672   7.130  15.196 -0.1392  0.2528  0.4369
 5412W        W25692   9.587  10.570   1.213  0.5088 -0.1230  0.1430
 5413W        W25693   1.502  12.105   1.227  0.1695  0.0338  0.2427
 5414W        W25694   6.479  13.454   3.447 -0.1760 -0.2092  0.1242
 5415W        W25695  10.828   7.829  16.067  0.1419 -0.0208  0.1199
 5416W        W25696   7.605   5.068   1.829 -0.1544 -0.3380  0.2583
 5417W        W25697  13.718   9.208   3.236 -0.1199  0.0155 -0.1914
 5418W        W25698   1.818  12.236  12.903 -0.1768  0.0120 -0.2740
 5419W        W25699  14.627   9.114   4.082 -0.2616  0.2631 -0.2592
 5420W        W25700   3.005  10.615   3.574 -0.5376 -0.0610 -0.0752
 5421W        W25701  12.405  15.879  13.339  0.1109 -0.3978 -0.1649
 5422W        W25702  13.984  10.553  12.430  0.1674 -0.2545 -0.1528
 5423W        W25703   9.710   0.364   2.040 -0.2078 -0.2252  0.0045
 5424W        W25704   3.736  10.912   1.557 -0.0954 -0.1290  0.1097
 5425W        W25705   3.224  12.968  13.241 -0.1984 -0.1123  0.0699
 5426W        W25706  16.137  13.945  13.065 -0.1097  0.0078 -0.0708
 5427W        W25707   8.615   4.604   1.986  0.1499 -0.2440  0.1781
 5428W        W25708  14.962   6.627   1.875  0.0874  0.1630  0.0297
 5429W        W25709  16.242   0.438   4.206  0.0102  0.1819 -0.0046
 5430W        W25710   2.054   5.632   0.552  0.2418  0.1475 -0.2007
 5431W        W25711   2.858  12.931   4.971  0.2679  0.0456 -0.0186
 5432W        W25712  12.847   1.249  12.260 -0.0494 -0.0022 -0.1039
 5433W        W25713  14.881   0.770   4.099 -0.0918 -0.0444  0.0785
 5434W        W25714  13.814  16.801  13.063  0.3331  0.2094 -0.0180
 5435W        W25715  15.643  13.712  11.938  0.0229 -0.3178  0.0260
 5436W        W25716  15.756  13.989   4.193 -0.2264  0.1207  0.3939
 5437W        W25717   3.726  11.683  12.441 -0.0229 -0.0125  0.1422
 5438W        W25718  14.473   1.082  14.930 -0.1344  0.1581 -0.0666
 5439W        W25719   4.717   0.992  14.869  0.2337 -0.1790  0.3617
 5440W        W25720   6.281  15.807  15.867  0.1379  0.1828  0.1600
 5441W        W25721  16.254  14.632  15.724  0.0686  0.4121 -0.2839
 5442W        W25722  15.273  15.466  14.245 -0.0497  0.3899 -0.2363
 5443W        W25723   0.536  14.779   2.130  0.3936 -0.1461  0.1768
 5444W        W25724   3.244  10.682  15.622  0.1535  0.3141 -0.1544
 5445W        W25725   3.257   3.520  12.724 -0.0595  0.1185  0.2032
 5446W        W25726   5.337  17.824   0.691  0.0604 -0.0809  0.2086
 5447W        W25727   8.725   3.637   1.956  0.0572  0.0417 -0.0255
 5448W        W25728   0.223   3.893  13.822  0.0891  0.1606  0.0285
 5449W        W25729   7.042   5.619  12.599  0.2913 -0.1056  0.2040
 5450W        W25730  17.611   3.513  16.347 -0.1748 -0.1133 -0.0520
 5451W        W25731  16.091   4.924  13.443  0.0047  0.3181 -0.2516
 5452W        W25732   9.104   6.992   1.145  0.2279 -0.0351 -0.0675
 5453W        W25733  16.541   9.110   2.602 -0.1905 -0.0217  0.0973
 5454W        W25734   6.805  16.233   2.453  0.0489 -0.1927  0.2396
 5455W        W25735   0.747  13.063   0.763 -0.0798  0.1020 -0.3581
 5456W        W25736   0.444   0.471  16.171  0.1246  0.1168  0.2567
 5457W        W25737   8.455   4.189  13.856 -0.2278  0.0746  0.3845
 5458W        W25738   2.557   5.952   2.521  0.3664  0.2861  0.2271
 5459W        W25739  16.841   8.456   2.648  0.0383 -0.2458 -0.0229
 5460W        W25740   7.518   1.683  16.480  0.0507 -0.5030  0.1509
 5461W        W25741  14.936  16.082  16.518  0.0505  0.0219 -0.1012
 5462W        W25742   0.852   4.626  16.333 -0.4276 -0.2868  0.0635
 5463W        W25743   4.755  12.417  12.170  0.0157 -0.1029 -0.0071
 5464W        W25744  16.852  14.688  14.001 -0.1355  0.2532 -0.0069
 5465W        W25745   8.596   8.915  16.658  0.1147  0.3792 -0.0544
 5466W        W25746   6.003   7.468  15.598  0.3472 -0.0031  0.0163
 5467W        W25747   0.599  10.192   2.101 -0.2118 -0.2165  0.3826
 5468W        W25748   5.346  16.666   2.381  0.4964 -0.1377 -0.0034
 5469W        W25749   3.074  15.231  15.204  0.2485  0.0854 -0.1747
 5470W        W25750   8.370   1.287   1.125  0.1778  0.1425 -0.0676
 5471W        W25751   1.091  17.416   1.039 -0.1271  0.2357  0.0589
 5472W        W25752   7.127   0.728  16.275 -0.1008 -0.1466 -0.2776
 5473W        W25753  10.223  15.106  15.216 -0.1254 -0.0953 -0.4007
 5474W        W25754   4.486  17.677   2.420 -0.1564  0.2701 -0.0956
 5475W        W25755  11.939  14.480  14.203 -0.3080 -0.2380  0.1331
 5476W        W25756   4.215   2.467  12.957  0.1352 -0.2382  0.0303
 5477W        W25757  13.231  15.684  15.924  0.2816  0.0301  0.3650
 5478W        W25758   1.727   9.877  14.946  0.4801 -0.3805 -0.2385
 5479W        W25759   0.745   4.098  13.884  0.0402 -0.1064 -0.0515
 5480W        W25760  16.697   0.118   1.123  0.0506  0.0139 -0.2191
 5481W        W25761   7.357  13.422   3.328  0.2132 -0.0253  0.2730
 5482W        W25762   9.932  10.244  16.545 -0.1748 -0.1364 -0.2631
 5483W        W25763   1.273  16.842  15.670 -0.3171 -0.1668  0.1788
 5484W        W25764   4.382   1.470   3.875  0.1694  0.0794 -0.0564
 5485W        W25765   5.947   7.725  16.075  0.1270  0.0932 -0.4133
 5486W        W25766   1.988   6.895   1.029  0.2445 -0.0246 -0.1536
 5487W        W25767   2.711  15.010   0.394 -0.2280 -0.2008  0.1729
 5488W        W25768   0.659   4.760   2.958  0.2086 -0.1943  0.1796
 5489W        W25769  14.313  16.521  15.130  0.0829 -0.0733  0.0909
 5490W        W25770  15.776   9.477  12.131 -0.0996 -0.0044 -0.0325
 5491W        W25771   9.427   0.242  14.345 -0.1150 -0.2254  0.0749
 5492W        W25772   3.306   7.328   2.615  0.1443 -0.0326 -0.1643
 5493W        W25773  13.980   9.509   3.595 -0.1350 -0.3808 -0.0188
 5494W        W25774   5.574   6.257  13.314 -0.0153  0.0477 -0.2085
 5495W        W25775  16.080   2.300  15.437  0.3417  0.1318 -0.1340
 5496W        W25776   6.994  15.990   4.001 -0.0535  0.3878  0.1231
 5497W        W25777   2.524   5.579   4.273  0.2726  0.0587 -0.0364
 5498W        W25778   2.207  17.207  15.604  0.0289 -0.1620 -0.0942
 5499W        W25779   5.062  10.755   1.476  0.0569  0.2568  0.0842
 5500W        W25780   0.512   2.253  16.342  0.0031 -0.1955  0.2082
 5501W        W25781  10.612  13.100  15.956 -0.1731  0.1701  0.0003
 5502W        W25782  11.078   8.415  13.071  0.2237 -0.0889 -0.0613
 5503W        W25783  17.267   6.175   2.682  0.2387 -0.0665 -0.3088
 5504W        W25784   4.476   3.657   1.032  0.1613  0.0433  0.0518
 5505W        W25785  14.105   6.280  16.448 -0.0847 -0.0369 -0.0810
 5506W        W25786   6.893  13.980  14.626  0.0108  0.4768  0.0985
 5507W        W25787   3.359   6.972  12.468 -0.0071 -0.0165 -0.0327
 5508W        W25788  12.088  11.686  13.751  0.0835 -0.1962 -0.1703
 5509W        W25789  10.252  16.690  15.574 -0.1490  0.0682 -0.1282
 5510W        W25790  13.914   7.496   0.779  0.2204  0.0802 -0.1590
 5511W        W25791  17.809   9.350  12.721 -0.0282 -0.0309 -0.2659
 5512W        W25792   9.186  14.120  16.323 -0.0698 -0.2143 -0.1587
 5513W        W25793   9.223   8.414  15.460 -0.1630 -0.0660  0.0746
 5514W        W25794  15.796  10.260   5.727 -0.2806  0.2163 -0.1469
 5515W        W25795  15.667  14.837   4.295  0.1792  0.2249  0.2498
 5516W        W25796  15.475  16.312   4.714 -0.0724 -0.0219  0.2692
 5517W        W25797   1.315   2.679   0.229  0.1869  0.5153  0.1564
 5518W        W25798  14.897   0.452  16.540  0.1048  0.0230  0.0669
 5519W        W25799  12.761   8.039   3.978 -0.2777  0.0840 -0.2283
 5520W        W25800   7.292   6.622   1.172 -0.0181  0.0471 -0.0902
 5521W        W25801   7.385  11.076   1.040 -0.0494  0.2487  0.2912
 5522W        W25802  11.674  16.583  14.593  0.0806  0.0189  0.1105
 5523W        W25803   8.840  15.830   3.886  0.1410 -0.0768 -0.0825
 5524W        W25804   6.037   8.720  10.988 -0.1301  0.3100  0.2079
 5525W        W25805   5.817   6.006   1.533 -0.1577  0.0368  0.4114
 5526W        W25806  12.720   2.753  14.393 -0.0994  0.2828  0.1695
 5527W        W25807   0.926  11.581   1.680  0.4165  0.1365  0.1522
 5528W        W25808   2.315  10.855   1.984 -0.1122 -0.3881 -0.4096
 5529W        W25809   4.198   5.407  16.694 -0.0397 -0.2489 -0.2533
 5530W        W25810   3.699   2.991  13.789  0.2224 -0.2836 -0.1626
 5531W        W25811  16.362   9.545  14.744 -0.0216 -0.3177 -0.2240
 5532W        W25812   3.797  11.572  13.456  0.0397  0.2397 -0.1204
 5533W        W25813  13.566   0.197  16.327  0.1112 -0.1252  0.0696
 5534W        W25814  11.661  12.092  12.561 -0.0089  0.1682  0.2993
 5535W        W25815   0.463   5.766  12.907 -0.1155 -0.0573  0.0982
 5536W        W25816   2.380   4.848   0.575 -0.2388 -0.1393  0.1375
 5537W        W25817  13.871   4.551   1.140  0.0415 -0.0832  0.0885
 5538W        W25818   3.046   1.915  12.053  0.4758 -0.1125  0.0736
 5539W        W25819   7.867   3.334   2.119 -0.2257  0.1603  0.0916
 5540W        W25820  16.303  16.876   4.483 -0.1523  0.0761  0.0966
 5541W        W25821   5.901  13.306  15.966 -0.0469  0.0249  0.1135
 5542W        W25822   2.623  16.924  15.711  0.1462  0.0414 -0.2583
 5543W        W25823   1.958   1.646  12.601 -0.1308  0.0565 -0.1161
 5544W        W25824   0.002   8.077  15.838  0.0651  0.1410  0.1143
 5545W        W25825   4.958  17.244  12.763 -0.1804 -0.1602 -0.1821
 5546W        W25826   5.805  11.385   2.021 -0.0297 -0.1641 -0.0889
 5547W        W25827  15.161  16.007   2.018  0.2582 -0.0882  0.1501
 5548W        W25828   9.747   8.585  14.820  0.3472  0.0064 -0.0833
 5549W        W25829   6.838   4.538   1.467 -0.1991 -0.1903  0.0144
 5550W        W25830  16.887   6.393   4.095 -0.0947  0.2629  0.1841
 5551W        W25831   8.762   2.505  15.324 -0.1134 -0.0413  0.0078
 5552W        W25832   6.125   0.216   1.340  0.0439  0.3888 -0.1981
 5553W        W25833   1.276  17.847   3.109 -0.2455  0.3441 -0.1521
 5554W        W25834   2.532   1.288  12.192 -0.2896 -0.2417 -0.0790
 5555W        W25835   5.435   8.539   3.246  0.2105 -0.5745  0.0249
 5556W        W25836  12.401  14.299  14.776  0.0661 -0.0632  0.0350
 5557W        W25837   5.100   2.632   4.514 -0.0085  0.1208  0.1717
 5558W        W25838   3.223   1.592   2.304  0.0958  0.1967 -0.0122
 5559W        W25839   3.515   3.806  13.120 -0.1390 -0.1044  0.0199
 5560W        W25840  15.961  14.121  13.484 -0.2688 -0.0278  0.0714
 5561W        W25841   4.337  10.473   4.241 -0.0905 -0.2031 -0.0639
 5562W        W25842   1.992  14.742  16.535  0.0858 -0.0078 -0.0283
 5563W        W25843   7.263   9.423   3.719 -0.0397 -0.2449 -0.2053
 5564W        W25844   8.724  12.609   0.916  0.1376 -0.3020 -0.0251
 5565W        W25845   0.732   0.533  12.018  0.0728  0.0392 -0.0035
 5566W        W25846  10.060  14.194   2.947  0.1042  0.2222  0.2326
 5567W        W25847  10.636   5.799  14.912 -0.1932  0.0028 -0.1709
 5568W        W25848  10.174  13.927  12.957  0.1042 -0.2631  0.0787
 5569W        W25849  16.171   8.786  13.083 -0.2768 -0.0937 -0.0870
 5570W        W25850   3.614   3.340  15.506 -0.0572 -0.2290 -0.1392
 5571W        W25851   2.392   0.008   2.330 -0.1711 -0.0091  0.0901
 5572W        W25852   8.651   0.988   0.623  0.0336  0.0483 -0.3920
 5573W        W25853  16.111   8.962   1.570 -0.0249 -0.1839  0.2933
 5574W        W25854   4.087   7.661   1.769 -0.0967  0.3924  0.2181
 5575W        W25855   8.028   8.468  14.073  0.0401 -0.1595  0.1266
 5576W        W25856   0.769  15.664   3.469 -0.2944 -0.2931 -0.3336
 5577W        W25857   3.734   9.752   3.852  0.0665  0.1221 -0.0507
 5578W        W25858  14.703   9.839   2.639  0.0491  0.2148  0.3315
 5579W        W25859   1.018   0.739   3.956 -0.3334  0.1623 -0.0029
 5580W        W25860   8.532   3.238   2.745 -0.2656 -0.0845  0.0926
 5581W        W25861   5.434  16.774   1.607  0.0140 -0.0817  0.2114
 5582W        W25862   1.586   4.202   3.929 -0.2016  0.2827 -0.1288
 5583W        W25863   0.504  10.895  16.043 -0.2491  0.5025 -0.3047
 5584W        W25864   8.408   1.903  16.131 -0.0832  0.2426 -0.2829
 5585W        W25865   0.581  12.135   2.414  0.0149 -0.0454 -0.1539
 5586W        W25866   1.955   8.791   0.587  0.0301  0.2961 -0.2560
 5587W        W25867   4.012  16.336  15.704 -0.1773  0.2242  0.2149
 5588W        W25868   9.830   6.143   3.839 -0.0656  0.3624  0.2372
 5589W        W25869  17.235   2.809  13.152  0.0448 -0.0277 -0.0021
 5590W        W25870   8.401  13.197  13.898 -0.0314  0.0086  0.2461
 5591W        W25871  16.803  10.346  16.460  0.0309 -0.3120  0.1070
 5592W        W25872  17.119   5.861   3.041  0.0271  0.2671 -0.1381
 5593W        W25873   7.217  17.400   0.368  0.1684 -0.2561  0.1313
 5594W        W25874  17.711  16.462   2.232 -0.0411  0.0429 -0.1188
 5595W        W25875   6.754   1.127   1.233  0.2822  0.1246  0.2303
 5596W        W25876   8.955   2.413   3.981  0.2336  0.1084 -0.1272
 5597W        W25877  13.606   6.028   3.846  0.1042  0.1150  0.0334
 5598W        W25878   9.905   5.137   4.223 -0.0553  0.2995  0.1721
 5599W        W25879  16.306  17.013  12.593  0.2797  0.0706  0.1663
 5600W        W25880  13.202  12.197  14.986 -0.0412  0.0190 -0.1038
 5601W        W25881   1.152  15.461   1.201  0.0734  0.1437  0.0053
 5602W        W25882   6.022  10.521  13.849  0.0847 -0.0814  0.1253
 5603W        W25883   8.329  10.880  13.033  0.1411  0.1748 -0.1343
 5604W        W25884   3.761  17.329  13.530 -0.0884  0.1792 -0.0116
 5605W        W25885   4.691  11.425  16.509 -0.0733 -0.2026 -0.0282
 5606W        W25886   7.354   0.285   3.842 -0.2884 -0.0559  0.0767
 5607W        W25887   2.481   7.593   0.838 -0.1552 -0.0092  0.0027
 5608W        W25888   3.833  16.561  12.913  0.1562 -0.0197  0.0105
 5609W        W25889  16.459  17.459  14.933 -0.1382 -0.1339  0.2158
 5610W        W25890  12.478   1.757   3.033 -0.0606  0.0812 -0.1439
 5611W        W25891   3.092   0.045   0.739 -0.0512 -0.1534 -0.0923
 5612W        W25892  13.213  11.445  14.546 -0.2344  0.0282  0.0150
 5613W        W25893   1.048   1.473  16.328 -0.2993 -0.2633  0.1409
 5614W        W25894  12.371  12.566   4.109  0.0113  0.2530 -0.1099
 5615W        W25895  15.053   9.725  14.963  0.1109 -0.1379  0.0173
 5616W        W25896  14.526   0.643  14.067 -0.1169 -0.1729  0.0976
 5617W        W25897  16.074   2.310  11.827  0.3161  0.1389 -0.0939
 5618W        W25898  13.200  12.166   2.280 -0.1806  0.2321 -0.0634
 5619W        W25899   3.737   9.467   4.992  0.2879  0.0553  0.1109
 5620W        W25900  12.381   8.922  15.578 -0.0023  0.1087 -0.2672
 5621W        W25901  17.387   8.050   4.623 -0.2296 -0.0574 -0.0256
 5622W        W25902   4.187  15.980   3.398 -0.4026 -0.1017  0.3936
 5623W        W25903   2.096   3.723   5.307 -0.0450 -0.0749  0.0118
 5624W        W25904   3.940  14.350   1.502  0.0043  0.0424 -0.1935
 5625W        W25905  17.269  12.740  14.911 -0.1886 -0.0059 -0.0148
 5626W        W25906  12.665  13.714   0.560 -0.1787 -0.1318  0.2251
 5627W        W25907   1.686   4.015  12.369 -0.0472 -0.0514  0.0459
 5628W        W25908  17.026  10.415   1.730  0.1689  0.0019 -0.1120
 5629W        W25909   6.756   1.364  12.883  0.3026  0.0172 -0.1580
 5630W        W25910  15.439   7.030  12.674  0.0716 -0.1882  0.2364
 5631W        W25911  11.314  16.630   3.941  0.2585 -0.0796 -0.0080
 5632W        W25912  10.654   1.847  13.266  0.0625  0.2086  0.0874
 5633W        W25913  10.857  14.116  12.803  0.2606  0.2654 -0.0215
 5634W        W25914  16.080  15.610  16.439  0.1463  0.1225 -0.0422
 5635W        W25915  16.853   8.339   1.261 -0.1739  0.0254 -0.0213
 5636W        W25916  15.656  11.995   4.505 -0.0889  0.0731 -0.1120
 5637W        W25917  15.443   5.693  12.573 -0.0739  0.2294 -0.0755
 5638W        W25918  15.466   9.705   4.153 -0.0734  0.2280  0.2178
 5639W        W25919   0.838  12.958   3.887  0.1409  0.1126 -0.2282
 5640W        W25920  14.955  16.566  11.980  0.3775 -0.1091  0.0417
 5641W        W25921   6.647   6.623   3.527  0.2438  0.2826  0.1648
 5642W        W25922   8.059  16.614   4.307  0.0747 -0.0486 -0.0179
 5643W        W25923   5.775   0.682  13.187 -0.3059  0.1451 -0.3141
 5644W        W25924   6.311   4.054  15.375  0.3345 -0.0007 -0.0804
 5645W        W25925  11.148  16.324  12.018 -0.0041  0.0168  0.0706
 5646W        W25926   3.593  12.117   3.184 -0.2576 -0.0317 -0.2895
 5647W        W25927  14.175   9.263   2.362  0.2941 -0.0330  0.0113
 5648W        W25928  17.229   2.683  16.579 -0.2068  0.2594 -0.1032
 5649W        W25929  10.101   2.885  14.969 -0.0416 -0.1533 -0.1583
 5650W        W25930  16.591  11.597  13.353  0.3495 -0.2719  0.0616
 5651W        W25931   9.916  16.381   3.753 -0.3146  0.2981 -0.1974
 5652W        W25932   2.553  16.931  12.232  0.2522  0.1446 -0.0176
 5653W        W25933  13.163  15.973   4.427  0.1829  0.2770 -0.0586
 5654W        W25934   9.034   5.349  15.298  0.1954  0.1042 -0.1587
 5655W        W25935  13.502  11.906   1.874  0.0213 -0.1804 -0.1596
 5656W        W25936  13.201   7.181  13.234 -0.0241  0.0136 -0.1773
 5657W        W25937  14.245   6.673  15.527 -0.0355  0.0853  0.0492
 5658W        W25938  11.558  17.771   3.187  0.4346 -0.0141 -0.1650
 5659W        W25939  12.671   3.269   1.292  0.0295 -0.1642 -0.1307
 5660W        W25940   3.490  12.526  12.193  0.1904  0.0070  0.2331
 5661W        W25941  17.260   8.809  15.595  0.0846 -0.2198  0.0099
 5662W        W25942   8.945  12.429   3.893 -0.1368 -0.1948 -0.0129
 5663W        W25943   0.179  10.802   1.423 -0.0160  0.2339 -0.1573
 5664W        W25944   7.376  14.646   4.024  0.0191  0.4004  0.0984
 5665W        W25945   6.388   9.234  13.511 -0.0329  0.0862  0.0548
 5666W        W25946   2.773   2.824   3.650  0.0212  0.0134  0.2342
 5667W        W25947   7.185  12.218  12.698 -0.2541  0.2785 -0.3285
 5668W        W25948  15.500   8.992   3.664  0.3167 -0.1775 -0.1537
 5669W        W25949  12.471   2.640   1.856 -0.0276  0.1405  0.2105
 5670W        W25950  15.198   4.464  14.772 -0.0994  0.0076  0.0569
 5671W        W25951   4.515  14.495  15.630 -0.2072 -0.0927  0.0818
 5672W        W25952   8.326   7.063  14.516 -0.1339  0.1769 -0.1732
 5673W        W25953   0.312   9.952   5.872  0.1158 -0.1374  0.4687
 5674W        W25954   7.842   3.845   2.870  0.1406  0.0706 -0.3204
 5675W        W25955  10.267   6.555  14.047  0.3074  0.1152 -0.4198
 5676W        W25956  15.989   0.043  13.926 -0.0634  0.1092  0.2530
 5677W        W25957  13.795   9.492   1.979 -0.0352  0.2156  0.1048
 5678W        W25958   6.321   0.656  12.212 -0.0977 -0.0718 -0.0557
 5679W        W25959  15.160   2.697   1.511 -0.0638  0.0189 -0.2295
 5680W        W25960  17.954   9.766   0.152  0.0245 -0.0464 -0.0743
 5681W        W25961  13.776   3.476   0.250 -0.0455  0.2138 -0.3034
 5682W        W25962   4.643   9.562  14.253 -0.3906  0.0407  0.0845
 5683W        W25963   2.101   3.190   1.247 -0.0378  0.0962  0.0070
 5684W        W25964  17.032  14.732   2.005  0.5625 -0.0344 -0.1810
 5685W        W25965   2.500   5.409   4.769 -0.0877 -0.1084 -0.1038
 5686W        W25966   3.237   2.604  12.572 -0.3006  0.0216  0.0913
 5687W        W25967   7.174   9.651  13.870 -0.2600 -0.2567 -0.2224
 5688W        W25968  13.616   1.684   2.652 -0.5003 -0.0606 -0.3547
 5689W        W25969   5.873  10.925   1.260 -0.1626  0.0360 -0.0854
 5690W        W25970  17.297  17.110   1.743  0.0490 -0.0527 -0.0615
 5691W        W25971  16.705  13.639   4.138  0.0515 -0.4199  0.1743
 5692W        W25972  10.413   4.836   2.822 -0.1468 -0.2372  0.1470
 5693W        W25973  13.175   9.584   1.593 -0.1210  0.0715 -0.1438
 5694W        W25974   9.192   0.833   0.893 -0.1717  0.2478 -0.1129
 5695W        W25975   7.592   7.178  15.635  0.1497  0.2264 -0.0425
 5696W        W25976   2.447  16.730   3.719  0.0859 -0.1196 -0.3261
 5697W        W25977   0.982  16.392   0.260 -0.1823  0.2272  0.1349
 5698W        W25978   5.489  14.982   3.640 -0.0749 -0.2159 -0.2477
 5699W        W25979   9.114   3.577   2.243  0.0369  0.2006 -0.2387
 5700W        W25980   6.903   8.155  14.497 -0.0470  0.2551 -0.0038
 5701W        W25981  16.813   0.012   3.706  0.0880  0.0873 -0.1546
 5702W        W25982  17.308   9.913   0.977 -0.1279  0.2483  0.1825
 5703W        W25983  13.660  14.362   4.908 -0.0345  0.1286  0.1549
 5704W        W25984   6.892  13.531   0.440  0.1784 -0.1264 -0.0897
 5705W        W25985   4.096   8.724   1.649  0.0258  0.4307  0.1030
 5706W        W25986   6.558  13.948   3.512 -0.2913  0.0771  0.1619
 5707W        W25987  17.013   2.422   0.715 -0.0707 -0.0180  0.3310
 5708W        W25988   0.066   5.380   0.191  0.1792  0.0912 -0.3333
 5709W        W25989   2.967   8.374   2.995 -0.0980 -0.1904  0.1286
 5710W        W25990   2.683   3.685   2.517 -0.1049  0.0896 -0.1821
 5711W        W25991   6.584   5.243   3.292  0.1132  0.0958 -0.1456
 5712W        W25992   5.293  11.560  12.602 -0.0569 -0.0618  0.1495
 5713W        W25993   5.180  14.532  14.560 -0.3331  0.1966 -0.0439
 5714W        W25994   2.534   9.982   1.304 -0.0226  0.2223  0.0328
 5715W        W25995  16.150  12.189  16.595 -0.0263 -0.0547 -0.2862
 5716W        W25996   4.765   3.385  14.488 -0.0603 -0.0218  0.2125
 5717W        W25997  14.161  15.001  13.071 -0.1711  0.3102  0.0574
 5718W        W25998  15.597   2.277  11.496  0.2593 -0.1132  0.0519
 5719W        W25999   5.395  17.808   3.031  0.0263 -0.0709  0.0125
 5720W        W26000   4.853   7.117  12.565 -0.2610 -0.0739  0.2466
 5721W        W26001   3.680  15.904  13.240 -0.1109  0.0143  0.0782
 5722W        W26002   8.958   9.758  13.150  0.2195  0.2686 -0.1790
 5723W        W26003   8.543   9.262   2.933 -0.1052 -0.0064  0.1014
 5724W        W26004  17.296  14.880  15.591 -0.0456  0.2746 -0.1905
 5725W        W26005   6.408  16.013   1.779  0.2791 -0.1739 -0.0220
 5726W        W26006  13.432  13.424   1.431 -0.2421  0.0731 -0.0805
 5727W        W26007   8.337  13.643   1.066  0.0764 -0.0546 -0.1483
 5728W        W26008   4.387   3.636   0.422  0.2486  0.1253  0.0656
 5729W        W26009   4.653  17.908   3.757  0.1885  0.0355 -0.2307
 5730W        W26010  16.211  11.943   0.479  0.0582  0.0046 -0.1099
 5731W        W26011   3.975   8.152  14.250  0.4598 -0.1209 -0.1663
 5732W        W26012   6.611  12.016  13.471 -0.1061 -0.1249  0.0863
 5733W        W26013   7.359   1.578   3.807  0.2957  0.0362  0.0173
 5734W        W26014   1.306  15.840  14.494  0.0997 -0.1642 -0.0415
 5735W        W26015   1.555   5.339   3.689  0.1764 -0.2038  0.2204
 5736W        W26016  12.797   0.470  16.075  0.0690 -0.2196  0.0111
 5737W        W26017   1.091  14.531   2.345  0.0060 -0.2229 -0.1200
 5738W        W26018  13.820  14.797  14.546 -0.1144 -0.0128  0.0270
 5739W        W26019  11.212   7.060   4.308  0.1729 -0.2173 -0.0740
 5740W        W26020  11.667  14.664   4.191 -0.1662 -0.0140  0.0266
 5741W        W26021   3.720  11.708  14.002  0.2482 -0.3856  0.3967
 5742W        W26022   4.982  13.675  14.919 -0.4232 -0.2455  0.0999
 5743W        W26023  14.651  13.396   0.013 -0.2834 -0.1259  0.1135
 5744W        W26024   2.145  14.602  12.919  0.1932  0.1946 -0.0269
 5745W        W26025  10.721  12.078  16.602 -0.1530 -0.2285 -0.1530
 5746W        W26026  14.128   5.704   0.402 -0.0014  0.1591 -0.0379
 5747W        W26027  16.389  13.569   2.386 -0.0715 -0.2693  0.0066
 5748W        W26028   1.312   3.699  15.566 -0.0288 -0.1062 -0.1583
 5749W        W26029   7.759  10.231   1.072  0.1655  0.3310 -0.0573
 5750W        W26030  16.950   0.504   3.458 -0.1743 -0.4226 -0.3266
 5751W        W26031   7.424   1.573  15.479 -0.0568  0.2248  0.1677
 5752W        W26032  14.123   2.798  16.352  0.2983 -0.0915  0.1525
 5753W        W26033   6.126  11.576   3.154  0.0523  0.0072 -0.1065
 5754W        W26034  15.395  11.113   0.097 -0.1420 -0.2916 -0.1755
 5755W        W26035   6.838   8.802   1.425 -0.3157 -0.1382  0.1666
 5756W        W26036   8.341   8.026  14.802 -0.1949 -0.3638 -0.0312
 5757W        W26037  14.810  12.538   1.512  0.1804  0.1730 -0.1217
 5758W        W26038   0.617  15.685   2.616  0.0582  0.0412 -0.2008
 5759W        W26039   9.070   0.261   0.622  0.0857 -0.1836 -0.0650
 5760W        W26040  17.082  10.823   3.863  0.1578 -0.0786 -0.2365
 5761W        W26041   6.278   9.872   2.129  0.3892  0.0008  0.4158
 5762W        W26042   9.675   7.109   0.525  0.2200 -0.0751  0.2410
 5763W        W26043   9.393   4.451  15.046 -0.0868 -0.1284 -0.0227
 5764W        W26044   3.145   5.663  13.122 -0.2990  0.0499  0.1650
 5765W        W26045  13.188  16.733   0.115  0.3787 -0.0701  0.2310
 5766W        W26046   3.256  13.535  13.015  0.0406 -0.1725  0.0255
 5767W        W26047   7.426   2.702  12.427 -0.3147  0.1504 -0.1963
 5768W        W26048   0.219   5.967  15.432 -0.1722 -0.0451  0.0040
 5769W        W26049  17.604   1.812  14.823 -0.2180 -0.1731  0.0230
 5770W        W26050   0.093   9.170  16.280  0.2163  0.1199  0.1197
 5771W        W26051   9.840   2.238  13.828  0.0347  0.1309  0.1940
 5772W        W26052  16.195   5.261  12.551  0.1543 -0.0966 -0.0705
 5773W        W26053  13.197  14.837   2.173  0.4156  0.0075  0.2452
 5774W        W26054  15.406  14.393   3.536  0.0537 -0.1017  0.1874
 5775W        W26055   0.512   1.652  13.867  0.0777 -0.0623  0.2410
 5776W        W26056   1.334   6.794   3.381 -0.0438  0.0612  0.1866
 5777W        W26057   5.404  15.083  11.685 -0.1227  0.0470 -0.0777
 5778W        W26058   9.750   4.504   0.989 -0.0082  0.0036 -0.0671
 5779W        W26059   2.790   8.611   5.442  0.0633 -0.0654  0.1947
 5780W        W26060   8.107   7.802   4.077 -0.0010 -0.1477 -0.3696
 5781W        W26061  17.947   9.401   0.842  0.1694  0.0845 -0.0387
 5782W        W26062   1.336   2.571   4.021  0.1847 -0.5632  0.0197
 5783W        W26063  16.095   3.746  16.181  0.1363 -0.1571 -0.2840
 5784W        W26064   5.763  12.518   1.775 -0.1150 -0.2420  0.0749
 5785W        W26065   2.735   8.757   1.677 -0.0342 -0.2176  0.4588
 5786W        W26066   0.183   8.326  13.306  0.6486  0.1158  0.3406
 5787W        W26067  14.999   9.048   1.332 -0.1913  0.0538 -0.2545
 5788W        W26068   7.659   4.390   3.963 -0.0577  0.2655  0.2686
 5789W        W26069  10.033  11.121  12.555  0.1759 -0.0607 -0.1694
 5790W        W26070  17.954   6.633   5.058 -0.1165 -0.1152  0.0203
 5791W        W26071  10.135  11.996  12.046  0.1693  0.4548 -0.0175
 5792W        W26072   8.481   8.229   2.996  0.2444  0.0947  0.0951
 5793W        W26073   4.606   1.594  15.342 -0.1067 -0.0883 -0.0700
 5794W        W26074  16.538   4.171   4.004 -0.0571 -0.2253  0.0835
 5795W        W26075  17.899   4.802   2.607 -0.1540  0.0996 -0.0874
 5796W        W26076  11.129   0.907  12.688  0.0254  0.0229 -0.0708
 5797W        W26077  14.327   9.247   1.388 -0.0822 -0.0680 -0.1404
 5798W        W26078  14.727   6.247   1.606  0.0376  0.2311 -0.2350
 5799W        W26079   1.498  11.309  14.049  0.1477  0.0696 -0.3707
 5800W        W26080  16.206   4.626   1.927  0.0856  0.0358 -0.0361
 5801W        W26081   7.113   4.925   2.691 -0.1371  0.1397 -0.2759
 5802W        W26082   9.930   0.137  15.494 -0.1133  0.1739  0.1763
 5803W        W26083  11.322  13.441   1.989  0.3595  0.2522 -0.5474
 5804W        W26084   3.813  14.799   1.822 -0.2096  0.1564 -0.2407
 5805W        W26085   4.107  14.642   4.754 -0.0848  0.0974  0.1269
 5806W        W26086  12.957   9.083   4.055 -0.1182 -0.0432 -0.1545
 5807W        W26087   4.697   7.456  16.323 -0.0332 -0.0486  0.1388
 5808W        W26088  17.152  17.640   3.470 -0.0496 -0.2043  0.0938
 5809W        W26089   1.310   8.338   4.604  0.3635  0.1860 -0.1938
 5810W        W26090   2.393  14.494   1.212  0.1530 -0.0137 -0.1288
 5811W        W26091   6.091   1.032  13.249  0.0747  0.0674  0.2361
 5812W        W26092   0.346  16.305   1.668 -0.3134  0.1286  0.2073
 5813W        W26093  17.083   2.147   2.027  0.1072  0.1352 -0.1642
 5814W        W26094   5.271   2.165   4.207 -0.1837  0.0562 -0.1792
 5815W        W26095   6.725   4.048   1.397 -0.0290 -0.2384 -0.1505
 5816W        W26096   4.460   5.451   1.064  0.0241  0.0297  0.2919
 5817W        W26097   9.010  12.608  14.811  0.0831 -0.2981 -0.1750
 5818W        W26098   5.899   2.967   1.384 -0.1896 -0.0568  0.0975
 5819W        W26099  15.916   6.556  12.080 -0.0341  0.0842 -0.1871
 5820W        W26100   0.491  10.493   1.679  0.3197  0.0165 -0.3373
 5821W        W26101   3.521   3.709   3.960  0.3588 -0.0644  0.0248
 5822W        W26102  14.826   5.870   0.216 -0.0920 -0.1285 -0.2574
 5823W        W26103   9.274   9.360  11.926 -0.1138  0.1928 -0.0631
 5824W        W26104   4.282  11.558  15.223  0.1345  0.0884  0.0822
 5825W        W26105  17.362   1.839   2.441  0.0666 -0.1637 -0.5076
 5826W        W26106  15.416   1.371   0.643  0.0058  0.0240  0.3200
 5827W        W26107   6.735  14.915  14.940 -0.0040  0.2102  0.0702
 5828W        W26108   1.318  12.145  13.087 -0.1183 -0.1372  0.2824
 5829W        W26109   3.056  10.004  14.704 -0.0313  0.2890 -0.0957
 5830W        W26110  13.778   3.314   2.858 -0.3301 -0.3385 -0.0969
 5831W        W26111   1.022   2.330  16.117  0.1054  0.0726 -0.2806
 5832W        W26112  13.397  11.180   0.298  0.1197  0.1116 -0.0255
 5833W        W26113   5.448   8.464   4.809  0.2310 -0.2015 -0.2408
 5834W        W26114   9.747   3.744   1.636 -0.0925  0.1072 -0.0474
 5835W        W26115   4.925  13.707   0.459  0.0728  0.1343  0.1202
 5836W        W26116  11.175  11.053  14.679  0.0669 -0.2987  0.2571
 5837W        W26117   5.145  16.701   1.192 -0.2531  0.3045  0.0048
 5838W        W26118   7.438  12.545   1.646  0.1062  0.1862  0.0609
 5839W        W26119   5.121   4.014  13.014  0.0708  0.0222 -0.0986
 5840W        W26120   0.148  12.443  16.182  0.2099  0.1050 -0.1371
 5841W        W26121  11.450   1.014  13.292 -0.0779  0.0063  0.0793
 5842W        W26122   0.556   1.313   2.660 -0.0703  0.0639 -0.1915
 5843W        W26123   9.792   8.334  13.380  0.0921 -0.0528 -0.0128
 5844W        W26124  17.659   8.962  15.286 -0.1653  0.3588  0.2320
 5845W        W26125  15.394  16.714  16.254 -0.1663  0.0117  0.0991
 5846W        W26126   1.592  10.545   0.972 -0.0753 -0.3483 -0.1585
 5847W        W26127  16.599   5.917   4.289  0.2211  0.3622  0.3728
 5848W        W26128  15.384  14.204   4.951 -0.0826 -0.1455 -0.1049
 5849W        W26129  17.920   6.306   1.811 -0.0265  0.1402 -0.1632
 5850W        W26130  11.682  17.706   3.659  0.1638  0.1324 -0.2087
 5851W        W26131  14.247   2.734   3.656 -0.0471 -0.2659  0.0168
 5852W        W26132   5.952   5.261   0.447 -0.0842 -0.0886 -0.2035
 5853W        W26133  11.837  13.434   2.083 -0.1289 -0.0492  0.0021
 5854W        W26134  14.819  10.445  12.989  0.1224  0.0268  0.0584
 5855W        W26135   9.463   3.652   4.158  0.3508 -0.3968  0.0811
 5856W        W26136   2.401  10.165   2.991  0.1593  0.1711 -0.2503
 5857W        W26137  14.620   5.385   0.112 -0.1802 -0.0326 -0.1718
 5858W        W26138   9.592   4.146  15.389  0.0081  0.0674  0.0180
 5859W        W26139  12.406  11.913   2.879 -0.1141  0.2153 -0.2268
 5860W        W26140   3.868  17.675   4.229 -0.0390 -0.1103  0.1701
 5861W        W26141   5.654   7.851   1.777  0.1513 -0.2909 -0.1722
 5862W        W26142   6.218  15.447   2.379 -0.1029 -0.0155 -0.0994
 5863W        W26143   6.875   1.103  14.896 -0.0356 -0.2309 -0.3499
 5864W        W26144   1.722   5.297   1.428 -0.0536 -0.1456 -0.1835
 5865W        W26145   7.927  17.004   4.014 -0.0454 -0.1936  0.2866
 5866W        W26146   1.841   5.351   2.301  0.2808 -0.1286  0.2963
 5867W        W26147  15.775   9.831   0.719 -0.3717  0.0679  0.1093
 5868W        W26148   3.873   8.991  13.862 -0.0598  0.1820 -0.3646
 5869W        W26149  14.527   9.091  15.057 -0.1160  0.1209  0.3216
 5870W        W26150   3.766  14.713   2.321  0.1182  0.2133  0.3959
 5871W        W26151   5.147   8.848  16.564 -0.0925 -0.0606  0.0154
 5872W        W26152   4.994   6.431   1.362 -0.1030 -0.0517 -0.0404
 5873W        W26153  12.638   5.942  16.006 -0.2338 -0.3053  0.3743
 5874W        W26154  16.188   7.015  12.647 -0.0193 -0.0329  0.1035
 5875W        W26155   4.925  16.280  15.577 -0.4990  0.0110  0.3702
 5876W        W26156  15.258   4.507   2.212 -0.4522 -0.0523  0.2969
 5877W        W26157  15.112   8.686  13.059  0.0477 -0.0356 -0.3326
 5878W        W26158   1.915   1.595   3.361 -0.0747 -0.0596 -0.1094
 5879W        W26159   5.098  11.922   2.618  0.1723  0.3438 -0.0216
 5880W        W26160   6.388   8.627   0.108  0.3392  0.2178 -0.0891
 5881W        W26161   6.658   9.376   3.552 -0.1037 -0.4442 -0.2096
 5882W        W26162   3.780  16.047   0.455  0.1087 -0.0845 -0.3282
 5883W        W26163  11.002  10.310  15.668  0.1700  0.2194 -0.0725
 5884W        W26164   5.709   1.860   3.904  0.1372 -0.0785  0.0003
 5885W        W26165  11.191   9.686  12.514  0.1742 -0.2428 -0.0140
 5886W        W26166  11.077   1.732  14.774 -0.0147 -0.1945 -0.1305
 5887W        W26167   2.935   2.181  14.068 -0.4367 -0.0414 -0.0494
 5888W        W26168   6.321  13.714   1.320  0.2296 -0.0087  0.1186
 5889W        W26169   1.889   2.552  12.536 -0.2675 -0.1982 -0.2397
 5890W        W26170   3.874  13.070  15.935  0.1480 -0.0138  0.0313
 5891W        W26171   5.631   2.725  15.491  0.0359  0.0550 -0.0229
 5892W        W26172  16.012  13.828  16.656  0.1969  0.1628  0.1603
 5893W        W26173   3.994  17.424   0.355  0.1107  0.0792  0.0241
 5894W        W26174  11.778  11.520   2.653 -0.0144 -0.2044  0.3398
 5895W        W26175  14.845   0.450   4.453  0.2028 -0.0828 -0.1114
 5896W        W26176  17.264   8.114  13.602 -0.0180  0.0527 -0.0950
 5897W        W26177   8.989   8.373   0.663 -0.2621  0.1468  0.0858
 5898W        W26178  12.353   1.396   2.710  0.0870 -0.0496 -0.2126
 5899W        W26179  14.804  17.141   2.803 -0.2649 -0.0431  0.2985
 5900W        W26180   2.724   8.793  12.961 -0.2196  0.1879  0.2531
 5901W        W26181  10.896   9.512   2.295  0.2541 -0.1667 -0.0531
 5902W        W26182   9.133   0.539  11.944 -0.2782  0.0705  0.1697
 5903W        W26183   4.359   9.219   2.731  0.0112  0.0921 -0.1479
 5904W        W26184  13.918  13.145   0.243 -0.0289 -0.0911  0.1924
 5905W        W26185  15.845   8.463  16.671  0.1561  0.0237 -0.0134
 5906W        W26186  10.839   1.555   2.390 -0.1570  0.1123 -0.1033
 5907W        W26187   2.390  10.534  15.629  0.3273  0.2680  0.0442
 5908W        W26188   1.551   4.658  14.139 -0.0088  0.1633  0.0197
 5909W        W26189  16.149  15.581   2.673  0.0754  0.2092  0.3273
 5910W        W26190  14.325   8.394   0.200  0.3354 -0.0405 -0.1471
 5911W        W26191  17.888  15.860  14.187  0.3479  0.2377  0.1695
 5912W        W26192  16.081   5.082   1.760 -0.2422 -0.1437  0.0121
 5913W        W26193   0.400  14.606  14.304 -0.0150  0.0245 -0.0063
 5914W        W26194   4.899   0.171   4.157 -0.0904  0.3733 -0.1790
 5915W        W26195  12.782   6.240  12.323  0.0533 -0.1142  0.0151
 5916W        W26196   4.595  12.104   4.096 -0.1646 -0.1959 -0.0620
 5917W        W26197  14.289   3.247   3.036  0.1657 -0.0552 -0.0430
 5918W        W26198  14.478   7.871   1.828  0.1237 -0.4163 -0.1429
 5919W        W26199   2.765   0.728   1.827 -0.0530 -0.2643  0.0570
 5920W        W26200  16.973   7.626  15.491  0.2354  0.0544  0.2349
 5921W        W26201   2.137  14.983   4.642 -0.0590 -0.0679  0.3200
 5922W        W26202  11.531   7.762   3.448 -0.1230 -0.0245 -0.0808
 5923W        W26203   8.485   3.783  14.804 -0.4144  0.1731  0.2551
 5924W        W26204   8.530  15.017  16.208 -0.1647 -0.1036 -0.0961
 5925W        W26205   4.402   2.901  13.173  0.1290  0.4621  0.1521
 5926W        W26206   3.451  16.891   3.030  0.1049 -0.1563  0.1687
 5927W        W26207  17.462   7.699   0.255  0.2381 -0.0304 -0.3085
 5928W        W26208   5.909   1.834  14.389  0.0311  0.1929 -0.0665
 5929W        W26209  17.474  14.097   1.917 -0.4832  0.1267 -0.0222
 5930W        W26210   6.046  11.740   1.767 -0.0819 -0.0974 -0.0842
 5931W        W26211   1.917  10.582  15.495 -0.4655 -0.3691  0.0984
 5932W        W26212   0.325   3.974   0.167 -0.0363  0.2828 -0.0137
 5933W        W26213   1.318   6.249   2.188  0.2184  0.1478  0.0711
 5934W        W26214  12.738   3.859  13.684 -0.0308  0.0097  0.1590
 5935W        W26215   1.287   5.941   3.228  0.0228 -0.1523 -0.0937
 5936W        W26216  15.231   7.365   2.528  0.1169 -0.0140  0.1875
 5937W        W26217  16.554   7.002   2.715  0.2813 -0.0311 -0.2100
 5938W        W26218   3.636   3.595   2.209 -0.2863  0.1394 -0.1409
 5939W        W26219  11.450   4.892   0.474  0.1485 -0.3524  0.0933
 5940W        W26220   6.323   7.738   2.841  0.0007 -0.1420 -0.1419
 5941W        W26221   8.781   0.425   2.551  0.0040 -0.2146  0.2842
 5942W        W26222   9.354   0.607  12.461  0.0261  0.0162 -0.0313
 5943W        W26223   6.237   1.328   1.473 -0.0815 -0.2622 -0.1285
 5944W        W26224   2.642  14.913   4.735  0.0598 -0.0792  0.0855
 5945W        W26225  15.532   9.816   2.723 -0.0055  0.1861 -0.2406
 5946W        W26226   5.212  14.879  15.955 -0.1518 -0.1111 -0.1983
 5947W        W26227   6.181  14.482  13.058  0.1155 -0.0404 -0.0628
 5948W        W26228   4.309  11.727   5.724 -0.0214  0.0943 -0.0131
 5949W        W26229   1.433  10.823  12.875  0.2876  0.0590 -0.4223
 5950W        W26230   3.057   2.423  14.802  0.1791 -0.0620  0.0657
 5951W        W26231  11.086   5.310  14.281 -0.0551 -0.0665  0.2384
 5952W        W26232   5.646   3.849  13.268  0.1312  0.1532  0.1203
 5953W        W26233  14.404   6.517  12.024  0.2659  0.0046 -0.2607
 5954W        W26234  10.856   4.292  11.326 -0.2104  0.0287 -0.2083
 5955W        W26235  16.671   1.789   1.772 -0.0032  0.1373  0.0089
 5956W        W26236  16.149   9.032   3.063 -0.0061  0.1321  0.2296
 5957W        W26237   6.424  15.363  16.116 -0.1998 -0.2469  0.1699
 5958W        W26238   9.338  13.623  15.324 -0.2767 -0.4008  0.2295
 5959W        W26239   4.284   1.694  12.600 -0.3513  0.0297 -0.1865
 5960W        W26240   3.464  10.856  12.500  0.2424 -0.0598  0.4265
 5961W        W26241   7.871   3.602   4.356  0.1660 -0.1471 -0.0213
 5962W        W26242  15.620   3.763  14.218 -0.3658 -0.0949 -0.2125
 5963W        W26243  12.439  15.170  14.343  0.0390  0.2985  0.2531
 5964W        W26244  15.914   6.013   3.852 -0.0992 -0.2080 -0.3055
 5965W        W26245   7.665   6.503   0.239 -0.1672 -0.0042  0.0480
 5966W        W26246   8.071   5.070   2.174 -0.1646 -0.1402  0.0943
 5967W        W26247   4.932   3.718   0.791 -0.1608 -0.1689 -0.2022
 5968W        W26248   4.389   7.349   2.588  0.0034 -0.0996  0.0974
 5969W        W26249   5.534  15.675  15.215  0.0906  0.0235  0.2719
 5970W        W26250   9.595  10.291  15.033  0.0118 -0.3525  0.0723
 5971W        W26251   6.975   8.383  15.416 -0.0772 -0.1691  0.0509
 5972W        W26252  12.431  14.825   4.445 -0.1016  0.0532  0.3773
 5973W        W26253   3.037  10.236   4.282 -0.2341 -0.1302  0.0404
 5974W        W26254   6.360  11.204  15.992  0.0435  0.1319 -0.0794
 5975W        W26255   6.563  12.617  15.653 -0.0888 -0.3497 -0.0633
 5976W        W26256   2.649   0.051   0.525  0.0681  0.1414  0.0712
 5977W        W26257  12.954   6.894  13.917 -0.2297 -0.1808  0.0100
 5978W        W26258   0.699  10.109  16.229  0.1633 -0.0536  0.2914
 5979W        W26259   5.849   5.352   1.393  0.2068  0.1367 -0.2194
 5980W        W26260  15.622  17.420   4.070 -0.0589 -0.1850 -0.1047
 5981W        W26261   6.017  10.049   4.934 -0.3216 -0.2165  0.0349
 5982W        W26262   6.250  10.917   4.295  0.0560 -0.0056 -0.0553
 5983W        W26263   5.073   9.999  16.335 -0.1847 -0.0914 -0.1182
 5984W        W26264  10.146   2.198  11.695  0.0051  0.1466 -0.0160
 5985W        W26265   8.328  14.461   2.117 -0.0246 -0.1003  0.0968
 5986W        W26266   1.983   6.838   2.531  0.0561  0.4173  0.1259
 5987W        W26267   3.534   7.035  15.702 -0.2161  0.1723 -0.2192
 5988W        W26268  13.789  14.301  14.179 -0.0434 -0.2688  0.0816
 5989W        W26269  17.952   7.559  15.766 -0.3060  0.0340  0.2160
 5990W        W26270  12.591  13.467  15.212 -0.2280 -0.0355  0.3826
 5991W        W26271  16.883   3.846   0.270  0.0745  0.1595 -0.2762
 5992W        W26272  15.816  15.173   3.930  0.0042 -0.1436 -0.1800
 5993W        W26273  14.753  11.818  12.866  0.4290  0.1349 -0.2247
 5994W        W26274   8.214   3.294  14.878  0.1128  0.1376 -0.3560
 5995W        W26275  15.750   3.095  12.969  0.2726  0.0854  0.1420
 5996W        W26276   8.702   7.801  14.461  0.0969 -0.2519 -0.2928
 5997W        W26277  13.996   6.756  16.367  0.1338  0.1695 -0.5089
 5998W        W26278   4.164  13.033  16.514  0.0001  0.1842 -0.3900
 5999W        W26279   8.023   5.249  12.675 -0.1002  0.2731  0.1436
 6000W        W26280   2.235   1.017   0.268 -0.3285  0.0183 -0.1753
 6001W        W26281   5.428  17.438  15.718  0.0892 -0.1869  0.2916
 6002W        W26282   3.014   0.176  15.563 -0.3275 -0.1660 -0.2490
 6003W        W26283  15.172   6.941  13.589  0.1394 -0.2314 -0.3484
 6004W        W26284   3.647   6.353  15.040  0.1189  0.1583 -0.0086
 6005W        W26285  13.230  11.848  15.570 -0.2421 -0.2000  0.4781
 6006W        W26286  11.431   1.385   0.204 -0.0371 -0.0112  0.2678
 6007W        W26287  16.959  16.747  12.822  0.3335 -0.1819 -0.0200
 6008W        W26288   1.169   2.919  13.780  0.0868  0.1427 -0.0618
 6009W        W26289   1.342   0.703   0.786  0.1700 -0.1139 -0.5168
 6010W        W26290  13.223  10.417   0.555 -0.2972  0.1603 -0.1024
 6011W        W26291   1.284   4.084  15.230 -0.1005  0.1800  0.0398
 6012W        W26292   5.000   4.014  16.688 -0.1487  0.2392 -0.2121
 6013W        W26293   0.073  10.557   2.521  0.2520  0.1981  0.2480
 6014W        W26294  12.229   2.855  14.365  0.0932 -0.1924 -0.1215
 6015W        W26295  17.833   8.444   2.963 -0.0641 -0.0456  0.0653
 6016W        W26296  10.089   0.073   2.160 -0.0285 -0.0259  0.1470
 6017W        W26297   8.458   1.532  12.035 -0.0599  0.0334  0.3909
 6018W        W26298   3.002  11.548   2.972 -0.0915  0.0578 -0.1311
 6019W        W26299  11.038   5.851  11.609  0.1965  0.0916  0.0989
 6020W        W26300  13.102  13.924   3.063 -0.1115 -0.2808 -0.2246
 6021W        W26301  16.596   5.979   3.168 -0.1526 -0.1298 -0.2395
 6022W        W26302   6.721   0.993  15.601  0.0884  0.1297 -0.1584
 6023W        W26303  11.281   1.888   3.577  0.1007  0.2480 -0.2856
 6024W        W26304   7.962   4.719   2.716  0.0018  0.0894  0.0850
 6025W        W26305   5.056   4.217  14.710  0.0579 -0.0457  0.0570
 6026W        W26306  10.169   1.607   1.426 -0.3596  0.1023 -0.0807
 6027W        W26307  16.244  12.394  14.676  0.0457 -0.1341 -0.1707
 6028W        W26308   3.458  15.991   4.545  0.1325  0.2018 -0.0604
 6029W        W26309  12.866  13.415   4.312  0.1157 -0.0870 -0.1444
 6030W        W26310   4.665   7.953  16.476 -0.0773 -0.2868 -0.3545
 6031W        W26311   4.281  16.252   4.261 -0.2455 -0.1146  0.1537
 6032W        W26312   1.087  14.175  13.684 -0.0105  0.1813 -0.0077
 6033W        W26313  12.044  17.337  12.884 -0.3873 -0.0896  0.1201
 6034W        W26314   3.660   4.786  13.958  0.0699 -0.1818 -0.3258
 6035W        W26315   3.894   8.182   5.036 -0.1247  0.0757  0.1884
 6036W        W26316  15.897   2.470  16.586 -0.0086 -0.1866 -0.1562
 6037W        W26317  12.175   4.571  14.757 -0.0679 -0.2909  0.2554
 6038W        W26318  10.896  10.830   2.504  0.5185 -0.0892 -0.3121
 6039W        W26319   4.914   4.072   1.144  0.3638 -0.1397 -0.1098
 6040W        W26320  17.925   7.231  16.238 -0.1169  0.1143 -0.0517
 6041W        W26321   1.081   3.303  16.259  0.2826  0.0774 -0.1513
 6042W        W26322  15.641   8.035   0.220  0.0886 -0.1070  0.1517
 6043W        W26323   1.972   8.260  14.565  0.1261  0.4886  0.1410
 6044W        W26324  14.304   6.824  13.737  0.4647 -0.2691  0.2358
 6045W        W26325   6.757   1.746  12.511 -0.0569  0.2848 -0.1491
 6046W        W26326  12.684   1.501   4.567  0.0268 -0.1231 -0.2040
 6047W        W26327   7.429   4.561  16.146 -0.2070  0.0226  0.0313
 6048W        W26328   7.861   2.385  13.995 -0.1745 -0.0078 -0.0359
 6049W        W26329   8.582  13.424   3.833 -0.1072 -0.1713 -0.1004
 6050W        W26330   7.964  15.246   2.791 -0.2241 -0.1631  0.0065
 6051W        W26331   3.061  14.514   6.112  0.0410  0.1429 -0.2324
 6052W        W26332   8.109  13.846   4.639 -0.0807 -0.1069  0.2091
 6053W        W26333  17.253   9.829  12.583 -0.1537 -0.1925 -0.2270
 6054W        W26334   5.294  12.717  14.135 -0.0353  0.2248  0.2259
 6055W        W26335  14.644  17.699  12.488 -0.0357 -0.0727 -0.2195
 6056W        W26336   7.255   6.669  15.600  0.1375  0.0403  0.2182
 6057W        W26337  16.746   6.886  16.554 -0.0113  0.1195  0.1158
 6058W        W26338  13.296  13.337   2.248  0.1705 -0.1702 -0.1229
 6059W        W26339   4.632  14.679   1.004  0.2265  0.0330 -0.0135
 6060W        W26340  17.675   6.906   4.109 -0.2732 -0.1741  0.0962
 6061W        W26341  17.566  16.100  12.274  0.0806  0.4129  0.1921
 6062W        W26342  17.880   3.189   1.707  0.2482  0.0878  0.0760
 6063W        W26343  11.204   4.021   0.889 -0.1146  0.0689  0.1984
 6064W        W26344  15.082   3.365  14.700 -0.1026  0.2052  0.0327
 6065W        W26345   4.623   2.350  12.515  0.3032  0.1441 -0.0373
 6066W        W26346   4.829  16.730   0.129  0.0458 -0.1859  0.0310
 6067W        W26347   2.109  14.129   2.044  0.1005 -0.0975  0.0914
 6068W        W26348   2.127  17.633  12.794 -0.1448 -0.2192  0.1268
 6069W        W26349   9.595  17.544   1.667 -0.0462  0.2314  0.2208
 6070W        W26350   8.158   7.668  14.544  0.1769  0.2247  0.1986
 6071W        W26351   7.550   4.369  13.792 -0.0077 -0.0743  0.2478
 6072W        W26352  14.632   4.323  13.447 -0.0511  0.1721  0.1171
 6073W        W26353   8.890   4.422   1.580  0.0898 -0.1874  0.0287
 6074W        W26354  15.008  12.205   2.218 -0.1605 -0.0516 -0.0742
 6075W        W26355   0.227   1.079   3.163 -0.0908  0.2846  0.0543
 6076W        W26356  11.303  12.044   3.835  0.1147 -0.1312 -0.1199
 6077W        W26357  12.771   1.309  13.646 -0.0343 -0.0519  0.0353
 6078W        W26358   5.871  13.405   0.204 -0.2474  0.0522  0.0223
 6079W        W26359  13.763   6.078  15.610 -0.2220 -0.1123 -0.0235
 6080W        W26360  11.905  14.851   1.295 -0.1926 -0.3598  0.0854
 6081W        W26361  14.500   5.850  15.194 -0.0009  0.0887  0.0668
 6082W        W26362   7.185  17.118  12.751 -0.2367  0.0117 -0.1603
 6083W        W26363   4.212   9.766  15.733  0.0532  0.2208 -0.2448
 6084W        W26364   4.008  11.673   0.615 -0.1574  0.0462 -0.2265
 6085W        W26365  14.480   8.524  12.412 -0.0631 -0.1964  0.2874
 6086W        W26366   9.171   7.517   2.527 -0.1145  0.0468  0.1326
 6087W        W26367  13.085  16.974   3.835 -0.1185 -0.2760  0.0422
 6088W        W26368   5.281   6.139   2.523 -0.3954 -0.2018  0.1759
 6089W        W26369   3.097   5.223  12.377  0.4392 -0.0361  0.0030
 6090W        W26370  10.447  11.588  16.050 -0.0078  0.1031  0.0013
 6091W        W26371   3.283   4.168   0.272 -0.0734  0.1030  0.1636
 6092W        W26372  13.597  16.488  14.049 -0.0961  0.0979  0.0350
 6093W        W26373   5.700  11.337   0.962  0.0116 -0.1556  0.0821
 6094W        W26374   5.631  11.806   0.790  0.0145  0.2798 -0.0491
 6095W        W26375  15.094   4.405  12.703 -0.0002 -0.1215  0.1747
 6096W        W26376  15.434   6.706   0.495  0.0470 -0.2499  0.2650
 6097W        W26377  13.272   0.886   2.266 -0.0098 -0.3182  0.2597
 6098W        W26378   1.352  12.245   2.008 -0.1175 -0.0701  0.2038
 6099W        W26379   0.837   3.914  13.337 -0.0013  0.0707 -0.1617
 6100W        W26380  13.695   9.118   2.332 -0.3746 -0.3420 -0.0663
 6101W        W26381   5.098  16.098   2.146 -0.0244 -0.0335 -0.1426
 6102W        W26382   2.405  10.628   4.265  0.1044 -0.1177  0.1655
 6103W        W26383  11.259   4.047  16.559 -0.0542  0.1677 -0.1472
 6104W        W26384   2.416  11.267   4.734  0.2361 -0.1475 -0.1519
 6105W        W26385   9.501  14.282   4.354  0.0334 -0.2768 -0.2388
 6106W        W26386  16.296   6.159   2.360  0.2639 -0.1216  0.1865
 6107W        W26387   1.536   8.081   4.123 -0.1720  0.0407 -0.4010
 6108W        W26388   9.225  15.966   4.789  0.0550 -0.2123  0.0199
 6109W        W26389  16.570  17.884   2.188  0.0552 -0.0388  0.1183
 6110W        W26390  17.752   4.081   0.169  0.0198  0.0631 -0.1405
 6111W        W26391  12.010   8.434  13.937 -0.0925 -0.0126 -0.0386
 6112W        W26392   5.341  16.280   1.494 -0.2289 -0.0071  0.0517
 6113W        W26393  12.565   0.965   0.820 -0.1489 -0.0551  0.0267
 6114W        W26394  12.517   0.048  14.459 -0.0742  0.0871  0.4380
 6115W        W26395   5.348  11.702   1.253 -0.0381  0.0201 -0.0078
 6116W        W26396   4.666   9.924   0.391  0.1568  0.5082 -0.0285
 6117W        W26397   3.821   8.827   3.602 -0.1391 -0.1755  0.0037
 6118W        W26398  15.973   7.987  16.563 -0.2204  0.0902 -0.3360
 6119W        W26399  17.836  17.794  14.779  0.3625  0.4316 -0.6897
 6120W        W26400  16.765   8.921   0.092  0.2596  0.2967 -0.0022
 6121W        W26401   1.337   1.815  15.506 -0.0648 -0.1170  0.0888
 6122W        W26402  15.646   1.065   4.456  0.1612  0.0100  0.1088
 6123W        W26403   3.794  10.429   1.427 -0.0206  0.1450 -0.0672
 6124W        W26404  11.015   7.589   0.394 -0.2573  0.0578 -0.0203
 6125W        W26405   1.912  11.889   3.972 -0.0450  0.0959 -0.2435
 6126W        W26406   1.499   7.543   4.827  0.1423  0.1137 -0.0221
 6127W        W26407   5.122  10.303  13.370 -0.0996 -0.1489  0.1729
 6128W        W26408   1.599  12.222   0.662  0.3287 -0.2703 -0.0809
 6129W        W26409  13.336   8.394  15.747 -0.0014  0.2110  0.1200
 6130W        W26410  17.877   4.179   1.544 -0.0950  0.0700 -0.1939
 6131W        W26411   8.662  11.898  14.725  0.1142 -0.2477 -0.3089
 6132W        W26412  15.840   4.403  12.132  0.0855  0.1174 -0.2638
 6133W        W26413   1.031   5.107  12.960 -0.1838  0.0152 -0.1511
 6134W        W26414  17.534  15.942   3.876  0.3510 -0.1293 -0.0729
 6135W        W26415   4.748  15.570   3.983 -0.1738 -0.2056  0.0876
 6136W        W26416  10.817   6.871   1.329 -0.0645 -0.0078 -0.2375
 6137W        W26417   0.055  12.844  13.414 -0.1697 -0.0089  0.2212
 6138W        W26418  13.981  12.459  15.766 -0.0072  0.0482 -0.1749
 6139W        W26419  17.726  12.937   3.312 -0.1443 -0.1035 -0.0066
 6140W        W26420   0.239   9.122   4.253 -0.1811  0.1298  0.0095
 6141W        W26421   3.768  15.773  12.333 -0.1326 -0.0275  0.1044
 6142W        W26422  11.833   7.415   3.078 -0.0547 -0.5219 -0.1592
 6143W        W26423  13.132  15.999  12.565 -0.2149 -0.2386 -0.0052
 6144W        W26424  17.289   0.442  11.073 -0.3613 -0.0633 -0.0045
 6145W        W26425   0.554   7.236  12.616 -0.0630 -0.1118 -0.0745
 6146W        W26426  15.556   5.388  13.898 -0.2111  0.0340 -0.0885
 6147W        W26427  11.379   5.727   3.995  0.2678 -0.0972  0.1122
 6148W        W26428  17.483  17.647  15.120  0.2429  0.4121  0.3233
 6149W        W26429  14.900   8.287   3.436  0.2719 -0.0658  0.1236
 6150W        W26430   1.329   8.471   3.844 -0.0057 -0.0897 -0.2944
 6151W        W26431   6.951   9.752  14.902 -0.0437 -0.0825  0.0361
 6152W        W26432   6.384  16.201   2.701  0.1978 -0.1457 -0.0043
 6153W        W26433   3.383   1.169  15.969 -0.2706 -0.1431  0.2708
 6154W        W26434   2.050   2.145  14.556  0.1968  0.1117 -0.1178
 6155W        W26435  13.140  16.882   4.310  0.0001 -0.2616  0.1759
 6156W        W26436  12.711   6.935  15.559  0.3543 -0.2221 -0.1593
 6157W        W26437   0.566   8.367  16.552 -0.0718 -0.3403 -0.3525
 6158W        W26438   5.329   4.394   1.149  0.0500  0.2226 -0.1375
 6159W        W26439  15.484  10.775   2.315 -0.0576 -0.1552  0.0707
 6160W        W26440  17.533  14.106   2.600 -0.1187 -0.0938  0.1762
 6161W        W26441   4.039  10.417   0.032 -0.0076 -0.1330  0.1085
 6162W        W26442   3.051  12.784   2.434  0.2312  0.0178 -0.1870
 6163W        W26443  15.616   5.349   1.534 -0.0423 -0.0632 -0.2091
 6164W        W26444  16.155  15.874   0.517  0.0319  0.2457 -0.0800
 6165W        W26445  14.918   6.526  12.048 -0.0115  0.1281  0.0321
 6166W        W26446  12.184  13.409   3.773  0.0750  0.0964 -0.1543
 6167W        W26447   5.846  11.305  15.001  0.1284 -0.0724  0.1155
 6168W        W26448   4.229   6.939   4.781  0.1229 -0.0685 -0.0762
 6169W        W26449  17.551   9.089   4.694  0.5416 -0.0410  0.0983
 6170W        W26450   1.913  13.660  15.258  0.0120 -0.0327 -0.1108
 6171W        W26451  14.126   6.930   2.038 -0.0086 -0.2497 -0.0499
 6172W        W26452   7.384   9.661  14.514  0.2283  0.2190 -0.3301
 6173W        W26453   8.764   5.795   0.007 -0.2197  0.3918 -0.1750
 6174W        W26454  12.837  12.885  16.685  0.1038 -0.2147  0.2050
 6175W        W26455  16.309   0.166  12.011 -0.1293 -0.1249  0.0082
 6176W        W26456   5.191   9.455   4.732  0.0457  0.0376  0.0022
 6177W        W26457  11.154  15.017  14.304 -0.2864 -0.0340  0.0214
 6178W        W26458  11.663   8.690  14.706 -0.1689  0.1270  0.0640
 6179W        W26459   3.806  14.990   4.447  0.2589  0.0776 -0.1149
 6180W        W26460   1.735  17.902  13.880  0.0736 -0.1385  0.0670
 6181W        W26461   5.474   7.242  13.974  0.1806 -0.0614 -0.0104
 6182W        W26462   9.428  17.885   1.950 -0.0118  0.2584  0.0213
 6183W        W26463   5.990   7.401   3.525  0.2497  0.0014 -0.0296
 6184W        W26464   2.375   0.479   1.861  0.1900  0.0387  0.0940
 6185W        W26465   3.108  13.773   5.358  0.0722  0.1330 -0.0737
 6186W        W26466   5.000  15.298   3.228 -0.0219  0.0782 -0.0160
 6187W        W26467   0.035  12.374  13.317  0.0786  0.2903 -0.2374
 6188W        W26468   4.567  14.167  12.363  0.0881 -0.2491  0.2939
 6189W        W26469  12.848   7.520  10.829 -0.0289 -0.0598 -0.1701
 6190W        W26470  10.568   5.582   2.978  0.2327  0.0880 -0.1195
 6191W        W26471   4.977   2.888  14.277 -0.0470  0.2414 -0.2546
 6192W        W26472  13.928   2.202   0.382 -0.1494 -0.2115 -0.1172
 6193W        W26473   0.280   7.927  16.684  0.0652 -0.0442  0.3528
 6194W        W26474  17.309  16.839   2.299  0.1157 -0.4173  0.2565
 6195W        W26475   4.304  12.790  14.364 -0.0995  0.3044  0.1910
 6196W        W26476   3.461   7.791  13.588 -0.4295  0.1537  0.1640
 6197W        W26477  17.821   0.984   4.449  0.1114 -0.1047  0.1660
 6198W        W26478   1.955  15.692   2.955 -0.0452 -0.1458  0.3232
 6199W        W26479  11.192  17.413  12.419 -0.0117 -0.0165  0.2315
 6200W        W26480  10.530  13.072  15.438 -0.3828 -0.2085 -0.0416
 6201W        W26481  13.242   9.263  15.548 -0.2995 -0.1844  0.0101
 6202W        W26482  14.978   2.310   2.417  0.1368 -0.2093  0.1623
 6203W        W26483  12.621  10.205  13.077  0.1196 -0.3763  0.1859
 6204W        W26484   5.226  11.322  16.346  0.1673 -0.1055  0.0640
 6205W        W26485  13.506   1.911  15.129 -0.1158 -0.1633  0.1715
 6206W        W26486   1.558  13.278   2.029 -0.2478 -0.3533  0.2244
 6207W        W26487  17.308  12.424   2.806 -0.3315  0.2816 -0.0287
 6208W        W26488  17.980   3.895  14.883 -0.3795  0.0703  0.3832
 6209W        W26489   5.783  17.844  12.062 -0.0587 -0.0263  0.0911
 6210W        W26490   8.842  17.848  14.067  0.1292  0.2446 -0.2603
 6211W        W26491  16.714   4.185  12.267 -0.1383 -0.0751 -0.1970
 6212W        W26492  13.030  13.117   1.770  0.0915  0.3572  0.0527
 6213W        W26493   2.730  14.128   4.669 -0.0108 -0.0350 -0.1691
 6214W        W26494  14.363   7.903  12.689  0.1260 -0.0826 -0.1585
 6215W        W26495  12.329   5.748  13.425  0.0866  0.5326 -0.1681
 6216W        W26496   8.091   6.762  16.156  0.0550  0.2176 -0.1643
 6217W        W26497  14.122  13.035   3.232 -0.0039  0.1971  0.1253
 6218W        W26498   8.625  17.724  15.624 -0.0510 -0.1223  0.0506
 6219W        W26499  13.173  17.303  14.760 -0.2972  0.0753  0.1537
 6220W        W26500  16.971   5.729   0.719 -0.0324 -0.1681  0.0703
 6221W        W26501   1.486  11.896  15.009 -0.2157  0.0336 -0.0381
 6222W        W26502   1.324   5.820   2.435  0.0758 -0.0294 -0.1349
 6223W        W26503   2.562   8.145  15.897 -0.0141  0.0322  0.1180
 6224W        W26504  13.237  16.232  12.972  0.2316 -0.2279 -0.3449
 6225W        W26505  15.814  14.040  16.254 -0.1229  0.0387  0.0128
 6226W        W26506   2.284   9.248  16.089 -0.2073  0.3282  0.3283
 6227W        W26507  14.801   0.112  12.107 -0.0331  0.1138 -0.0681
 6228W        W26508   2.447   2.646   0.793 -0.0909 -0.1454 -0.0770
 6229W        W26509   7.511   0.362  13.042  0.0721 -0.4209 -0.0791
 6230W        W26510   7.881   6.375  13.479 -0.3286 -0.0175 -0.1706
 6231W        W26511   9.642   9.828  12.638  0.0949  0.2769 -0.2194
 6232W        W26512   8.414  11.726   0.305 -0.0004  0.0623 -0.1861
 6233W        W26513  17.074   2.747   1.911 -0.0768 -0.0944  0.0168
 6234W        W26514   6.992  17.041  11.902 -0.2350 -0.0711 -0.2540
 6235W        W26515   0.506   1.404  16.489  0.2424  0.3136 -0.0655
 6236W        W26516  12.368  17.380   0.339  0.2059 -0.2492  0.0067
 6237W        W26517  13.471  16.708   3.919  0.0862  0.1061  0.0618
 6238W        W26518  11.088   9.925  14.267  0.1642 -0.2002 -0.0534
 6239W        W26519  10.629   6.657   2.280  0.1435  0.1049 -0.0614
 6240W        W26520  14.271   1.557  16.037  0.0238  0.3799  0.2987
 6241W        W26521  11.787   6.904   2.976 -0.1274 -0.1653  0.3662
 6242W        W26522  14.768   1.691  13.737 -0.0875  0.0044 -0.3275
 6243W        W26523   4.476  12.001  15.265  0.3061 -0.2377  0.2474
 6244W        W26524  12.471   6.179   0.757 -0.2676 -0.0580 -0.0517
 6245W        W26525  10.611  14.105   2.285  0.1113  0.2956  0.2592
 6246W        W26526  11.610   5.745   1.114  0.0825 -0.1258 -0.1147
 6247W        W26527   3.048   1.829   1.859 -0.2025 -0.2079 -0.3488
 6248W        W26528   8.506  11.039   2.898 -0.0377 -0.0083  0.0736
 6249W        W26529  11.483   0.615   1.267  0.0755 -0.2512 -0.0951
 6250W        W26530   0.045  15.102  12.607 -0.0629 -0.0868 -0.2681
 6251W        W26531  17.940  14.616  13.026  0.0456 -0.1442 -0.3040
 6252W        W26532  16.020  11.683  12.344  0.3587 -0.2664  0.1188
 6253W        W26533   7.913  14.798  15.841  0.1411 -0.1177 -0.0372
 6254W        W26534   8.714  10.250   0.730 -0.0508  0.1296  0.0837
 6255W        W26535   5.447  14.031   2.163 -0.0554  0.2500  0.1670
 6256W        W26536   0.798   2.073  12.561  0.0618 -0.0545 -0.2349
 6257W        W26537   9.291  13.063  14.472 -0.2661 -0.1261  0.0777
 6258W        W26538   8.674  10.239   4.775  0.1279 -0.1301 -0.0079
 6259W        W26539  15.460  10.773   0.751  0.0474  0.2567  0.1883
 6260W        W26540  15.656   7.918   2.905  0.2529 -0.1074  0.1865
 6261W        W26541   7.028  16.607  12.385 -0.4036  0.2169  0.2913
 6262W        W26542   2.564  10.455  14.586 -0.1648 -0.0340 -0.1537
 6263W        W26543  11.163   5.750   3.231 -0.2418 -0.0342 -0.3368
 6264W        W26544  14.647   0.765  12.796 -0.1248 -0.1961  0.0728
 6265W        W26545  15.213   8.160  14.954  0.1515  0.1372 -0.1362
 6266W        W26546   8.383  11.524  14.483 -0.3523  0.0457  0.0558
 6267W        W26547  17.658   1.221   1.289 -0.1444 -0.1240 -0.1876
 6268W        W26548   1.826   2.093   0.739 -0.1667  0.0091 -0.4199
 6269W        W26549  15.414   3.338  15.634 -0.0137  0.0727  0.1697
 6270W        W26550  14.543  10.365  13.892 -0.2212 -0.1615 -0.0108
 6271W        W26551   4.471   4.595   0.987 -0.1892 -0.3785  0.0212
 6272W        W26552   8.032  15.993  14.011  0.1991 -0.1304  0.1947
 6273W        W26553  12.887   4.253   4.536 -0.2569  0.0604 -0.0372
 6274W        W26554   9.049   4.359  16.256 -0.1517 -0.3132  0.3584
 6275W        W26555   9.702   1.722  14.152 -0.1500 -0.2372 -0.2513
 6276W        W26556   6.670   4.395  14.002  0.0669  0.1182  0.0885
 6277W        W26557  15.399   0.513  15.658 -0.1945 -0.0648 -0.1056
 6278W        W26558  10.936  15.283  13.499 -0.0073  0.0061  0.1211
 6279W        W26559   4.385  13.822   4.957  0.1044  0.0682 -0.0122
 6280W        W26560   7.459  14.517  15.825  0.2820  0.0160 -0.1506
 6281W        W26561   4.174  13.529   1.954  0.1001 -0.0669  0.1464
 6282W        W26562  10.798  11.221  16.156 -0.0637 -0.0457  0.1724
 6283W        W26563   5.226   6.794  14.735  0.3073 -0.3233  0.0499
 6284W        W26564  16.652  15.889  15.596  0.0135  0.1904  0.2398
 6285W        W26565  16.737  11.008   0.753  0.0608  0.0768  0.0652
 6286W        W26566   6.664  11.996   1.697  0.1920 -0.2916  0.2332
 6287W        W26567   9.045   4.548   4.693 -0.0659  0.0339  0.1396
 6288W        W26568   3.209   7.153  15.313  0.2603  0.2727  0.1690
 6289W        W26569   1.015   8.816   2.157  0.2324  0.3008 -0.1012
 6290W        W26570   2.331  10.751   4.723 -0.0715 -0.1612 -0.4503
 6291W        W26571  10.882   8.378   1.912  0.1016 -0.0540  0.0140
 6292W        W26572   7.398   5.302   4.090 -0.0331  0.1653  0.1398
 6293W        W26573  11.135   4.559   4.165 -0.0816  0.3253  0.3127
 6294W        W26574   0.378  15.336   4.725  0.1139 -0.1593  0.2638
 6295W        W26575   6.397   2.268  15.726  0.0712 -0.0718  0.0587
 6296W        W26576   7.637   0.425  12.495 -0.1679  0.0281  0.3254
 6297W        W26577   1.649   9.091   4.147 -0.2266  0.0034  0.0600
 6298W        W26578   6.173  12.855   0.139  0.0617 -0.0449  0.1952
 6299W        W26579   8.349   9.350  15.162 -0.1929  0.3305 -0.3022
 6300W        W26580  11.571   5.887  14.440 -0.0155  0.0513  0.1730
 6301W        W26581   0.998   8.109  13.118  0.1550 -0.0045 -0.0572
 6302W        W26582  12.121   0.632   3.355 -0.2128  0.3808 -0.0726
 6303W        W26583  17.633  12.562  15.917  0.0002 -0.0237  0.3353
 6304W        W26584   5.981   7.902  13.436 -0.2581  0.0118 -0.0355
 6305W        W26585  13.386   7.104   1.391  0.1301 -0.2404  0.2417
 6306W        W26586  10.001  16.261  11.619  0.1547  0.1325 -0.0188
 6307W        W26587   4.814   3.070  12.932  0.2394  0.1818  0.1752
 6308W        W26588  11.044  11.263   1.377 -0.1808 -0.0900 -0.1420
 6309W        W26589  12.279   6.481   4.175  0.0980  0.1960 -0.0534
 6310W        W26590  15.945   4.919   3.829  0.0745 -0.2340 -0.1386
 6311W        W26591   0.107   6.470  12.277 -0.2029 -0.0476 -0.0457
 6312W        W26592   5.275   4.458   4.630  0.2297 -0.1232 -0.1898
 6313W        W26593   3.527   1.369  13.981 -0.2137 -0.1447  0.0319
 6314W        W26594  10.167   1.437  15.026 -0.0412 -0.1547  0.3018
 6315W        W26595  11.188   2.018   0.225 -0.2278  0.0477  0.1223
 6316W        W26596   0.330   5.224   1.191  0.0913 -0.0431 -0.0347
 6317W        W26597   6.437   8.408   2.020 -0.1350  0.1753 -0.1243
 6318W        W26598  13.114  15.272  15.144  0.1542 -0.0060 -0.0182
 6319W        W26599  14.777  13.966  15.976  0.1515 -0.1645 -0.1944
 6320W        W26600  13.926   6.416  15.227  0.3395 -0.0433 -0.2286
 6321W        W26601   3.879   0.324  15.864 -0.0173 -0.1272  0.1699
 6322W        W26602  14.798   7.167  16.559 -0.0901 -0.0494 -0.0487
 6323W        W26603   6.619  12.303   3.541  0.3541  0.0384 -0.1232
 6324W        W26604  16.961  16.882  13.268  0.1131  0.0935  0.0458
 6325W        W26605  12.371   0.703   1.246 -0.1769 -0.2838 -0.1778
 6326W        W26606  14.834   5.741   4.633  0.1883 -0.0799  0.0780
 6327W        W26607   6.818   8.887  16.642  0.0828 -0.0770  0.2561
 6328W        W26608   3.906  16.156  14.600  0.2627 -0.2338  0.1140
 6329W        W26609   2.395   6.044   0.865  0.1451  0.2547 -0.0638
 6330W        W26610  15.045  17.014  13.366 -0.0443 -0.1890 -0.1627
 6331W        W26611  11.428  17.402  14.327  0.1146 -0.1028 -0.1308
 6332W        W26612   1.906  17.887  16.371  0.0810  0.2252 -0.0945
 6333W        W26613   6.594   4.808  16.054 -0.0656 -0.1262  0.0283
 6334W        W26614   3.346  12.611   1.568  0.1338  0.2787  0.0137
 6335W        W26615   8.606   0.607  12.926  0.3203  0.1592  0.0675
 6336W        W26616   9.209   9.678  15.768  0.0134 -0.0440  0.0448
 6337W        W26617   8.438  11.905   2.344 -0.1588 -0.2869  0.0154
 6338W        W26618   1.820   2.538   2.355  0.3873 -0.1574 -0.0558
 6339W        W26619  10.218   5.839  14.052 -0.1176  0.2534  0.0433
 6340W        W26620   0.665   0.183   0.296 -0.1986  0.1518  0.1557
 6341W        W26621  15.748   2.095  16.315 -0.0205  0.1357 -0.2416
 6342W        W26622   8.823   4.987  14.168  0.1700 -0.0691 -0.1740
 6343W        W26623   1.075   8.943   2.805  0.0424  0.0834 -0.0178
 6344W        W26624   0.817  13.144  14.805 -0.0411 -0.1032 -0.0483
 6345W        W26625  16.604   2.050  11.902  0.0384  0.2190  0.0463
 6346W        W26626   8.843  17.067   2.908  0.4464  0.2525  0.0995
 6347W        W26627  10.245  13.953  13.790 -0.2353  0.0603 -0.1953
 6348W        W26628   7.834  11.186   4.241  0.1761 -0.2055 -0.1247
 6349W        W26629  13.595   2.621   0.518 -0.2669 -0.1102  0.0452
 6350W        W26630  14.774   6.479  12.558  0.0337  0.0463  0.1127
 6351W        W26631  16.572  11.682  15.408 -0.2295 -0.2152 -0.0120
 6352W        W26632  16.822   3.801   4.184  0.0606 -0.0187 -0.1197
 6353W        W26633  11.337  14.248   4.923  0.1155  0.1942  0.4490
 6354W        W26634   2.543   8.084  13.495  0.0843  0.0936 -0.2174
 6355W        W26635   9.185  17.798  14.481  0.0414  0.2840  0.3718
 6356W        W26636   2.738  12.096  16.693  0.0975  0.5381  0.0997
 6357W        W26637   8.236   8.717   1.910 -0.3041 -0.0391 -0.4570
 6358W        W26638   2.579   0.936   2.273 -0.3997 -0.1955  0.3205
 6359W        W26639  16.685  15.294  14.310  0.0178 -0.0226  0.0266
 6360W        W26640   4.276   3.223  12.174  0.1787  0.2505 -0.0643
 6361W        W26641   9.312   1.452   4.403 -0.2687 -0.1222 -0.0899
 6362W        W26642  13.791   2.569  13.871  0.0876 -0.1606 -0.0161
 6363W        W26643   1.252  13.454  15.917  0.1357  0.1610  0.0231
 6364W        W26644   9.946  14.022   4.704 -0.1536 -0.0339  0.1319
 6365W        W26645   5.688   0.564   4.320 -0.1797  0.0609  0.0858
 6366W        W26646  13.704   2.572  14.761  0.1664 -0.1847  0.0645
 6367W        W26647   5.413   1.860  14.553  0.0473 -0.3123 -0.0186
 6368W        W26648  11.874  14.664   2.986 -0.2018  0.0047 -0.1240
 6369W        W26649  14.929  16.234   2.659 -0.2938  0.1989 -0.2603
 6370W        W26650   1.614   6.349   0.698  0.3974 -0.3272 -0.2903
 6371W        W26651  14.143   5.415  12.487 -0.2965  0.2230 -0.2641
 6372W        W26652  15.515   7.663  13.436  0.0904 -0.0700  0.3158
 6373W        W26653   1.491  13.591   2.375  0.0295 -0.1747 -0.1121
 6374W        W26654   0.944  17.429   3.175 -0.2129 -0.3338 -0.0659
 6375W        W26655  10.334   3.778   3.813 -0.3064 -0.1675  0.1655
 6376W        W26656   7.823   2.793  16.286  0.0746 -0.1109  0.2729
 6377W        W26657  15.160  10.009   0.409 -0.0121 -0.0503 -0.0044
 6378W        W26658   2.660  14.098   2.212  0.4334 -0.0571 -0.1689
 6379W        W26659  11.602  11.476  15.708 -0.1714 -0.1923  0.2031
 6380W        W26660  16.553  11.374   1.120  0.0512  0.0778  0.0941
 6381W        W26661  14.178   3.257  15.928 -0.2132  0.1909  0.1550
 6382W        W26662  12.002   2.947  15.933 -0.1931 -0.0334  0.2026
 6383W        W26663  11.543  15.451  13.647 -0.4351  0.1567 -0.0974
 6384W        W26664   1.157  14.029   3.233  0.1598 -0.1130  0.3065
 6385W        W26665   8.203   0.484   4.284 -0.1105 -0.2884 -0.1869
 6386W        W26666   3.066   1.306  14.181 -0.0985 -0.1593 -0.1214
 6387W        W26667  17.965  17.315  12.184  0.2483  0.1773  0.0870
 6388W        W26668   9.886   9.216  13.974 -0.3319  0.2834  0.2476
 6389W        W26669   7.998   7.977   3.018  0.0780  0.0520 -0.2158
 6390W        W26670  15.043   6.463   3.719  0.0569 -0.2667  0.1716
 6391W        W26671  13.314   4.226  15.718  0.0424  0.2286  0.2637
 6392W        W26672   7.362  11.990  12.196 -0.1940 -0.2108 -0.2380
 6393W        W26673   1.027   6.906  12.376  0.0379 -0.0210  0.0062
 6394W        W26674  17.385   5.202  12.411 -0.1151  0.2737  0.0735
 6395W        W26675   1.835   0.154   1.858 -0.3867 -0.2928 -0.0163
 6396W        W26676  14.992   3.626  13.258  0.0758  0.4032 -0.1822
 6397W        W26677  14.944   3.934   0.138  0.2447  0.0478  0.1350
 6398W        W26678   4.514  10.354   1.311  0.1406 -0.0155  0.0614
 6399W        W26679   7.806   9.344  16.604  0.1676 -0.0400  0.0733
 6400W        W26680   5.136   7.719  15.633  0.0280 -0.1505 -0.0295
 6401W        W26681   1.255   4.128   0.105  0.2318  0.3798 -0.0965
 6402W        W26682   1.857   7.834  14.136 -0.4302  0.1405  0.4013
 6403W        W26683   9.880  15.654   4.861  0.1076  0.1318  0.1034
 6404W        W26684  11.678  12.167   0.052  0.0247  0.2773 -0.0566
 6405W        W26685   5.299  17.709  12.091 -0.0799 -0.1772 -0.1420
 6406W        W26686  10.462   1.372   4.195 -0.2074 -0.0697 -0.3082
 6407W        W26687  10.261   0.420  12.661  0.2205  0.0729 -0.3476
 6408W        W26688   1.136  15.105  12.700  0.1299  0.1003  0.0729
 6409W        W26689   3.431  13.041  12.286  0.1589 -0.2701  0.0599
 6410W        W26690   0.853   6.632  16.083 -0.2242  0.0219  0.0553
 6411W        W26691  11.436   4.011  11.820 -0.2863  0.0571 -0.2343
 6412W        W26692  17.463   6.006  12.413  0.1410  0.2653 -0.1737
 6413W        W26693  16.146  10.764  15.608 -0.0262 -0.1513  0.1799
 6414W        W26694   2.961  17.732  14.285 -0.0175  0.2689 -0.1402
 6415W        W26695   6.597   0.484  12.707  0.3026 -0.0002  0.2522
 6416W        W26696   1.083   7.471  15.031 -0.3029 -0.1039 -0.0827
 6417W        W26697   0.372  13.987  16.695  0.1589  0.2055 -0.0149
 6418W        W26698   3.632  14.238   2.512  0.2929 -0.0238 -0.0242
 6419W        W26699  13.605   3.858  15.555  0.2316  0.1082  0.3712
 6420W        W26700  17.851   0.389   3.912  0.1914 -0.0955  0.1867
 6421W        W26701  12.917   4.274  12.734 -0.0290 -0.2309  0.1219
 6422W        W26702  10.657   3.554  12.699  0.0724  0.0129  0.3488
 6423W        W26703  17.363   5.812   1.792  0.1545 -0.0970 -0.2215
 6424W        W26704  13.486   0.981  14.600 -0.2036 -0.0503  0.0644
 6425W        W26705  15.496   2.704   2.296  0.0881 -0.2031  0.0446
 6426W        W26706   2.744   3.446  12.997 -0.4654  0.0233  0.0652
 6427W        W26707  14.109  14.950  12.498 -0.2050 -0.2134 -0.2128
 6428W        W26708   0.320  15.750  15.280 -0.0090  0.1980  0.1490
 6429W        W26709  11.810   4.840   2.436 -0.2796 -0.0876 -0.1555
 6430W        W26710  15.928  12.120   1.796  0.1391 -0.2351 -0.0493
 6431W        W26711   0.328   0.607   1.462  0.2488  0.3422 -0.3286
 6432W        W26712   9.793  10.344   3.251  0.0638  0.0887  0.0833
 6433W        W26713  10.046   6.019  13.176  0.1919  0.0596 -0.4345
 6434W        W26714   6.061  12.189   1.515 -0.0167  0.0696 -0.0659
 6435W        W26715  13.148   5.626   0.361 -0.3433 -0.2222 -0.2533
 6436W        W26716  13.461  14.450  13.241 -0.0040 -0.2225 -0.1169
 6437W        W26717  11.364  14.234  12.828 -0.1258 -0.1531 -0.5892
 6438W        W26718   5.013  10.377   4.758 -0.0413  0.1801  0.3265
 6439W        W26719  12.004  14.829   0.588  0.3256 -0.0468 -0.4061
 6440W        W26720   0.361   0.329  12.329 -0.3679  0.0553  0.0049
 6441W        W26721   6.959   3.257  12.026  0.0720 -0.1272  0.1618
 6442W        W26722   5.164   8.626   2.261 -0.0090 -0.2287  0.0492
 6443W        W26723   6.018  11.893   0.461  0.2542  0.1456 -0.1489
 6444W        W26724   2.370  17.121   2.334  0.0698  0.0715  0.1076
 6445W        W26725  15.139   1.426  15.338 -0.2662  0.2549  0.0067
 6446W        W26726   6.074   9.293  13.074 -0.4436  0.3223 -0.0581
 6447W        W26727   1.521   2.703  14.985 -0.2514 -0.2387  0.1780
 6448W        W26728   9.851  11.755  12.492  0.1202 -0.2950 -0.0062
 6449W        W26729   2.354   1.155   4.266 -0.1432 -0.2429 -0.1463
 6450W        W26730   5.235  14.249  13.094 -0.2168 -0.1055 -0.0437
 6451W        W26731   5.466  12.113  16.263  0.0152 -0.0517  0.0664
 6452W        W26732  17.487   4.254  14.872  0.0643 -0.1051 -0.4070
 6453W        W26733   9.162   4.608  12.532 -0.2591  0.4159 -0.2350
 6454W        W26734   9.589   4.915   0.662 -0.1460 -0.0622  0.0378
 6455W        W26735  10.779   4.956   4.161  0.2988  0.3555 -0.0169
 6456W        W26736  17.543  16.438  15.481  0.0625  0.0442  0.2528
 6457W        W26737   8.027  17.686  12.447  0.0385  0.0157 -0.2981
 6458W        W26738  17.861   1.143  13.234 -0.0431 -0.3062  0.2492
 6459W        W26739  17.062   4.735   1.580  0.3228 -0.0781  0.1038
 6460W        W26740   3.224  12.520  14.350  0.2172  0.1784 -0.0736
 6461W        W26741   2.078   5.783  15.807  0.1070 -0.1594  0.5631
 6462W        W26742  16.635  16.325  11.978  0.0645 -0.0140 -0.0997
 6463W        W26743  11.794   2.026   4.353 -0.0879  0.2603 -0.0519
 6464W        W26744   1.113   7.540  16.422  0.1597 -0.2513  0.0973
 6465W        W26745   2.878   4.539   3.638  0.2715 -0.0442  0.0211
 6466W        W26746  15.598   6.517  15.607 -0.0181 -0.1186 -0.2639
 6467W        W26747   5.979   3.120  13.503 -0.2057  0.3337 -0.0953
 6468W        W26748   8.243  13.965   0.541 -0.1358 -0.0996  0.1144
 6469W        W26749  11.365  12.250   2.958  0.0537  0.0299  0.0253
 6470W        W26750   7.005  17.212  15.639  0.0426 -0.3091  0.0749
 6471W        W26751   3.495   5.329  14.704 -0.0092 -0.2121  0.1886
 6472W        W26752  16.160   7.005  16.600  0.2015 -0.1664 -0.0538
 6473W        W26753  14.585  12.210  15.049 -0.1046 -0.0637 -0.3558
 6474W        W26754  13.626   4.717   4.226 -0.1130 -0.1944  0.1091
 6475W        W26755   6.512  10.474  13.695  0.0609  0.0901 -0.0467
 6476W        W26756   7.790   3.464  12.707 -0.1504 -0.0748  0.0901
 6477W        W26757  17.809   2.142  13.510 -0.0211 -0.1458  0.0810
 6478W        W26758   2.940   5.303  12.842 -0.0797 -0.5567 -0.0404
 6479W        W26759  12.471   3.602  11.459  0.2783  0.0368 -0.1015
 6480W        W26760  14.389   1.151   1.598 -0.5366 -0.0204  0.1296
 6481W        W26761  13.609  14.286   0.889  0.0991 -0.1407 -0.2387
 6482W        W26762   0.532   0.485   2.742 -0.0123  0.0740 -0.1466
 6483W        W26763   9.283  16.895   4.189 -0.0200 -0.0615 -0.1747
 6484W        W26764  12.033   2.588   2.195 -0.0018  0.1444  0.0077
 6485W        W26765   7.708   0.813   5.058  0.2136  0.0834  0.0999
 6486W        W26766  11.515  16.678   1.003 -0.0598  0.0409 -0.2695
 6487W        W26767   2.582   1.543   3.409  0.1085 -0.1404 -0.1510
 6488W        W26768  16.690   1.294  14.082  0.4405 -0.1743 -0.1287
 6489W        W26769   4.656  10.233   2.764 -0.1260  0.1828 -0.2469
 6490W        W26770   2.269   5.062   2.254  0.0099  0.0920  0.0767
 6491W        W26771  16.246  16.005  15.348  0.2528 -0.2883  0.0821
 6492W        W26772   2.277  15.767   3.592  0.2286  0.1181  0.1869
 6493W        W26773   9.292   1.394   3.940 -0.0136  0.1799  0.0312
 6494W        W26774   2.157  14.429   2.456  0.1828  0.1195  0.0521
 6495W        W26775  16.535  13.911  15.688  0.3341 -0.1144  0.2721
 6496W        W26776  16.880  10.343  13.243 -0.2445  0.1135  0.0893
 6497W        W26777   3.149  15.852  15.305  0.1900 -0.0185  0.1223
 6498W        W26778  16.002  12.385   4.611  0.2239  0.2194 -0.0764
 6499W        W26779   7.747   5.031  15.159  0.0862  0.2708  0.2029
 6500W        W26780   9.979   1.659  12.192 -0.0766  0.1085  0.1441
 6501W        W26781   7.556  16.232  15.594 -0.1115 -0.1691  0.0800
 6502W        W26782  10.078   3.144   0.807 -0.2233  0.0109  0.1391
 6503W        W26783   7.014  12.225   0.256  0.1247 -0.3177 -0.2538
 6504W        W26784   2.720  12.478   5.324  0.2963 -0.1406  0.2323
 6505W        W26785  15.877  16.964  15.697  0.2694  0.0754 -0.2039
 6506W        W26786   2.688   1.923  13.746 -0.0722  0.0721 -0.1739
 6507W        W26787   5.862   9.694  14.183  0.1518 -0.2060 -0.3706
 6508W        W26788   0.440  11.368  14.550  0.1096  0.0846  0.2894
 6509W        W26789  16.050   5.468   3.436  0.3026 -0.2031 -0.0147
 6510W        W26790   9.746  12.348  15.462  0.1088  0.2236 -0.0542
 6511W        W26791   3.746   5.705  14.367  0.2153 -0.1092 -0.1940
 6512W        W26792   4.274  15.203   6.200  0.1057 -0.3274  0.1824
 6513W        W26793   9.580  13.501  16.122 -0.1847  0.4671  0.1629
 6514W        W26794   3.507   5.663   3.724  0.2559 -0.2912  0.2003
 6515W        W26795  10.138  13.096  12.427  0.1456 -0.0740  0.4505
 6516W        W26796   9.551  16.045   1.522  0.0005 -0.0290 -0.0130
 6517W        W26797   9.794   0.712  12.753 -0.1826  0.0707  0.0025
 6518W        W26798  13.617   5.670  12.492  0.0351  0.0871 -0.1437
 6519W        W26799   5.475  14.359   4.598  0.0739  0.1134 -0.2247
 6520W        W26800   5.255  10.300  14.243 -0.0794 -0.0457  0.4831
 6521W        W26801  14.607  15.070  13.380 -0.1050 -0.0706  0.1533
 6522W        W26802   3.215   2.025  14.472 -0.1027 -0.1414 -0.1631
 6523W        W26803  16.785  15.282  14.855 -0.3758 -0.3289  0.1120
 6524W        W26804   4.896   6.139  12.856  0.1044 -0.0819  0.1017
 6525W        W26805  10.158  13.608   0.584  0.3512 -0.5964  0.1879
 6526W        W26806   2.644   9.804  13.485  0.2112 -0.0099  0.0740
 6527W        W26807   0.280   0.432  16.635  0.1413 -0.1332  0.1437
 6528W        W26808  13.543  10.471   4.591  0.0814 -0.1610  0.2499
 6529W        W26809   1.755  11.667  14.261 -0.0395  0.0873  0.3847
 6530W        W26810   9.368   4.968  14.566  0.0954  0.1494  0.2180
 6531W        W26811  11.564  17.832  14.049  0.0491  0.1125  0.2028
 6532W        W26812   8.316  14.068   3.935  0.0827  0.2516 -0.2172
 6533W        W26813   8.761   2.769   2.019 -0.2593 -0.0040  0.4568
 6534W        W26814   3.261   3.476   3.578 -0.2826  0.1437  0.1836
 6535W        W26815   1.740   7.547   3.105 -0.1281 -0.0010  0.0168
 6536W        W26816   8.422  17.715   4.582 -0.0131  0.3105 -0.1121
 6537W        W26817   7.384   6.254  11.950  0.0238  0.2209 -0.2896
 6538W        W26818   0.461   2.320   1.742  0.2457 -0.0330 -0.3991
 6539W        W26819   3.242  17.798  13.029  0.2333 -0.0779  0.0282
 6540W        W26820  17.811  11.582   4.934  0.1029  0.1181 -0.0518
 6541W        W26821  17.165   6.924   3.356 -0.1818 -0.1355 -0.1004
 6542W        W26822   6.279   5.211   1.834 -0.1474 -0.0865  0.0619
 6543W        W26823  11.326   6.237  13.312  0.1355  0.1318  0.0261
 6544W        W26824   9.000  10.235  14.602  0.0526  0.0179 -0.1482
 6545W        W26825   5.288   5.232   1.378  0.1786 -0.4861  0.0438
 6546W        W26826   7.422   7.956   2.604 -0.0880  0.1767  0.0390
 6547W        W26827   3.625  16.546  12.484 -0.1406  0.0527  0.1962
 6548W        W26828  11.763  14.274  13.060  0.0531 -0.4265  0.0664
 6549W        W26829   4.590  11.363  13.729 -0.2047 -0.3124  0.0672
 6550W        W26830  13.939   8.736   4.152  0.1848  0.3429  0.0198
 6551W        W26831  14.051  11.524   5.377  0.0800 -0.0988  0.0648
 6552W        W26832   7.116  11.467  14.316 -0.2828 -0.2156 -0.2368
 6553W        W26833  17.305  10.836   1.546  0.2292 -0.0806  0.2154
 6554W        W26834  17.025   5.615  14.007  0.2649  0.0932 -0.0551
 6555W        W26835  12.396  10.882  15.664 -0.3606  0.1757  0.1628
 6556W        W26836  10.381   7.627   4.653 -0.4200  0.2179 -0.2892
 6557W        W26837   6.355  17.212  14.827 -0.2652 -0.1294 -0.1382
 6558W        W26838   0.390  13.674   3.381  0.0336 -0.1810 -0.0607
 6559W        W26839  13.609  17.013   2.503 -0.1458  0.0849  0.0224
 6560W        W26840   4.445   5.668  14.556  0.2123 -0.3170 -0.0001
 6561W        W26841  14.660   1.953   2.766  0.0867  0.2931  0.1919
 6562W        W26842  11.014   5.440   3.986  0.3277 -0.3106  0.1959
 6563W        W26843  11.649  13.753   4.099 -0.0823 -0.2822  0.1093
 6564W        W26844  13.118  14.040  15.294 -0.0441 -0.2062 -0.0174
 6565W        W26845  16.228  11.463  14.140  0.2936 -0.2135 -0.1003
 6566W        W26846  12.026   2.917   1.791 -0.1865  0.1357  0.2579
 6567W        W26847   1.024   9.334  16.158 -0.0697  0.0284 -0.1203
 6568W        W26848   7.738  13.463  13.305  0.3235 -0.2532  0.0451
 6569W        W26849   2.711  10.257   3.891 -0.3925 -0.0139  0.2234
 6570W        W26850   4.820  12.379   0.073  0.3341  0.0373  0.1039
 6571W        W26851   5.415  10.132   1.573  0.0116  0.1389  0.2216
 6572W        W26852   8.304  12.304   0.758 -0.0515 -0.0902 -0.1708
 6573W        W26853  12.699   6.263   3.931 -0.3003 -0.1810  0.1199
 6574W        W26854  16.482  11.050  14.920 -0.1485  0.0064  0.0547
 6575W        W26855   1.787  16.473  13.842  0.0772  0.1100  0.0944
 6576W        W26856  14.450   0.416   4.892 -0.0747 -0.0891  0.3229
 6577W        W26857   6.272  13.009   3.550 -0.2395  0.0190 -0.0397
 6578W        W26858  10.438  15.006  12.216  0.1415  0.0993 -0.0855
 6579W        W26859   5.897  16.536   0.105  0.0037 -0.0239  0.0155
 6580W        W26860  13.288  17.160   4.674 -0.1610 -0.0326  0.0168
 6581W        W26861   6.605   0.496  15.584 -0.1406 -0.1250 -0.0430
 6582W        W26862   0.984  13.422  14.399 -0.3180  0.2709  0.0479
 6583W        W26863   8.844  11.014  13.595 -0.0944 -0.0797 -0.0170
 6584W        W26864  11.511  13.280   2.430  0.2556  0.0518 -0.3377
 6585W        W26865  17.669   5.120   0.095 -0.2583  0.0367 -0.0106
 6586W        W26866  10.215   6.762   1.971 -0.2181 -0.1753  0.3608
 6587W        W26867   6.442   0.004   2.428 -0.3221  0.2630  0.0026
 6588W        W26868  15.748  10.443   5.246 -0.2205  0.2107 -0.3059
 6589W        W26869   6.779   3.024   1.515  0.1135  0.0797 -0.2775
 6590W        W26870  13.608   8.777   1.490  0.1784  0.1817 -0.0182
 6591W        W26871   3.208   5.036  14.999 -0.1899 -0.1276  0.1492
 6592W        W26872   2.715  13.210   0.919  0.2855  0.2180 -0.1087
 6593W        W26873  17.030  14.393  15.508  0.0435  0.1728 -0.0623
 6594W        W26874   3.241   1.599   3.903  0.0359 -0.1523 -0.0960
 6595W        W26875   8.547   6.059  13.208 -0.0048 -0.0890 -0.0855
 6596W        W26876   3.800   6.746   4.224 -0.1028  0.2133 -0.1752
 6597W        W26877   2.071  11.293   2.088  0.1435 -0.1909 -0.0533
 6598W        W26878  17.907  17.657  13.903  0.0067  0.1853  0.1054
 6599W        W26879  15.899   6.862   0.850  0.0214  0.1401 -0.0859
 6600W        W26880  17.224   2.016   4.316 -0.1168 -0.0348 -0.1475
 6601W        W26881   1.845   8.939  12.411  0.3271 -0.0468  0.2762
 6602W        W26882   2.820  15.763   2.441  0.2140  0.0445 -0.1042
 6603W        W26883   9.668   8.817   1.304  0.1636  0.0353 -0.1235
 6604W        W26884   8.473  12.433  14.679 -0.3868  0.1896 -0.3556
 6605W        W26885   9.278  13.642   1.640 -0.0142  0.0478  0.2027
 6606W        W26886   5.118   8.327  13.097  0.1736 -0.0731 -0.0273
 6607W        W26887   3.575   5.930   0.991  0.1266 -0.0444 -0.0495
 6608W        W26888  14.874  14.723   1.278 -0.0724  0.1681  0.3106
 6609W        W26889   7.005   6.400   0.219 -0.1278 -0.1002  0.1362
 6610W        W26890  10.506   1.035  13.990  0.1931 -0.2469  0.0439
 6611W        W26891  14.145   9.022  14.639 -0.2089 -0.0125 -0.0063
 6612W        W26892   9.626   4.766  12.318  0.0500 -0.1934 -0.2395
 6613W        W26893  16.033  17.145  14.060  0.3184  0.2456  0.1124
 6614W        W26894   7.492  13.469   0.504  0.1069  0.0394  0.0519
 6615W        W26895   9.913   2.685   0.065 -0.0568  0.0359 -0.1131
 6616W        W26896   6.620  11.519  16.280  0.0853  0.1660 -0.2454
 6617W        W26897  11.024   1.560  13.865 -0.1236 -0.1965 -0.0754
 6618W        W26898   0.520   8.765  14.537  0.2380  0.2504  0.3712
 6619W        W26899   4.236  16.758   4.576 -0.4642  0.0585  0.0924
 6620W        W26900  15.054  17.183  14.400 -0.0391 -0.1606 -0.0322
 6621W        W26901   9.747   9.587   2.244 -0.0614  0.0414  0.0562
 6622W        W26902   9.667  13.369  13.546  0.0100  0.1718  0.0057
 6623W        W26903  10.176   7.924  15.312  0.1492  0.5672  0.1335
 6624W        W26904   6.017   3.643  16.377  0.0779  0.0767  0.1098
 6625W        W26905  14.805   9.180  13.593  0.0615 -0.2728  0.4902
 6626W        W26906  11.695   4.639   0.130 -0.2427  0.1274 -0.0311
 6627W        W26907  14.144   2.764  14.928 -0.0863 -0.0437 -0.0624
 6628W        W26908   7.800  15.324  12.939  0.0629 -0.1880 -0.2795
 6629W        W26909  10.561   7.864  14.439  0.1177 -0.1983  0.1617
 6630W        W26910  13.408   0.473   4.057 -0.0880 -0.2523 -0.1421
 6631W        W26911   4.357  14.097  16.589  0.3113 -0.3923  0.0236
 6632W        W26912   7.333   9.132   2.240 -0.1865 -0.2346 -0.1832
 6633W        W26913  11.242   1.185  15.695  0.2432 -0.0445  0.2747
 6634W        W26914   2.553  13.447   1.283 -0.2636 -0.0090 -0.1826
 6635W        W26915   2.652  13.180  13.982 -0.0146 -0.2042  0.2066
 6636W        W26916  10.322   6.254   3.784  0.1479 -0.0176  0.2610
 6637W        W26917  17.271  12.869   4.643 -0.2114 -0.1800 -0.3149
 6638W        W26918   5.980   6.220  14.780 -0.0756  0.2214 -0.1835
 6639W        W26919   5.363  12.912   3.169  0.0345 -0.2262  0.1281
 6640W        W26920  10.410   3.651   1.272 -0.2344 -0.2666  0.0210
 6641W        W26921   9.508   7.168   4.517  0.1276 -0.0437  0.0725
 6642W        W26922   6.433   7.090   0.644 -0.1327 -0.1062 -0.0523
 6643W        W26923  12.541   5.230   4.315  0.1339  0.0342  0.1249
 6644W        W26924   4.347   6.361  14.517  0.0502  0.1719  0.4884
 6645W        W26925  15.353  17.152  16.408  0.2337 -0.2632  0.0856
 6646W        W26926  14.798   8.189  15.327  0.2004 -0.0844  0.0434
 6647W        W26927   3.697  15.992  16.196  0.3229  0.1490  0.0398
 6648W        W26928  12.013   0.582  14.582  0.0685  0.4520  0.1331
 6649W        W26929   3.258   5.559  15.141 -0.2214  0.0047 -0.0751
 6650W        W26930  10.277   2.782   4.356  0.4356  0.0727  0.2417
 6651W        W26931   9.310   6.393  12.408 -0.3035  0.2190 -0.0537
 6652W        W26932   3.737  12.286  13.089  0.1855 -0.1315  0.0883
 6653W        W26933  12.189   1.079  12.886  0.0036 -0.0694  0.0933
 6654W        W26934   0.618   7.238   4.726 -0.1215  0.1775  0.0229
 6655W        W26935   9.169  14.623  12.498  0.0042 -0.5427  0.0334
 6656W        W26936   5.140   8.398   1.407 -0.1090 -0.1606  0.0787
 6657W        W26937   1.499   6.957  15.065  0.0470 -0.1474  0.0952
 6658W        W26938  15.460   5.402   0.252  0.2965 -0.0385 -0.3065
 6659W        W26939   7.482  10.911  13.766 -0.1450  0.2200  0.2840
 6660W        W26940  10.371   0.071  15.845 -0.3465  0.0512  0.0146
 6661W        W26941   1.688  15.037  12.152 -0.0767 -0.0790  0.0885
 6662W        W26942  11.004   6.062   4.189 -0.3332 -0.1699  0.2174
 6663W        W26943   4.870  10.572   0.119  0.0281  0.1417 -0.0628
 6664W        W26944  11.016   2.043  13.674  0.1194  0.2092 -0.3609
 6665W        W26945   9.916   7.560   3.342  0.0304  0.3811 -0.2422
 6666W        W26946  10.673   1.011   2.494 -0.1605  0.1368 -0.4621
 6667W        W26947   0.839  17.004   1.074  0.1152  0.0839  0.1268
 6668W        W26948   5.902  12.894  14.946 -0.1031 -0.0412  0.1296
 6669W        W26949   0.102   4.669   4.053  0.1160  0.1010  0.0046
 6670W        W26950   4.008   9.953   0.775 -0.2409  0.1057 -0.0590
 6671W        W26951  12.347   0.610   1.852  0.0831  0.0686  0.0663
 6672W        W26952  16.937   3.561   1.597  0.0143 -0.2027  0.2245
 6673W        W26953   6.958   2.378  15.775 -0.0043 -0.3912  0.0585
 6674W        W26954   3.609   3.847   3.462  0.1073  0.1049 -0.3887
 6675W        W26955   3.930  12.722   2.261 -0.0791  0.1495  0.3691
 6676W        W26956  13.449  11.909   1.406  0.1207  0.0660 -0.0158
 6677W        W26957   7.367   3.002  13.342  0.0500 -0.0791  0.3333
 6678W        W26958   3.537   5.215   1.536  0.2402 -0.0274 -0.0904
 6679W        W26959  17.849   5.532  13.512 -0.0990 -0.0337 -0.0123
 6680W        W26960  10.120   6.693  12.317 -0.0919 -0.1154  0.2482
 6681W        W26961   3.827  14.957   3.944  0.0803 -0.2374  0.2704
 6682W        W26962  17.430   0.714   4.256  0.1423 -0.1241 -0.0903
 6683W        W26963   4.862   2.023  15.154  0.3508  0.0802  0.0649
 6684W        W26964   5.728  13.652  13.945 -0.1041 -0.0451 -0.0055
 6685W        W26965   4.518   7.789   2.314 -0.2237 -0.5066  0.0257
 6686W        W26966   1.402   3.233   0.078 -0.0742  0.0040 -0.0634
 6687W        W26967  13.471   1.906  13.165  0.0870 -0.1421 -0.4615
 6688W        W26968   2.005  16.839  15.031 -0.1270  0.3260  0.0171
 6689W        W26969   7.360   4.722  12.339 -0.1104 -0.2260  0.1439
 6690W        W26970   9.676  15.645   3.496  0.0598  0.1963 -0.0034
 6691W        W26971  14.212   1.120  14.021  0.2342 -0.0171 -0.0751
 6692W        W26972   9.244   4.544   1.008  0.2628  0.1905 -0.1287
 6693W        W26973  13.439   7.385   3.505 -0.2564 -0.2327 -0.0033
 6694W        W26974  17.135   9.014  11.362 -0.0404  0.1668 -0.1255
 6695W        W26975   4.575   1.360  16.497 -0.0774 -0.4405  0.2130
 6696W        W26976  12.482  16.545   0.017 -0.1163  0.0634  0.1933
 6697W        W26977  11.654   7.593  15.313  0.2355 -0.1328 -0.0384
 6698W        W26978   4.769   6.290  14.112  0.1781  0.2081 -0.1126
 6699W        W26979  12.367   9.865  13.764 -0.1503 -0.1643  0.3332
 6700W        W26980   1.069  14.042  15.334 -0.0556  0.0400  0.0948
 6701W        W26981  11.336   2.845   4.794  0.0810  0.0414  0.1209
 6702W        W26982  13.223   2.728   4.214  0.3732  0.0093  0.0761
 6703W        W26983  17.581   1.897   1.858  0.0255 -0.0350 -0.2396
 6704W        W26984  13.411  12.503   3.093 -0.0833 -0.2536 -0.2347
 6705W        W26985   4.122   5.099  15.358  0.0754 -0.0743 -0.2832
 6706W        W26986  10.995  11.464   0.777 -0.0678 -0.1398  0.0076
 6707W        W26987   0.101   1.703  15.511 -0.2396  0.2489  0.0022
 6708W        W26988   7.422  15.568   3.907  0.1286  0.2452  0.0341
 6709W        W26989  10.103   1.095   1.618 -0.1332 -0.1742  0.4474
 6710W        W26990  13.596   7.605  14.805  0.0364 -0.2117 -0.0790
 6711W        W26991  13.274   2.708  13.170 -0.0970 -0.1064 -0.1850
 6712W        W26992   5.994   7.446   1.595 -0.0090  0.2289  0.1142
 6713W        W26993  11.736  11.874   0.475 -0.2585  0.1621 -0.1098
 6714W        W26994   8.431  10.830  16.681 -0.1587  0.0410 -0.0723
 6715W        W26995  10.815  10.069   0.358 -0.0523  0.2497 -0.3309
 6716W        W26996   4.993  14.119   4.590 -0.0156  0.0392  0.0876
 6717W        W26997  15.803  13.442   2.029  0.0634 -0.1710 -0.0076
 6718W        W26998  14.067   7.806  16.194  0.2927  0.2382 -0.2414
 6719W        W26999   8.320  10.255   4.406 -0.1202  0.2012 -0.5804
 6720W        W27000  11.957   6.214   4.963  0.1899  0.0679  0.2431
 6721W        W27001   3.185   8.671   0.610  0.3893 -0.0567  0.1734
 6722W        W27002   7.122   4.205   3.686 -0.1349 -0.1498 -0.3436
 6723W        W27003   7.046  12.227  14.363  0.2857  0.0100 -0.3307
 6724W        W27004  10.307   6.472  13.266 -0.1591 -0.0112  0.2577
 6725W        W27005   3.641   0.265   2.128 -0.3302  0.2933 -0.2051
 6726W        W27006   0.103  13.312   1.514 -0.1471  0.1466 -0.2441
 6727W        W27007   2.618   4.028   1.595 -0.0152  0.3060  0.2664
 6728W        W27008   9.740  13.381  14.461  0.2403 -0.1960  0.0875
 6729W        W27009  13.839   0.062   1.881 -0.0835  0.0550 -0.1423
 6730W        W27010   1.950   0.828  12.993 -0.1994  0.1590  0.0540
 6731W        W27011   7.061   1.126   3.649  0.1689  0.0162 -0.1300
 6732W        W27012  12.764   5.990  13.329  0.0163 -0.0391 -0.0278
 6733W        W27013   2.983   7.655   0.453  0.2553  0.1525 -0.0221
 6734W        W27014  12.707   9.655  14.033 -0.1080  0.1847  0.0998
 6735W        W27015   4.783  11.073   0.610 -0.2026 -0.0459  0.3359
 6736W        W27016   7.929  15.216   1.161  0.0232  0.0261 -0.2808
 6737W        W27017   7.603   1.567   1.925  0.0922 -0.0141 -0.0242
 6738W        W27018  12.508   3.453  15.058  0.1597  0.0898  0.2042
 6739W        W27019  10.236  11.125   0.283 -0.0906  0.0466 -0.3831
 6740W        W27020  16.187   0.157   1.920  0.1921  0.2530 -0.3871
 6741W        W27021  13.298   2.229   2.186  0.1802  0.2299 -0.0826
 6742W        W27022   1.816   5.815  12.540 -0.1607 -0.0128 -0.2213
 6743W        W27023   5.366  14.990  14.591  0.0710 -0.1284 -0.1302
 6744W        W27024   2.324  15.914  15.463 -0.1971  0.0396  0.2317
 6745W        W27025   9.540   6.992   1.380 -0.2696 -0.2256  0.2125
 6746W        W27026   1.260   4.489  15.475  0.0837 -0.1251 -0.0125
 6747W        W27027   3.110   5.651  13.666  0.1098 -0.4045  0.0768
 6748W        W27028   1.721   0.122   4.463  0.1547 -0.3373  0.2150
 6749W        W27029  13.374   2.870  15.688  0.0596  0.2336  0.1459
 6750W        W27030  12.320  10.677  14.049  0.1087 -0.2150  0.0635
 6751W        W27031   7.094   7.560  12.784 -0.0685  0.0470 -0.3979
 6752W        W27032   8.778   8.292   4.020 -0.1426  0.0588  0.1743
 6753W        W27033  10.136   4.188  11.549 -0.1565  0.2005  0.3952
 6754W        W27034   7.673  14.732  14.177 -0.0633 -0.2515 -0.0001
 6755W        W27035  16.111   3.289  16.333 -0.2344 -0.0796  0.4944
 6756W        W27036  13.170   4.960   0.176 -0.0352 -0.0991 -0.2283
 6757W        W27037  16.515   6.224   1.266  0.0711  0.1074  0.2268
 6758W        W27038  17.463  15.973  12.839 -0.0462 -0.0740  0.2713
 6759W        W27039  17.944   5.111  14.740 -0.1059 -0.0485 -0.0025
 6760W        W27040  16.085  13.757  15.408  0.1448 -0.0548 -0.0859
 6761W        W27041   1.103  12.626   5.067  0.1177 -0.2638 -0.1556
 6762W        W27042   5.087  12.177  14.082 -0.0774 -0.0854  0.0802
 6763W        W27043   5.143   1.991  16.013  0.0029 -0.4690 -0.0460
 6764W        W27044  13.911   5.471  11.953  0.1627  0.0635 -0.0715
 6765W        W27045   4.702   7.714   1.753  0.0631 -0.1564 -0.3106
 6766W        W27046   0.127  11.920  14.637 -0.0595 -0.2332 -0.3071
 6767W        W27047   1.551   0.452  14.905  0.1240  0.0578  0.0497
 6768W        W27048   2.033  16.343  16.218 -0.0558 -0.2969  0.1083
 6769W        W27049   5.011  10.315  12.118  0.0988 -0.1694  0.1826
 6770W        W27050  11.764  10.684   4.377 -0.0916 -0.0436 -0.0191
 6771W        W27051   3.749  10.426   5.012  0.2177  0.0640  0.1441
 6772W        W27052   2.399   2.317  14.956  0.2616 -0.1389 -0.0842
 6773W        W27053   6.107  10.938  15.178 -0.0743 -0.1986  0.0725
 6774W        W27054   4.463   7.969   4.423 -0.1595  0.0122  0.1260
 6775W        W27055   1.910  15.878  13.601  0.0212 -0.1314  0.0859
 6776W        W27056  16.506  13.502  12.353  0.1608 -0.2316 -0.1457
 6777W        W27057  12.181   9.443  16.565  0.1443 -0.2426 -0.1060
 6778W        W27058  12.573  16.301   3.135 -0.3825 -0.0514  0.1654
 6779W        W27059  15.572   1.847  13.591 -0.1593  0.0238 -0.2976
 6780W        W27060   2.144  11.414   3.840 -0.0061 -0.2776 -0.0313
 6781W        W27061  12.437  14.278   2.320 -0.5004 -0.3159  0.1601
 6782W        W27062   6.469   1.945  13.475  0.0735  0.1566  0.2035
 6783W        W27063   1.030  11.967   1.333  0.0484  0.3481  0.1641
 6784W        W27064   5.529  17.257  14.346 -0.0991 -0.0703 -0.1832
 6785W        W27065   4.272  10.412  12.957 -0.1891 -0.1187 -0.2971
 6786W        W27066  13.798   2.026   4.705  0.1239 -0.0366 -0.0739
 6787W        W27067  13.270  13.043  15.508 -0.0036  0.3352  0.0502
 6788W        W27068   1.056   5.472   2.119  0.2049 -0.5054  0.1249
 6789W        W27069  17.018   5.884  12.615  0.2663  0.0399  0.0549
 6790W        W27070  16.888   2.908  16.246 -0.0272  0.4137 -0.0740
 6791W        W27071   5.237   6.544   1.934  0.0071  0.0569  0.0609
 6792W        W27072   3.196   3.461  13.211 -0.1084 -0.1741 -0.2475
 6793W        W27073  12.835   0.948   4.550  0.1830 -0.0237 -0.0465
 6794W        W27074   0.093   5.034   3.627  0.1618  0.2302 -0.3220
 6795W        W27075  11.831   7.255  15.653  0.1739 -0.0840 -0.1501
 6796W        W27076   4.965  12.970  14.376 -0.1007 -0.1238  0.2310
 6797W        W27077   1.851   2.475  14.181 -0.1318 -0.0654  0.0491
 6798W        W27078   7.542  16.874  13.241  0.2305 -0.4639  0.1694
 6799W        W27079   4.062  14.390  15.404 -0.2867 -0.4960 -0.2987
 6800W        W27080   9.269   5.109  13.581 -0.1918  0.3274  0.1346
 6801W        W27081  11.065   3.072   1.865  0.0531 -0.2420  0.0620
 6802W        W27082   5.403   0.819   4.616  0.0277  0.3372 -0.0970
 6803W        W27083   7.898  14.380   4.016  0.1235 -0.0738  0.1243
 6804W        W27084   7.028  16.700  13.208 -0.2637 -0.0340  0.0214
 6805W        W27085   1.871   7.736   3.975  0.0849 -0.1505  0.0813
 6806W        W27086  16.731  16.891   4.212 -0.1528 -0.0602 -0.5732
 6807W        W27087  15.733  17.247   1.751 -0.0392 -0.1470 -0.1316
 6808W        W27088  10.884   3.959   2.042  0.2843 -0.0495 -0.2157
 6809W        W27089   9.391   9.571   0.911 -0.3633  0.0472  0.1692
 6810W        W27090  15.495  16.297  12.725  0.0300 -0.4999  0.1879
 6811W        W27091  14.857  16.828   3.218 -0.0334 -0.2004 -0.0623
 6812W        W27092  11.578   6.459   0.446  0.2713 -0.1836  0.1902
 6813W        W27093   8.708  10.682  13.234 -0.1827  0.3060  0.1293
 6814W        W27094   3.021  17.945   0.243  0.0487 -0.0678 -0.5240
 6815W        W27095   7.810  13.072  15.006 -0.1649 -0.0533 -0.3898
 6816W        W27096  15.955  10.887   1.039  0.0266  0.1009  0.0709
 6817W        W27097  15.266   2.834   2.778  0.0911  0.1649  0.0814
 6818W        W27098   6.178   5.213  16.087  0.1763 -0.0035 -0.2678
 6819W        W27099  12.748   6.430  14.752  0.5838 -0.0983  0.3177
 6820W        W27100  17.016   7.936   4.265  0.1559  0.3251 -0.0167
 6821W        W27101   7.525   1.099   1.879 -0.0405 -0.0659  0.3097
 6822W        W27102   7.118   2.491   2.080  0.1036 -0.0474  0.0887
 6823W        W27103   4.582  10.840  13.654  0.0098  0.2012  0.0431
 6824W        W27104   4.160   5.431  14.125  0.0804  0.2060 -0.2136
 6825W        W27105   6.629  16.888   4.487  0.0137  0.1376 -0.0319
 6826W        W27106   9.552  17.982  16.036 -0.3831 -0.1107  0.0263
 6827W        W27107   2.618   0.265   3.538  0.3691  0.1810  0.1182
 6828W        W27108   3.591   8.494   3.920 -0.1347 -0.3149 -0.3748
 6829W        W27109   3.254   6.150   0.662  0.0982  0.1109 -0.1661
 6830W        W27110   0.357   1.784   1.767  0.1637  0.0883 -0.2782
 6831W        W27111  10.406   1.845   4.442  0.0509  0.1013 -0.2633
 6832W        W27112   9.305   6.321  15.593  0.0304  0.3888  0.3131
 6833W        W27113   3.403   3.888  11.873 -0.2329 -0.3185  0.1703
 6834W        W27114  10.683   4.547  13.182 -0.1488 -0.2673  0.2290
 6835W        W27115   8.079   6.259  16.366 -0.1306  0.2255  0.0954
 6836W        W27116   9.706  10.560  13.357 -0.1028 -0.0317 -0.3084
 6837W        W27117  11.114  13.637   4.051 -0.1213  0.0487  0.0689
 6838W        W27118   7.260  10.913   2.211  0.0166 -0.0757  0.2727
 6839W        W27119   7.971   4.592  16.275  0.1656 -0.0905 -0.0713
 6840W        W27120   5.811  11.013  16.638 -0.1778  0.1198  0.0235
 6841W        W27121  10.893   1.390  13.388 -0.4206 -0.0944 -0.0934
 6842W        W27122  10.447  10.288   1.057 -0.0116  0.2065 -0.2016
 6843W        W27123   1.095  11.027  13.816 -0.0369  0.1666  0.2321
 6844W        W27124  15.377   3.830  15.888 -0.1321  0.0760 -0.0584
 6845W        W27125   2.788  16.007  15.629 -0.1001 -0.3633  0.0007
 6846W        W27126  17.256  10.175  16.377  0.0032  0.1105 -0.5149
 6847W        W27127  10.580   1.286   1.531  0.4497  0.0890  0.2216
 6848W        W27128   2.570  10.008  15.509  0.4517  0.3322  0.2257
 6849W        W27129   3.261  17.467  13.595 -0.1202 -0.1976  0.0380
 6850W        W27130   5.804  10.424  16.349 -0.1662 -0.0356 -0.1601
 6851W        W27131   8.096   8.212   0.441 -0.0494 -0.0717 -0.3263
 6852W        W27132  12.784   2.657   3.940 -0.0913 -0.2665 -0.1968
 6853W        W27133   4.622   4.310   4.193 -0.0765  0.0702 -0.2226
 6854W        W27134  11.189  16.683   2.470 -0.3774 -0.1896 -0.3017
 6855W        W27135   1.995   5.444   4.481  0.3005  0.1011 -0.2263
 6856W        W27136   8.981   0.051  15.725  0.0439  0.0002 -0.1234
 6857W        W27137   0.136  13.754  14.711  0.0433  0.0550  0.1286
 6858W        W27138   9.074  13.997   2.678  0.1270 -0.0078  0.1486
 6859W        W27139   0.080   2.341  16.556 -0.1860 -0.0640 -0.2466
 6860W        W27140   2.709   8.385  13.879  0.1364  0.0837 -0.0293
 6861W        W27141   1.610   9.293   2.054  0.0054  0.2801  0.2917
 6862W        W27142  15.279  13.041   3.613 -0.5467 -0.0819  0.0671
 6863W        W27143   5.401   3.967   4.583 -0.1412  0.0960  0.1436
 6864W        W27144   6.918   3.187  14.970 -0.0388 -0.2081 -0.0899
 6865W        W27145   6.491  11.654  15.781 -0.1647 -0.0316 -0.0676
 6866W        W27146   6.229  14.917  16.164 -0.1273 -0.1735  0.2581
 6867W        W27147   3.612  17.983   0.732  0.0933  0.1771 -0.0689
 6868W        W27148  11.203   9.480   0.986  0.1661  0.0746 -0.1107
 6869W        W27149   7.055  14.927   1.498 -0.3314 -0.1068  0.2562
 6870W        W27150  10.551   3.540  10.449 -0.1578  0.1410  0.0938
 6871W        W27151   2.862  11.092   2.628 -0.1372  0.0080 -0.2661
 6872W        W27152   1.611  17.334   3.732  0.0054 -0.1349 -0.2215
 6873W        W27153  10.236   0.745  12.263 -0.0516  0.0658  0.3003
 6874W        W27154   5.450  15.135  13.031 -0.4236 -0.2042  0.0723
 6875W        W27155  13.929  10.593   3.563  0.2623  0.0757 -0.1038
 6876W        W27156   5.939   0.347   2.528 -0.1416  0.3269 -0.0913
 6877W        W27157   9.616   6.961  11.815 -0.2695 -0.0188  0.3556
 6878W        W27158   3.189  11.293   0.718  0.0752 -0.0002 -0.0573
 6879W        W27159   0.389   4.735   1.331 -0.1180 -0.0261  0.2030
 6880W        W27160  15.122  13.112  13.117 -0.2096 -0.2284  0.1599
 6881W        W27161  13.486  13.410   0.543 -0.0317  0.2118 -0.0764
 6882W        W27162   5.199   4.783   2.865  0.2474 -0.0786 -0.0272
 6883W        W27163  11.696   2.778  14.070 -0.1785 -0.1865  0.4472
 6884W        W27164  11.454  17.249   0.865  0.1016  0.2049  0.1663
 6885W        W27165  17.948   0.151   1.099 -0.2176  0.1076  0.0395
 6886W        W27166   2.153  10.276   4.923 -0.0187 -0.0999 -0.1267
 6887W        W27167   2.990  11.950  14.928 -0.4446  0.0541  0.0726
 6888W        W27168   3.912   5.460   1.037 -0.3201 -0.0429 -0.0850
 6889W        W27169  13.398  17.663  16.639 -0.2432 -0.3360  0.0530
 6890W        W27170   0.408  15.997  14.895 -0.2438 -0.0202  0.0871
 6891W        W27171  10.369  14.519   0.092  0.0933  0.1954  0.0415
 6892W        W27172  14.279   2.050  15.853  0.3146 -0.0716 -0.0466
 6893W        W27173   1.984  10.822   3.945 -0.1150  0.1192  0.5630
 6894W        W27174  11.825   6.155  14.794 -0.1310  0.0592  0.0269
 6895W        W27175   2.151  13.368   1.753 -0.0327 -0.1163 -0.0991
 6896W        W27176   5.541   7.623   4.756  0.2021 -0.0648  0.1090
 6897W        W27177   2.697   5.942  13.485  0.1936  0.2238  0.0767
 6898W        W27178  16.179  13.798  12.593  0.0557 -0.0823  0.2684
 6899W        W27179   4.264   5.355  12.696 -0.1361  0.1056 -0.1709
 6900W        W27180   9.258   7.506   3.013 -0.0228 -0.0754  0.1339
 6901W        W27181  10.726   9.845  12.399 -0.2077 -0.1235  0.2835
 6902W        W27182   5.906  12.094  15.299 -0.2127 -0.0982  0.1183
 6903W        W27183  11.948   9.759   0.783 -0.1022  0.0530 -0.3396
 6904W        W27184  14.239   1.497  12.401  0.1537  0.1315  0.0331
 6905W        W27185   7.325   0.566   1.103 -0.0586 -0.3397 -0.0657
 6906W        W27186  15.886   8.465  14.057 -0.0251 -0.2470 -0.4523
 6907W        W27187  13.827   1.445  15.886 -0.1623  0.2024 -0.0966
 6908W        W27188  17.777  16.384   4.706 -0.1788 -0.0197 -0.0832
 6909W        W27189   6.544   7.680   4.673 -0.1084  0.0183  0.3498
 6910W        W27190  10.457   2.542   0.023  0.0838  0.1715 -0.0208
 6911W        W27191   4.228  15.307   0.357 -0.0969 -0.0116 -0.0775
 6912W        W27192  15.104   8.479  13.993 -0.1387 -0.1543 -0.2670
 6913W        W27193  12.660  11.042  14.080  0.2788 -0.4275  0.0222
 6914W        W27194   9.693   5.269   2.155 -0.0784 -0.1740  0.0432
 6915W        W27195   4.288  10.405  13.740  0.0483  0.1748 -0.0211
 6916W        W27196   1.407   4.625   4.411 -0.2183  0.2121  0.2067
 6917W        W27197   4.949  17.510   5.313 -0.0435  0.0227 -0.2037
 6918W        W27198   4.117   6.810   0.866  0.1464 -0.0826 -0.1457
 6919W        W27199  15.300  16.723  13.056  0.1214 -0.2730  0.2859
 6920W        W27200  16.679   1.080  16.508 -0.2720 -0.1748 -0.1238
 6921W        W27201   6.388   8.062  16.688  0.0780 -0.2906 -0.1804
 6922W        W27202   1.715  14.297   0.143  0.0742 -0.1838 -0.0111
 6923W        W27203  12.377  12.719   0.665 -0.2577 -0.0699 -0.0269
 6924W        W27204   5.606  17.312  12.043 -0.1458  0.3121  0.0661
 6925W        W27205  10.937   9.758  12.924  0.3673 -0.0132 -0.3783
 6926W        W27206  15.378   0.592   0.972  0.2825 -0.1422 -0.0205
 6927W        W27207   2.829  13.693   1.725 -0.0412 -0.0075  0.1510
 6928W        W27208  17.132  16.505  14.134 -0.0912  0.0448 -0.1847
 6929W        W27209  17.289   4.035  16.004 -0.1746  0.1926 -0.3585
 6930W        W27210   5.440  17.522  12.617  0.1683 -0.1078 -0.0678
 6931W        W27211  13.341  17.941  12.674  0.0669  0.0077 -0.0839
 6932W        W27212   9.696   2.413   4.477 -0.0753  0.3261  0.1977
 6933W        W27213   9.905   0.926   3.965 -0.0866  0.0573  0.0084
 6934W        W27214   2.694  11.025  14.524 -0.1181  0.0301  0.0325
 6935W        W27215   2.544   4.902   3.144 -0.4145  0.1721  0.1761
 6936W        W27216  17.953  17.030   1.506  0.3562  0.0090  0.0567
 6937W        W27217   3.568   1.768  13.596 -0.3305  0.2192 -0.2005
 6938W        W27218   7.199  15.509  14.305  0.0417  0.0390  0.3019
 6939W        W27219   6.026   9.231  14.245 -0.1523  0.2845 -0.0456
 6940W        W27220   1.338  16.337  14.038  0.0123  0.0575  0.0729
 6941W        W27221   1.271   7.471   2.767  0.0228  0.0171 -0.2326
 6942W        W27222  15.668  14.631  14.126 -0.1371  0.2922  0.2205
 6943W        W27223  14.915   2.189   0.169  0.1118  0.1116  0.0131
 6944W        W27224   9.197   4.782  15.423  0.0428  0.1743  0.2929
 6945W        W27225   5.496  13.404   5.106 -0.0941 -0.1410  0.1306
 6946W        W27226   4.870   3.225   2.280 -0.1795 -0.3138 -0.0776
 6947W        W27227  11.409   8.469   4.513 -0.3026 -0.1746 -0.1872
 6948W        W27228   6.632  15.209   1.539  0.1529 -0.0832  0.0403
 6949W        W27229  13.416  14.131   3.874  0.1706  0.0221 -0.1264
 6950W        W27230  17.463  10.230  15.932  0.0678 -0.3524  0.0887
 6951W        W27231   8.510   4.243  14.641  0.1526 -0.0493  0.1714
 6952W        W27232   6.401   3.070  15.057  0.0620  0.1318 -0.1979
 6953W        W27233  11.257   7.768   3.848  0.2019 -0.0356 -0.0982
 6954W        W27234   7.458  12.110   3.827 -0.2830  0.3804  0.2201
 6955W        W27235   9.440   0.238   4.738  0.2014 -0.2125  0.3163
 6956W        W27236  10.850  10.461   2.861  0.2226  0.1155  0.1568
 6957W        W27237   5.582  10.840   3.312  0.1758  0.1895 -0.0594
 6958W        W27238  13.969   1.300  14.394  0.3382  0.0731 -0.1712
 6959W        W27239  11.524   5.425   0.270  0.0893 -0.1368 -0.1225
 6960W        W27240  13.283  13.329  12.756 -0.0143 -0.2930  0.1391
 6961W        W27241  12.554   7.090  16.039 -0.1370  0.0001 -0.3063
 6962W        W27242  13.530  13.946  16.425  0.1314  0.1032 -0.1529
 6963W        W27243  14.721   8.209  12.751  0.0384  0.0142  0.0233
 6964W        W27244  17.816  14.449  15.015 -0.0395  0.0402  0.1328
 6965W        W27245  11.347  13.216   4.868  0.1288  0.1548 -0.1361
 6966W        W27246  13.231  10.899   3.284  0.1567  0.0172 -0.0738
 6967W        W27247   9.342   2.303   3.639 -0.1738 -0.1165 -0.3656
 6968W        W27248   8.572  12.729  15.994 -0.1105 -0.0371  0.0099
 6969W        W27249   7.899   2.496   0.043 -0.0167  0.1222  0.2133
 6970W        W27250   1.609   7.138   2.501  0.1026 -0.0738  0.1432
 6971W        W27251  13.693   4.358  15.303  0.0562 -0.1882 -0.1296
 6972W        W27252   3.713   5.092   3.619  0.4117 -0.0754  0.1017
 6973W        W27253  10.941  13.763   2.943  0.0853 -0.0892 -0.3055
 6974W        W27254  17.886   6.030  12.144 -0.1587  0.2167 -0.1764
 6975W        W27255   8.522  11.077   0.415 -0.1797  0.1027 -0.2758
 6976W        W27256   5.711   2.818   1.826 -0.1209  0.0797 -0.0820
 6977W        W27257  15.845   3.492   1.008 -0.2274  0.0770 -0.0255
 6978W        W27258   0.567  11.915  12.692  0.4228 -0.3782  0.0357
 6979W        W27259   3.382   9.311   4.561 -0.3803  0.1310 -0.0396
 6980W        W27260  13.779  16.436  16.166  0.2926  0.0258 -0.0661
 6981W        W27261  13.426  11.685  16.635 -0.1744 -0.4506 -0.0428
 6982W        W27262   1.506  11.809   5.208 -0.2766 -0.2125  0.0195
 6983W        W27263   9.643  14.157  13.742 -0.1283  0.0506  0.2213
 6984W        W27264   6.902  12.535   4.934  0.1973  0.0591  0.1466
 6985W        W27265   4.498  11.499   1.545  0.0263  0.0390  0.1922
 6986W        W27266  16.734  16.158   4.782  0.0232  0.1635  0.0118
 6987W        W27267   9.509   8.725   3.476  0.0124  0.3487  0.2583
 6988W        W27268  14.967  12.210   0.506 -0.0176  0.4798  0.0093
 6989W        W27269   5.664   8.131  11.995  0.0673 -0.2261  0.7029
 6990W        W27270  14.933   5.472   3.907 -0.2718  0.0616 -0.1080
 6991W        W27271  11.004   8.097  14.496 -0.1185 -0.1537 -0.5235
 6992W        W27272   1.551  12.990  16.016 -0.4920  0.2566 -0.0421
 6993W        W27273   7.121  15.578  15.138  0.1247 -0.4411 -0.1486
 6994W        W27274  15.084  17.019  12.078  0.0801  0.3467 -0.0574
 6995W        W27275  13.000  13.216   3.818  0.2171  0.0290  0.1827
 6996W        W27276   2.874  12.666  13.501  0.3603  0.1387  0.1033
 6997W        W27277  12.703   3.946  16.448  0.1051  0.0009 -0.1489
 6998W        W27278  14.550   9.938  14.182 -0.2743  0.1877  0.3421
 6999W        W27279   0.141  15.295  15.288  0.1317  0.2984 -0.0039
 7000W        W27280   5.421  14.510   0.626  0.1107  0.0199  0.0480
 7001W        W27281   7.176   5.831  14.095  0.1260  0.1315  0.1679
 7002W        W27282  10.421   7.384  15.343  0.1405  0.3728 -0.0865
 7003W        W27283  12.825  17.523  15.680  0.0241  0.1268  0.1699
 7004W        W27284  14.297   1.725  12.904 -0.0274 -0.1993 -0.2025
 7005W        W27285   2.404   8.173   2.745  0.0735 -0.1921 -0.1376
 7006W        W27286   1.479   0.930   4.097 -0.0977  0.0300 -0.5565
 7007W        W27287   9.491  15.230  12.610  0.0351  0.0675 -0.1157
 7008W        W27288   3.116  14.189   2.499 -0.0126  0.0457  0.0172
 7009W        W27289  14.629   8.082  13.671 -0.0256  0.0856 -0.0662
 7010W        W27290   8.807   4.135   4.867 -0.1014 -0.0991  0.2384
 7011W        W27291  13.590  13.398  15.696  0.2177  0.0043  0.1381
 7012W        W27292   4.547   0.280   1.858  0.0849  0.0409 -0.0431
 7013W        W27293  17.029  10.717   4.393  0.0312  0.0187 -0.1752
 7014W        W27294   7.268   0.603   0.558  0.0298  0.1739 -0.2314
 7015W        W27295   9.481   9.335  12.397  0.0450 -0.2031 -0.0500
 7016W        W27296  11.660  10.561   4.897  0.0254 -0.1030 -0.1877
 7017W        W27297  14.397  12.592  16.104  0.0019  0.2603  0.2456
 7018W        W27298  15.783  16.417  16.043 -0.2910  0.1137 -0.0784
 7019W        W27299   5.847   0.820  16.169 -0.1629  0.1592  0.4127
 7020W        W27300  14.638  13.122  12.210  0.0587  0.1423 -0.2442
 7021W        W27301   8.939  16.153  14.032 -0.1037 -0.3298  0.0219
 7022W        W27302  12.123   3.865  14.394 -0.2863 -0.2002  0.0978
 7023W        W27303  11.103   8.659  16.573 -0.0660  0.1084 -0.1733
 7024W        W27304  10.228   8.326  15.696 -0.1906 -0.0616 -0.2351
 7025W        W27305   2.118   8.010   1.783 -0.2297  0.3280 -0.0825
 7026W        W27306   2.543   7.065  15.683 -0.1994 -0.1026  0.0868
 7027W        W27307   9.055  15.031  16.246 -0.1891  0.2092 -0.0042
 7028W        W27308  14.187   4.775   1.877  0.1847  0.1339  0.0447
 7029W        W27309   9.568   0.964  13.180 -0.0788 -0.0594  0.2455
 7030W        W27310  15.240  11.419   5.761  0.1045  0.0319 -0.1354
 7031W        W27311  11.373  17.873  12.646 -0.2096  0.0846  0.1477
 7032W        W27312   9.629  16.606  11.909 -0.2144 -0.1368  0.0093
 7033W        W27313   9.137   3.860  15.506 -0.5714 -0.0443 -0.1348
 7034W        W27314  15.323  16.779   0.123 -0.3392 -0.2582 -0.3298
 7035W        W27315   0.267  15.070  14.477 -0.1391 -0.0356 -0.1287
 7036W        W27316   2.256  10.635  12.234  0.2090  0.2497  0.0862
 7037W        W27317   6.397  16.479   2.259 -0.1699  0.2058  0.0735
 7038W        W27318   2.463   1.569  12.689  0.0303 -0.0986 -0.0559
 7039W        W27319   0.199  17.418  15.377 -0.1983 -0.0104 -0.0496
 7040W        W27320   7.540   2.384  14.941 -0.1938 -0.1817 -0.1023
 7041W        W27321   0.881   7.051   2.210  0.4540  0.4145 -0.0834
 7042W        W27322  13.858  12.564   3.322 -0.0528 -0.0454  0.3270
 7043W        W27323   4.842  14.937  12.723 -0.1198  0.2236  0.1522
 7044W        W27324  13.011   0.965  11.857 -0.0143  0.0772 -0.0642
 7045W        W27325   3.689   5.498   1.963  0.2100 -0.0254  0.0439
 7046W        W27326   8.638  17.686  15.109  0.3584 -0.2993  0.0192
 7047W        W27327   7.076  11.030  14.607  0.0483  0.0458  0.1079
 7048W        W27328   5.317  16.251  12.301 -0.1001 -0.3771  0.3578
 7049W        W27329  13.426   5.804  16.239 -0.1316 -0.1770 -0.0731
 7050W        W27330   1.157   0.799   2.185  0.3739 -0.0969  0.1323
 7051W        W27331   8.318   5.445   4.669 -0.0156 -0.3226  0.3929
 7052W        W27332  16.351   9.416  14.090  0.3449 -0.1859  0.2010
 7053W        W27333   1.246   2.214   2.017  0.1063  0.4668  0.0612
 7054W        W27334   3.368   9.109   5.013 -0.0460  0.0259  0.0087
 7055W        W27335   9.070  14.139  12.377 -0.0131  0.3423 -0.3007
 7056W        W27336   5.160  12.398  15.014  0.3196 -0.3317 -0.0722
 7057W        W27337  12.846  12.821   4.936  0.1573  0.1745  0.4420
 7058W        W27338   4.078   3.883  16.297  0.3118 -0.1228  0.4194
 7059W        W27339  17.114   3.367  14.618 -0.0877 -0.1542 -0.1127
 7060W        W27340   0.729  14.985   0.353  0.0222  0.2113  0.1864
 7061W        W27341  16.079  14.610   5.903 -0.1644  0.0764  0.1380
 7062W        W27342  12.159   9.022   4.619  0.0396  0.0492 -0.0438
 7063W        W27343  14.314   8.071  15.001  0.2338  0.1710 -0.0382
 7064W        W27344   6.166   6.562  16.179  0.2192 -0.4747 -0.0562
 7065W        W27345  15.309   3.336   5.072 -0.1463 -0.0639  0.1141
 7066W        W27346   5.132  10.829  14.291 -0.0598 -0.0485  0.1914
 7067W        W27347   1.740  17.578  15.646  0.2193  0.0318  0.1366
 7068W        W27348   8.455   7.100   3.934  0.1855  0.1232 -0.0283
 7069W        W27349   3.303  10.245  15.916  0.1319  0.1418 -0.4767
 7070W        W27350  13.025   2.988   0.265  0.0139 -0.0444 -0.0630
 7071W        W27351   2.547  11.730  15.011 -0.0597  0.0526 -0.0555
 7072W        W27352  17.799  13.027   3.765 -0.0091  0.3713  0.0366
 7073W        W27353  13.659   2.453   4.093 -0.0183  0.0435  0.2218
 7074W        W27354   1.774  16.886   3.013  0.2178 -0.1788  0.0541
 7075W        W27355  14.630   7.020   1.213 -0.1943 -0.0430 -0.1225
 7076W        W27356  15.729  15.483  12.403 -0.1125 -0.3044  0.0881
 7077W        W27357   6.731  15.666  14.294  0.1329 -0.1457  0.2167
 7078W        W27358  13.402   0.469   0.976  0.0920  0.0585  0.1703
 7079W        W27359  12.047  11.207  14.895 -0.0145 -0.0648  0.2227
 7080W        W27360  14.990   0.159   3.609  0.0768  0.0817  0.0783
 7081W        W27361   9.937   3.814   3.058  0.1191  0.2807  0.1154
 7082W        W27362   5.619  11.391   3.328  0.0569  0.1132  0.0141
 7083W        W27363  17.402  16.377  13.597 -0.0338 -0.0044  0.0256
 7084W        W27364  15.020   8.689   3.699  0.2207 -0.0439  0.1668
 7085W        W27365   3.079  16.573   2.176 -0.2023 -0.2603  0.0356
 7086W        W27366  15.474   2.841  13.310  0.1919  0.3464  0.1509
 7087W        W27367  11.577   9.528  12.079 -0.4335 -0.1138 -0.0669
 7088W        W27368   3.834  16.282  12.121 -0.0415  0.0669 -0.1232
 7089W        W27369   8.899   3.061  14.421 -0.0601 -0.0886  0.0485
 7090W        W27370  14.989  13.997  13.814  0.1353  0.1314 -0.0682
 7091W        W27371   4.187  16.660   5.058  0.0474 -0.0953 -0.1202
 7092W        W27372  13.967  14.236   2.707  0.3184  0.2384  0.1696
 7093W        W27373   9.065   2.809   4.595  0.0956 -0.0373 -0.1203
 7094W        W27374   6.814   8.020   1.546 -0.2225 -0.1171 -0.0162
 7095W        W27375   0.159  17.509  13.432  0.3165  0.1069 -0.0474
 7096W        W27376  16.818   9.554   2.588 -0.2059  0.0197  0.2931
 7097W        W27377  15.670   4.195  15.664 -0.3000 -0.1238 -0.2459
 7098W        W27378   6.507  14.646  15.362 -0.1653  0.2196  0.3254
 7099W        W27379   7.608   9.241  14.664 -0.1073  0.1383  0.0332
 7100W        W27380   0.487   5.001  13.098 -0.3382 -0.1829  0.2872
 7101W        W27381  16.704   3.604   3.115  0.0212  0.0973 -0.2767
 7102W        W27382   0.756   1.833  16.590  0.1208  0.2712  0.0140
 7103W        W27383   3.387   0.563  15.920  0.1132  0.1097  0.1700
 7104W        W27384  14.888   8.760  16.218  0.1397 -0.4106  0.2691
 7105W        W27385  12.271  10.633   0.005  0.3449  0.0708  0.2530
 7106W        W27386   9.926   0.196   1.622  0.1536 -0.2334 -0.1343
 7107W        W27387  14.108  12.433   3.760  0.1071  0.0084 -0.0041
 7108W        W27388   2.014  17.675   3.693  0.2420 -0.3501  0.1374
 7109W        W27389   6.448   0.211  11.973 -0.1053  0.1560 -0.0320
 7110W        W27390  14.586  17.450   0.684 -0.0561 -0.1001  0.0660
 7111W        W27391  16.493   0.613   1.130 -0.4005  0.1596 -0.2158
 7112W        W27392  15.351   6.176   3.168  0.1080  0.0076  0.2310
 7113W        W27393   3.941   9.474   1.509  0.1271 -0.1145  0.0535
 7114W        W27394   0.905  15.573  12.536 -0.2362 -0.0887 -0.1079
 7115W        W27395   2.621  12.475  12.463  0.0590 -0.1713  0.1657
 7116W        W27396  10.935  10.450   4.570  0.1931 -0.0149 -0.2871
 7117W        W27397   5.031  12.660   3.927  0.4209  0.1363  0.0628
 7118W        W27398   8.819  10.558  13.828 -0.2915  0.1740  0.2274
 7119W        W27399   0.365  12.156   0.126 -0.0733  0.1810 -0.1566
 7120W        W27400  13.499   0.429  12.715 -0.2064 -0.1222  0.1414
 7121W        W27401   7.474   6.175  13.796  0.2462 -0.3433  0.2597
 7122W        W27402  10.872  12.628  15.751 -0.0700  0.0177  0.2406
 7123W        W27403  10.520  13.223  14.965  0.0852 -0.2199 -0.1763
 7124W        W27404  10.678   1.785   0.595  0.2256  0.0958 -0.0382
 7125W        W27405   5.817  17.549  13.438 -0.2946  0.1403 -0.0570
 7126W        W27406   2.741  13.778   2.683  0.1823  0.0179 -0.1361
 7127W        W27407  13.775  10.064   4.237  0.0492 -0.1739  0.1432
 7128W        W27408   5.820  12.019  16.653 -0.0632  0.0986 -0.1820
 7129W        W27409  16.200   9.085   4.304 -0.0946  0.0606 -0.3918
 7130W        W27410   7.304   9.194  15.961 -0.2907 -0.0740 -0.1460
 7131W        W27411   7.574  17.371  12.444  0.1367  0.0862 -0.1047
 7132W        W27412   5.635  17.409   1.563 -0.2918  0.1458 -0.1420
 7133W        W27413   9.649   0.346  11.791 -0.1138  0.2758 -0.2110
 7134W        W27414  14.661  17.247   3.455  0.0616 -0.0013  0.1276
 7135W        W27415   0.075  15.067   2.392 -0.1394 -0.0974  0.2482
 7136W        W27416   8.215  16.095   0.461 -0.2340  0.1140  0.1336
 7137W        W27417  12.436   0.413   3.745  0.1493  0.0566  0.2218
 7138W        W27418  12.943  13.078   3.272 -0.1960 -0.0758  0.0727
 7139W        W27419   4.686  11.630   2.832 -0.2575 -0.1628 -0.0158
 7140W        W27420  10.362  10.455  14.615 -0.0911  0.0101 -0.1540
 7141W        W27421   4.449  11.609  13.280 -0.0414  0.0525  0.2153
 7142W        W27422  14.390   0.814   4.033  0.1484  0.2150  0.2198
 7143W        W27423   1.014  16.364   0.766 -0.0235 -0.0523 -0.0014
 7144W        W27424   6.955   9.540   0.809 -0.2374 -0.1772 -0.0092
 7145W        W27425   2.778   6.135   3.567  0.0274 -0.0596  0.0647
 7146W        W27426   7.764   9.447   3.657  0.3000 -0.1472  0.1022
 7147W        W27427   5.423  12.651   5.052  0.0304 -0.1405  0.0909
 7148W        W27428  10.590  10.907   3.656  0.1106  0.2106 -0.2019
 7149W        W27429   7.521   4.712  15.656  0.1951 -0.1472  0.2625
 7150W        W27430   2.188   1.672  14.604  0.1632  0.0004 -0.1835
 7151W        W27431  13.130  11.433  15.792  0.1648  0.0296 -0.0476
 7152W        W27432  14.456   6.512   2.006 -0.0831 -0.2914 -0.1809
 7153W        W27433   4.670  11.214   2.430 -0.1421  0.0602 -0.3318
 7154W        W27434  11.338   7.731   1.900 -0.0023  0.0654  0.2779
 7155W        W27435   6.159   7.814  12.963  0.0015 -0.1901 -0.1690
 7156W        W27436   9.722   9.802  14.269 -0.0749 -0.0094 -0.0739
 7157W        W27437  14.311  12.430   1.463  0.0812  0.0817 -0.0315
 7158W        W27438  16.308   8.159   1.847 -0.2811 -0.0554  0.1436
 7159W        W27439  14.618  13.861  15.415 -0.1275  0.1708 -0.1597
 7160W        W27440   7.308  16.440  13.541 -0.2306  0.1035 -0.0149
 7161W        W27441  15.502  14.315   0.671 -0.3787 -0.1779 -0.4258
 7162W        W27442   2.639   6.767   1.346  0.1661 -0.4094 -0.2294
 7163W        W27443   9.891  15.527  13.950  0.2733 -0.1556  0.1234
 7164W        W27444   8.063  15.050  12.194 -0.1439 -0.2897  0.0312
 7165W        W27445   8.069   0.909   0.050 -0.2511 -0.2420  0.3443
 7166W        W27446   1.989  16.917   1.898  0.0137 -0.0640 -0.0645
 7167W        W27447  15.872   4.615   4.590 -0.0965 -0.0213 -0.2565
 7168W        W27448  15.727   3.776  13.698  0.0911  0.3630 -0.1921
 7169W        W27449   2.845  14.882  12.669  0.1238 -0.0111 -0.1549
 7170W        W27450   6.152   6.013   3.815  0.0482 -0.2107 -0.1659
 7171W        W27451   0.325   7.279   4.210 -0.2597 -0.1618  0.0304
 7172W        W27452   8.568   0.192   3.052 -0.1079 -0.1978 -0.0284
 7173W        W27453   0.626   3.039   3.284  0.3977 -0.3473  0.0010
 7174W        W27454  10.037  17.030   4.094  0.3976 -0.1066 -0.3611
 7175W        W27455  12.996  17.223   1.249  0.0832  0.1654 -0.1580
 7176W        W27456  16.308   2.581   2.844 -0.1739  0.4648 -0.1106
 7177W        W27457  17.895  17.758  13.007  0.1612 -0.0282 -0.3247
 7178W        W27458  11.674  11.105  11.577 -0.1301 -0.0293  0.0395
 7179W        W27459  12.643  13.457   2.371  0.2141 -0.2412  0.0738
 7180W        W27460   5.769   6.848   0.601 -0.0280 -0.0104  0.0764
 7181W        W27461   6.045  14.478   2.646 -0.1384 -0.4194 -0.0607
 7182W        W27462   2.249   6.288   2.282  0.3676  0.2140 -0.0858
 7183W        W27463  17.338  17.119  13.016 -0.0681  0.2117  0.5409
 7184W        W27464  11.159  14.213  13.583  0.1402  0.3088 -0.1041
 7185W        W27465   5.647   8.680  16.622  0.0306  0.1873  0.4473
 7186W        W27466   7.631   3.267  11.662  0.5141  0.2201 -0.0087
 7187W        W27467  15.344  15.421  14.727 -0.1013  0.2767 -0.3002
 7188W        W27468  11.430   7.655   1.073 -0.1570  0.3852  0.0215
 7189W        W27469   3.804   5.101   4.498  0.3296  0.3575  0.1816
 7190W        W27470  11.895  13.418  16.377  0.1735 -0.1793 -0.0631
 7191W        W27471  14.312   0.787  13.301  0.2658  0.1717  0.0184
 7192W        W27472  14.287   4.269  15.145  0.1265 -0.0319 -0.1522
 7193W        W27473   2.037   1.974   1.228  0.3739 -0.0305 -0.0037
 7194W        W27474   2.089  14.013  12.691 -0.1857  0.2245 -0.0296
 7195W        W27475   3.559   2.002   2.161  0.2542  0.0267 -0.0748
 7196W        W27476  15.908   2.015   1.055 -0.1938  0.1301  0.2234
 7197W        W27477   6.218   1.742  10.832 -0.0204 -0.3201  0.2344
 7198W        W27478   7.127   5.187  11.661  0.1204 -0.1744 -0.1467
 7199W        W27479   6.573   8.685   4.563  0.2469  0.0789 -0.2695
 7200W        W27480   8.617   5.210  15.575 -0.0998 -0.0337  0.0656
 7201W        W27481   9.560  14.235   1.093 -0.1435 -0.0686 -0.0796
 7202W        W27482   8.076   3.429   3.835 -0.1838  0.0002  0.2361
 7203W        W27483  12.086  10.379  12.358  0.0843  0.1967 -0.0151
 7204W        W27484   9.804   9.488   0.447 -0.0440 -0.3153 -0.1395
 7205W        W27485   8.740  14.816  14.864  0.0684  0.1031 -0.0194
 7206W        W27486  14.401   5.979  14.245  0.2002 -0.1159  0.0986
 7207W        W27487   5.280  14.634   3.300  0.1570  0.1027  0.0465
 7208W        W27488  12.859  11.615  12.237 -0.0452  0.0900 -0.0518
 7209W        W27489  15.609   9.362  16.562  0.3669 -0.0983 -0.0898
 7210W        W27490   3.093  13.893  15.907 -0.0914 -0.0516 -0.0316
 7211W        W27491   5.713   3.235  13.904  0.0292  0.0812  0.1553
 7212W        W27492   1.179   8.384   2.925  0.3680  0.1579 -0.3559
 7213W        W27493  13.085  12.185   3.511  0.1621 -0.1828 -0.1915
 7214W        W27494  16.331  14.645   3.691 -0.4344  0.2009 -0.0133
 7215W        W27495  17.644   8.477   0.977 -0.1625  0.4147 -0.0027
 7216W        W27496   0.998  10.926   1.757 -0.1338  0.0456 -0.1103
 7217W        W27497  10.473   4.286   4.717 -0.0506  0.1819 -0.1666
 7218W        W27498  14.760  14.203   1.474  0.1236  0.1614  0.4401
 7219W        W27499  10.985  17.546  12.858  0.1329 -0.0497 -0.1132
 7220W        W27500  13.980   6.775   4.155 -0.0284  0.1276 -0.0047
 7221W        W27501  10.433  11.326   1.954 -0.0170 -0.2889 -0.2356
 7222W        W27502  12.568  10.061   2.936  0.0895  0.2980  0.3280
 7223W        W27503   9.031  15.520   0.335  0.3509  0.1645  0.1648
 7224W        W27504  16.728  10.487   2.152 -0.1573  0.0264  0.0413
 7225W        W27505  12.021   8.602   3.797  0.0625  0.0339  0.0261
 7226W        W27506  11.046   9.724   3.200  0.1182  0.1667  0.0145
 7227W        W27507  15.170  12.366  16.354  0.1894 -0.2970  0.0379
 7228W        W27508  16.004   5.908   5.068 -0.1171 -0.2055 -0.4154
 7229W        W27509  14.856   1.266   4.053 -0.0366  0.1080  0.0897
 7230W        W27510  10.149   0.975  11.738 -0.0537 -0.0625 -0.2614
 7231W        W27511  12.635  13.350   1.064  0.0261  0.1837  0.3021
 7232W        W27512   4.297   9.143   4.977  0.0192 -0.2509  0.0859
 7233W        W27513   4.830  14.870  14.385  0.0370 -0.1346  0.2513
 7234W        W27514   8.969   0.948   3.982  0.0460 -0.1949  0.1885
 7235W        W27515   8.302   6.435   1.980 -0.2353 -0.0736  0.3220
 7236W        W27516   7.510  13.694  16.679 -0.2425  0.0368 -0.5337
 7237W        W27517  11.105  15.568  13.928 -0.0801 -0.0869  0.0119
 7238W        W27518   3.515   9.894   5.044 -0.0514  0.1688 -0.1680
 7239W        W27519  10.275   9.573   4.357  0.1892 -0.3451 -0.2663
 7240W        W27520  14.054   8.245  16.419 -0.0015 -0.1856 -0.1038
 7241W        W27521   0.420  16.053  14.387 -0.0659  0.1937  0.0003
 7242W        W27522   5.759   7.069   2.395  0.0938  0.0326  0.2424
 7243W        W27523   2.536   5.547   0.667 -0.1483  0.0656  0.1787
 7244W        W27524   4.587   1.174   4.567  0.0133 -0.0603 -0.0991
 7245W        W27525  13.272  12.788   3.520  0.0948 -0.1545  0.0562
 7246W        W27526  15.553  15.346  16.441  0.2473 -0.0821  0.0518
 7247W        W27527   3.668  14.655  15.192 -0.1431  0.0031  0.2125
 7248W        W27528  17.307   6.209   3.679  0.0301  0.0506 -0.1384
 7249W        W27529   9.573   7.139  15.833 -0.2804  0.2511  0.0816
 7250W        W27530  12.569  12.346  13.268 -0.1265  0.0516  0.1581
 7251W        W27531  11.424   6.771  11.951 -0.1860  0.2489 -0.1279
 7252W        W27532  15.222   7.854   2.612 -0.1951 -0.2049 -0.0072
 7253W        W27533  11.056  16.631  12.964  0.0472 -0.2502  0.0404
 7254W        W27534  17.985  10.795  12.274  0.2543  0.1173 -0.2287
 7255W        W27535   0.973   3.429   0.740 -0.1827 -0.1031 -0.0643
 7256W        W27536   0.965   7.498   1.712  0.0348  0.1160  0.0368
 7257W        W27537   6.192  17.521   3.121  0.0890  0.0122  0.0351
 7258W        W27538  11.284   0.171  11.963 -0.2784  0.1792  0.1164
 7259W        W27539   3.334  17.645  11.891  0.2126 -0.0396 -0.1470
 7260W        W27540   4.546  14.127   1.232 -0.0269  0.2602 -0.2630
 7261W        W27541   4.855  15.953  13.819 -0.1404  0.0633  0.1948
 7262W        W27542  12.032  12.785   2.156  0.0122 -0.1214  0.2273
 7263W        W27543   5.836  11.793   4.540 -0.0469  0.2772  0.0077
 7264W        W27544   4.941  11.817  16.223 -0.3919 -0.0859 -0.0324
 7265W        W27545   1.597   5.230   1.915  0.2619  0.0780  0.0803
 7266W        W27546  16.679  13.022   0.052 -0.0711  0.0650 -0.0066
 7267W        W27547  10.472   0.651  11.448  0.0566  0.0719  0.1400
 7268W        W27548   8.607   4.571  12.924  0.2848  0.3285 -0.1045
 7269W        W27549   3.445   7.904  16.067  0.1814 -0.1626  0.1744
 7270W        W27550   3.830   7.056  12.275  0.3692  0.1554 -0.0160
 7271W        W27551   7.245   2.935   0.311  0.5305  0.2832 -0.2325
 7272W        W27552  15.793   2.705   3.976  0.0680 -0.1377 -0.3182
 7273W        W27553  11.855  13.669   2.691 -0.0496  0.1357 -0.0459
 7274W        W27554   7.409   0.043   1.162  0.3373  0.0226 -0.1336
 7275W        W27555   4.135  12.276   3.144  0.0741 -0.1713  0.0590
 7276W        W27556   8.701   8.068  16.531  0.0158  0.0266  0.0952
 7277W        W27557   5.854  15.876  14.767  0.3636  0.0496 -0.1177
 7278W        W27558   7.618   5.525   1.421 -0.3214 -0.0333 -0.1102
 7279W        W27559   9.999   2.047   2.539 -0.0096 -0.2039  0.0147
 7280W        W27560  17.565   2.339  14.760 -0.3352  0.0938 -0.1496
 7281W        W27561   2.981   8.075  13.306 -0.0831 -0.2741  0.4283
 7282W        W27562   5.939  15.411  16.046  0.0422 -0.0934 -0.1065
 7283W        W27563   3.375  12.712   4.656 -0.0276  0.1244  0.0465
 7284W        W27564  10.527  14.057   0.379  0.1838  0.1639  0.1550
 7285W        W27565  12.658  16.499   4.553 -0.1083  0.1896  0.0305
 7286W        W27566  13.689   6.745  13.928 -0.1102  0.1012  0.3654
 7287W        W27567  14.157  11.223  14.959  0.0780  0.2770  0.1538
 7288W        W27568   1.033   3.053   0.405 -0.0999 -0.2351 -0.0856
 7289W        W27569  14.497  13.568  15.796 -0.1125 -0.1764  0.2557
 7290W        W27570   6.689   2.437   3.039 -0.0845 -0.1738 -0.0826
 7291W        W27571   9.384   6.177   2.450 -0.1180 -0.2755 -0.0178
 7292W        W27572  13.673   6.374  14.295 -0.0803 -0.0003 -0.0001
 7293W        W27573   0.517  15.241   2.422 -0.2099 -0.3807  0.2092
 7294W        W27574   0.111  17.356   0.207  0.0265 -0.1466 -0.2338
 7295W        W27575   3.568  13.451  14.065 -0.0767 -0.1268 -0.1345
 7296W        W27576   8.627  10.780   2.131  0.0834 -0.0973  0.0626
 7297W        W27577  15.325   0.836   0.453 -0.3920  0.2192 -0.2133
 7298W        W27578   8.159  14.365   0.315 -0.1424 -0.2865  0.1513
 7299W        W27579  14.294  15.918   3.136  0.0731  0.2081  0.2812
 7300W        W27580  17.371   3.989   1.714  0.0626  0.0011  0.1554
 7301W        W27581  10.541   1.841  11.530  0.0030 -0.0881 -0.0312
 7302W        W27582  13.391   3.057   0.592  0.2181  0.2964 -0.0204
 7303W        W27583  15.140   2.075  14.952  0.0147  0.0196  0.0472
 7304W        W27584   0.059  17.620   2.836  0.0809 -0.2375  0.1634
 7305W        W27585   4.088  15.065   2.172  0.2133  0.1870  0.1815
 7306W        W27586  16.085  12.468   4.070  0.4405 -0.1558 -0.0812
 7307W        W27587  14.694   3.290  11.912 -0.0140  0.1916 -0.0509
 7308W        W27588  11.390   1.462  13.523  0.3383  0.0767 -0.0564
 7309W        W27589   6.408   3.267  13.132 -0.1311 -0.2596 -0.2383
 7310W        W27590   4.505   2.367  13.354 -0.3569  0.0209 -0.0755
 7311W        W27591  16.136   7.330  15.970 -0.1645  0.2664  0.2170
 7312W        W27592   8.489   5.990  10.887 -0.1206 -0.1426 -0.1494
 7313W        W27593   4.825   2.174  13.710 -0.1075  0.0603  0.2356
 7314W        W27594  15.533   2.427   1.767 -0.1330  0.2124 -0.1842
 7315W        W27595  14.640   2.941   3.492  0.1317  0.1863 -0.0395
 7316W        W27596   7.418   5.079   3.188  0.1769 -0.0163 -0.2000
 7317W        W27597   0.789  11.231   2.126 -0.0335  0.2595 -0.2102
 7318W        W27598  12.925   1.873  15.817  0.1079 -0.0740  0.2171
 7319W        W27599   2.867  16.331   0.265  0.3223 -0.0417 -0.0301
 7320W        W27600   4.845   4.646   1.903  0.2678 -0.0685  0.3209
 7321W        W27601   6.231   3.508   1.910  0.0971 -0.2368 -0.0675
 7322W        W27602  16.322   6.724  16.167  0.1284  0.1103  0.2796
 7323W        W27603  13.668  14.046  12.224  0.0298  0.0316 -0.2194
 7324W        W27604   7.468  17.208  16.661 -0.0056  0.2401  0.0576
 7325W        W27605  16.021   8.265   2.800 -0.0053 -0.3528 -0.0799
 7326W        W27606   6.296   3.788   1.419 -0.0708 -0.0875  0.1778
 7327W        W27607   0.000  10.500  15.899 -0.2309 -0.4461  0.1294
 7328W        W27608  12.212   3.389   1.706 -0.1368  0.0568  0.0316
 7329W        W27609   6.765  10.323   1.531  0.1222 -0.0458  0.3006
 7330W        W27610   0.952   7.904   2.633 -0.2289  0.0067  0.1879
 7331W        W27611  16.161  10.408   1.324 -0.0577  0.0590 -0.2264
 7332W        W27612   2.054   9.718   1.203 -0.0709  0.0287  0.1825
 7333W        W27613  15.753   5.293  11.879  0.1624 -0.3468 -0.0230
 7334W        W27614   6.302   7.469   0.216 -0.0707  0.1443 -0.0584
 7335W        W27615  16.952   5.597  14.911  0.2694 -0.3060 -0.0919
 7336W        W27616  12.708   1.127  16.651  0.3640 -0.0999 -0.2201
 7337W        W27617  13.651  13.945  15.409  0.1733 -0.0811  0.1983
 7338W        W27618   2.273  12.675  12.092  0.0406  0.1706 -0.1539
 7339W        W27619   8.014   3.098   3.408 -0.1023  0.0989 -0.1163
 7340W        W27620   0.131   4.476   2.230 -0.2471  0.0185 -0.0488
 7341W        W27621   4.260  17.711  15.147  0.3663  0.2261  0.3292
 7342W        W27622  17.556   0.092   2.319 -0.0287  0.2801  0.1383
 7343W        W27623  16.628   9.425   4.043 -0.2517  0.0437 -0.0532
 7344W        W27624  13.851   2.202   0.921  0.3079 -0.1497 -0.2130
 7345W        W27625   5.599   2.010   0.102 -0.0705  0.0887 -0.0711
 7346W        W27626  13.252  13.470   3.096  0.0685  0.0673  0.1695
 7347W        W27627   9.181   0.010  13.050 -0.5244 -0.2152 -0.0895
 7348W        W27628   6.586   6.185   0.484  0.2840  0.0867  0.2292
 7349W        W27629   7.835  16.163   0.816 -0.1044  0.0600 -0.0296
 7350W        W27630   3.205   4.214  13.239 -0.1834  0.0791 -0.2189
 7351W        W27631   4.123   3.202  14.818  0.1807  0.2766 -0.1700
 7352W        W27632  13.508  14.308  16.056 -0.2724 -0.2255 -0.0146
 7353W        W27633   1.163   7.537  13.454  0.3237 -0.2347 -0.4635
 7354W        W27634  17.905   4.241  14.539  0.0137 -0.0213 -0.2478
 7355W        W27635  14.793  13.036   3.784  0.0486  0.1286 -0.0648
 7356W        W27636  13.009  15.925  16.419  0.0608 -0.2413 -0.0430
 7357W        W27637  10.858  17.435   1.070 -0.0649  0.1062 -0.0718
 7358W        W27638   3.929   1.969   2.442 -0.1233  0.0085  0.2053
 7359W        W27639  13.952  17.609   0.938  0.1412 -0.2259 -0.1971
 7360W        W27640  11.786   6.743  11.580  0.1374  0.1421 -0.0739
 7361W        W27641  14.855   5.030  15.386  0.0211  0.0148 -0.2742
 7362W        W27642   2.973   9.988   3.071 -0.0967 -0.0596 -0.2381
 7363W        W27643   3.238  14.817   4.703  0.1824 -0.1844  0.1987
 7364W        W27644   8.504  13.934  15.214 -0.3690 -0.0925  0.0193
 7365W        W27645  15.177  14.354   3.001  0.1605  0.2342  0.1861
 7366W        W27646  13.509  12.903   1.419  0.2296 -0.2417 -0.2366
 7367W        W27647  11.868  17.132   3.360 -0.0776  0.0617  0.0067
 7368W        W27648  16.195  17.756  13.374  0.1616 -0.2165  0.1245
 7369W        W27649   7.345  11.457  16.005 -0.1537 -0.1044 -0.2297
 7370W        W27650  10.137   2.417  10.208 -0.0700  0.3213 -0.1570
 7371W        W27651  14.239   7.194   2.557 -0.0064  0.0648  0.1282
 7372W        W27652  11.205   8.234   5.555 -0.0154 -0.2280 -0.0291
 7373W        W27653   8.621  12.517  15.552  0.1081 -0.2113  0.1792
 7374W        W27654  10.210  11.180   2.830  0.1103  0.1923 -0.0540
 7375W        W27655  17.353  14.571  15.202 -0.2552  0.1939  0.0627
 7376W        W27656  11.537  15.673  13.169  0.4378  0.0885 -0.0479
 7377W        W27657  14.320   2.326   0.632 -0.2552  0.2372 -0.0796
 7378W        W27658   9.011   8.135  12.591 -0.0269  0.1658  0.1377
 7379W        W27659   6.457  17.409   0.741 -0.0917 -0.0274 -0.2050
 7380W        W27660  10.589  15.731   0.477  0.2375  0.0939 -0.3295
 7381W        W27661   3.163   4.054   3.827  0.0633 -0.2923  0.0191
 7382W        W27662   1.366   5.890   1.024  0.0985  0.0941  0.0664
 7383W        W27663  17.235   3.627   3.896  0.0089  0.2722 -0.2146
 7384W        W27664  12.202   5.015   2.736  0.2404 -0.0968 -0.3256
 7385W        W27665   5.287  13.043  15.645  0.4600  0.2542  0.0005
 7386W        W27666  17.171   9.020   0.501  0.0821 -0.0030  0.1280
 7387W        W27667   6.127   3.252   0.121 -0.2865 -0.2660 -0.1108
 7388W        W27668   5.936  12.519   1.157 -0.1366 -0.0943 -0.0765
 7389W        W27669   7.732   7.467   1.188  0.0051  0.0404  0.0194
 7390W        W27670   6.432   7.109   1.570 -0.3288 -0.0263  0.2963
 7391W        W27671  16.973  16.194   3.678 -0.0288  0.0230  0.0116
 7392W        W27672  11.937  15.543   0.694  0.0402  0.0237 -0.1807
 7393W        W27673   4.926   0.244  12.472 -0.0569  0.0102  0.3354
 7394W        W27674   4.926   8.378   4.951  0.1209  0.0021  0.0113
 7395W        W27675  11.796  15.543   1.941  0.3436 -0.3077 -0.1742
 7396W        W27676   3.003  17.005  13.140 -0.2305  0.1508  0.0325
 7397W        W27677   7.651   4.473  12.809 -0.1224 -0.2044 -0.2291
 7398W        W27678   6.628  13.557   2.731 -0.4433 -0.0354  0.1347
 7399W        W27679   2.402  10.768  14.205  0.0604  0.3060  0.2705
 7400W        W27680  11.400  13.477  16.579 -0.0935  0.0493 -0.0542
 7401W        W27681   6.311  15.560  13.670 -0.2205  0.2537 -0.2057
 7402W        W27682  15.950   4.825   2.294  0.0024  0.0048 -0.3181
 7403W        W27683  10.830  16.163  15.894  0.2086 -0.0151  0.0549
 7404W        W27684   8.258  15.009   1.539 -0.0132 -0.1689 -0.0856
 7405W        W27685   5.341  15.121   1.339  0.1147  0.0604  0.0375
 7406W        W27686  10.347   1.742  16.442  0.1329 -0.0377  0.2883
 7407W        W27687  14.616  15.315   2.828 -0.2547  0.1876  0.1034
 7408W        W27688  14.885   1.321  13.442 -0.0777 -0.1433  0.1798
 7409W        W27689   4.638   6.719  12.763 -0.2382 -0.1688  0.0824
 7410W        W27690   2.121  10.666   0.763 -0.0327  0.0518  0.1757
 7411W        W27691  14.308  11.136   2.041 -0.1403  0.3561 -0.2391
 7412W        W27692  17.555  12.428   3.272  0.1572 -0.2031  0.1031
 7413W        W27693  17.933   7.562  16.617  0.2166  0.1756 -0.1072
 7414W        W27694   9.076  13.587  12.178  0.0907 -0.1306 -0.0677
 7415W        W27695  13.114   0.660   2.721 -0.1685  0.0264  0.0687
 7416W        W27696   7.377   8.462   3.530 -0.3042 -0.2732  0.0339
 7417W        W27697   8.555   5.360   0.173  0.3588 -0.1715  0.0783
 7418W        W27698   3.540  17.028  16.184  0.3802  0.2377 -0.3718
 7419W        W27699   6.465   1.319  14.188 -0.1625 -0.3679  0.1863
 7420W        W27700   1.257  10.160   3.800 -0.0483 -0.0401 -0.0034
 7421W        W27701  11.613   2.867   1.435 -0.0924 -0.0867 -0.0892
 7422W        W27702   2.194   3.619  13.132  0.3443  0.1419 -0.1687
 7423W        W27703   5.802   4.967  16.395 -0.2751 -0.0956  0.0666
 7424W        W27704   2.080   6.859  12.055  0.0874 -0.0941 -0.2019
 7425W        W27705   5.727  16.158  15.341  0.1219 -0.0263 -0.1091
 7426W        W27706   6.903  14.177  15.544  0.2573 -0.0436  0.1535
 7427W        W27707   3.489   2.286   0.414 -0.1382 -0.0154  0.0877
 7428W        W27708   4.322  15.734   4.217 -0.1858  0.0934  0.0305
 7429W        W27709  11.248  12.790  13.192 -0.2000  0.2338  0.0540
 7430W        W27710  12.985  11.734  14.939 -0.1175  0.1515 -0.4126
 7431W        W27711   7.680   3.147   4.226 -0.0022  0.1397  0.1111
 7432W        W27712   9.015  13.020   0.709 -0.1714  0.0135 -0.0967
 7433W        W27713   3.468  11.067   1.136  0.1352  0.1714 -0.0740
 7434W        W27714  16.781  12.339   1.866  0.1618  0.0669  0.0848
 7435W        W27715  10.323  14.581   2.225 -0.0909  0.1421 -0.1015
 7436W        W27716  10.554   4.533   0.137 -0.2274 -0.1808 -0.1149
 7437W        W27717  13.654   6.943  13.100 -0.0974 -0.3709 -0.2212
 7438W        W27718  11.354  12.115   4.725  0.3398  0.0095  0.1699
 7439W        W27719  13.983   7.432   4.197  0.0071 -0.1667 -0.0051
 7440W        W27720  11.747   0.920   2.243  0.2107 -0.1953  0.3521
 7441W        W27721   6.814   7.654   4.069 -0.1258  0.1597  0.0443
 7442W        W27722  17.072   8.863  14.553 -0.0287 -0.2929 -0.1159
 7443W        W27723  10.732   3.143   0.282 -0.3480  0.1759 -0.0892
 7444W        W27724  10.329   3.114   3.346 -0.1554  0.0197 -0.0897
 7445W        W27725   5.422  14.593   1.307  0.0804  0.1768 -0.1281
 7446W        W27726  13.465  16.375  13.548  0.1019 -0.1019 -0.1395
 7447W        W27727  15.901   4.602  12.987  0.3102  0.2485 -0.0794
 7448W        W27728   4.355   8.076   1.925 -0.1998 -0.0646 -0.1557
 7449W        W27729   3.189  14.310   4.423  0.2634  0.0774  0.0945
 7450W        W27730   9.788   5.734   2.893 -0.0950 -0.1805 -0.3551
 7451W        W27731  11.447  12.654  15.763 -0.0065  0.1384  0.0973
 7452W        W27732  17.142   8.941   4.443 -0.2344 -0.1781 -0.0008
 7453W        W27733   3.836   6.021   1.830  0.2399 -0.0730 -0.1166
 7454W        W27734  15.719  14.740   1.834  0.0934 -0.0357  0.0025
 7455W        W27735   9.145   7.851   3.856 -0.0403  0.4012 -0.0496
 7456W        W27736  13.793  10.445  14.501  0.3594  0.0327 -0.0904
 7457W        W27737  12.648   5.086   1.978  0.0654 -0.0774  0.2618
 7458W        W27738   0.533  14.530   1.632  0.1195 -0.1615  0.2361
 7459W        W27739   8.094  13.234   1.194 -0.2445 -0.3874 -0.0421
 7460W        W27740  10.598   5.654   0.148  0.1949 -0.5038 -0.2904
 7461W        W27741   2.802  10.705   2.345  0.1264  0.2787 -0.1385
 7462W        W27742  12.021   2.732  11.768 -0.2448  0.3773 -0.1939
 7463W        W27743   0.372  15.411   0.481  0.1600  0.1340 -0.0428
 7464W        W27744  16.621   5.495  14.317  0.0910  0.0700 -0.1935
 7465W        W27745  13.956  13.524   1.315 -0.0524 -0.2365  0.5694
 7466W        W27746   9.275   8.186  15.039 -0.0753  0.0517  0.0375
 7467W        W27747  10.159   7.185  14.753 -0.2838 -0.0489  0.3377
 7468W        W27748   7.868   6.312  12.098  0.1228 -0.0376  0.0922
 7469W        W27749   0.687   6.920   4.278  0.3551  0.0339 -0.2395
 7470W        W27750   4.205   0.135   3.921 -0.0077  0.0374  0.2297
 7471W        W27751  14.327  12.743  14.882 -0.2364  0.0503 -0.2034
 7472W        W27752   6.069   3.383  14.841 -0.0920  0.0075  0.2394
 7473W        W27753  11.683   4.116   0.874 -0.1679 -0.1884 -0.1743
 7474W        W27754   3.698  12.519  12.637 -0.3503 -0.3464  0.2631
 7475W        W27755   0.767   9.555   3.340  0.1249  0.2475  0.2792
 7476W        W27756   0.807   9.806  16.635 -0.1413  0.2651 -0.0350
 7477W        W27757  14.472   2.298   0.077 -0.0316  0.2849 -0.0718
 7478W        W27758  12.004  16.665  13.560  0.1337  0.0550  0.3063
 7479W        W27759   1.972   2.629  16.592 -0.0253  0.0186  0.1014
 7480W        W27760  11.327  10.560  16.556  0.1142 -0.1207 -0.2173
 7481W        W27761  17.544  12.949  14.558  0.3629  0.0039 -0.1786
 7482W        W27762  15.452  11.781  14.973  0.2907  0.0309  0.0101
 7483W        W27763  14.378   7.665   3.962  0.3057 -0.0228  0.2781
 7484W        W27764  12.381   0.783  13.312  0.1268 -0.2020 -0.2754
 7485W        W27765   8.797  13.008   4.048  0.0899 -0.0575 -0.2810
 7486W        W27766  15.584   1.841   0.387  0.1505  0.1730  0.1929
 7487W        W27767   7.522  12.370   0.152 -0.3313  0.3531  0.0157
 7488W        W27768  10.724   1.621  12.182 -0.0876 -0.2153 -0.1808
 7489W        W27769  10.979   3.495  14.089 -0.0491  0.0201  0.1657
 7490W        W27770  15.970  12.337   0.347  0.1424 -0.0121  0.5678
 7491W        W27771   6.519   8.837   3.676  0.1485 -0.2254 -0.1801
 7492W        W27772   0.608   9.500   4.080  0.0692  0.2247 -0.2933
 7493W        W27773  16.261  10.709  12.099  0.1048 -0.0011 -0.1518
 7494W        W27774  13.742   3.287  15.615  0.2968 -0.0202 -0.0853
 7495W        W27775   5.713  12.721  14.399  0.1197 -0.0456  0.0996
 7496W        W27776   5.457  14.153   0.980  0.1597 -0.0609 -0.0844
 7497W        W27777   3.310  11.139   2.943 -0.0351 -0.3030 -0.0632
 7498W        W27778  14.012  16.137  12.090  0.1911 -0.0450 -0.1490
 7499W        W27779  14.092   2.944   1.451 -0.0143 -0.0686  0.0840
 7500W        W27780  11.058   6.336   3.043 -0.0889 -0.3255  0.3566
 7501W        W27781   6.660   5.280  12.438 -0.0637  0.0572 -0.0724
 7502W        W27782   6.513  12.932   4.933  0.2443  0.2068  0.2007
 7503W        W27783  15.418  12.687  16.598 -0.0745 -0.2601 -0.2294
 7504W        W27784   6.467  14.663   4.505  0.0964 -0.3792  0.0459
 7505W        W27785  15.955   0.747  15.809  0.1098 -0.1469  0.0411
 7506W        W27786  10.135   8.194   2.124 -0.2075  0.2111 -0.0236
 7507W        W27787  16.602   6.436   2.930 -0.1119 -0.0126 -0.1089
 7508W        W27788   8.689   0.856  13.378  0.0845 -0.0544  0.3350
 7509W        W27789  10.493   4.987  12.383  0.1467 -0.1256  0.4443
 7510W        W27790  17.766   5.895   3.980 -0.1204  0.0064  0.0287
 7511W        W27791  13.704   0.795  12.450 -0.1300  0.1180  0.1496
 7512W        W27792   2.152   2.887  14.310  0.0955 -0.1465 -0.1350
 7513W        W27793   9.063   4.374   3.352  0.0780  0.3073 -0.4229
 7514W        W27794   6.778   2.748  14.859  0.0892 -0.1410 -0.0053
 7515W        W27795  16.007   2.706   1.861 -0.1105  0.1952 -0.1484
 7516W        W27796  17.480   7.002   2.577  0.1548 -0.0274  0.0489
 7517W        W27797   0.836   7.386  13.039 -0.2348 -0.2572  0.1217
 7518W        W27798   0.390  11.460  15.627  0.0436  0.3014  0.2403
 7519W        W27799  13.402   2.953  11.673 -0.0230 -0.3570  0.0187
 7520W        W27800   6.933  17.271   1.984 -0.0010  0.2660  0.0127
 7521W        W27801  11.144  12.765   4.021  0.0110  0.0497 -0.2059
 7522W        W27802   1.215   0.519  16.349 -0.0689  0.2355  0.0771
 7523W        W27803   0.334   7.262  15.920 -0.1467 -0.3233 -0.0523
 7524W        W27804   2.262   2.686  12.829  0.0269 -0.0542 -0.4087
 7525W        W27805  14.206   2.505  15.650  0.0789  0.0437  0.0696
 7526W        W27806  11.962   5.311   3.530  0.2528  0.0694  0.2414
 7527W        W27807  12.592  17.067  12.751  0.1177  0.1938  0.5320
 7528W        W27808  11.180   8.779  12.773 -0.0456 -0.3512 -0.1085
 7529W        W27809  13.325  17.805   3.789  0.1649  0.1790 -0.0294
 7530W        W27810  16.593   4.968   1.686  0.0292 -0.3131 -0.0848
 7531W        W27811   1.689   2.866  13.700  0.1452  0.4090 -0.3384
 7532W        W27812  10.529  11.830   0.910 -0.0007  0.2557 -0.3330
 7533W        W27813   3.761  15.294  12.455 -0.0693  0.0317 -0.1499
 7534W        W27814  17.381  15.968  13.331  0.0578  0.1588 -0.0364
 7535W        W27815   3.972  17.665   2.508 -0.0931  0.1081  0.1127
 7536W        W27816   1.111  14.792  14.885 -0.1371  0.2228  0.0377
 7537W        W27817  12.717  12.368   2.213 -0.2201 -0.5260 -0.0733
 7538W        W27818  16.081   8.854  12.483  0.1099  0.2011  0.1826
 7539W        W27819  14.735  16.332   0.378 -0.0741  0.2130  0.0563
 7540W        W27820   9.833  12.509   3.696 -0.1156 -0.0018  0.0601
 7541W        W27821   3.779  14.649   2.822 -0.1615 -0.0623 -0.1307
 7542W        W27822   6.309   4.313   0.199 -0.1437  0.1594  0.0593
 7543W        W27823   8.498   6.730   0.288 -0.1428  0.0965  0.1521
 7544W        W27824   7.835  17.908  13.089 -0.0605  0.0116  0.1393
 7545W        W27825   7.607   5.011   1.330 -0.1764 -0.2634  0.2119
 7546W        W27826  11.391  14.993  14.762 -0.1541  0.1733 -0.2084
 7547W        W27827   1.227   1.387   4.423  0.1657  0.1121 -0.5423
 7548W        W27828   3.436  12.944   0.219  0.0986 -0.0644  0.0154
 7549W        W27829  10.489  10.328  12.277 -0.3604  0.0745 -0.1040
 7550W        W27830   0.848   7.369   4.087  0.1597 -0.2647 -0.2295
 7551W        W27831   5.948  13.015  16.406 -0.3779 -0.2753 -0.1897
 7552W        W27832  16.156  16.865  13.108  0.0702  0.1167 -0.1774
 7553W        W27833   3.238   6.991   0.632  0.1360 -0.1387  0.1289
 7554W        W27834  13.279   3.959   1.118 -0.0038 -0.5537 -0.1787
 7555W        W27835   9.327  13.749  13.661 -0.1287  0.2006 -0.1961
 7556W        W27836   6.180  14.799   3.122  0.0356  0.1548  0.4085
 7557W        W27837   2.722  11.735   1.128  0.3206  0.0572 -0.2330
 7558W        W27838  17.245   3.574  14.192  0.0269 -0.0642 -0.4099
 7559W        W27839  13.529   4.951   0.989  0.0461  0.0530 -0.1518
 7560W        W27840  15.315  14.922   1.515  0.0044  0.3128 -0.1947
 7561W        W27841   8.010   0.065   4.579 -0.2052 -0.0332  0.2915
 7562W        W27842  12.956   1.546   1.629  0.0302 -0.0651  0.1366
 7563W        W27843   2.016  12.304  15.827  0.0191 -0.2175 -0.3045
 7564W        W27844  11.921   0.065   4.626  0.3291  0.1637  0.0886
 7565W        W27845   7.423   7.592  16.214 -0.2209  0.0502  0.1338
 7566W        W27846  15.926   2.134  12.786 -0.0602  0.1336  0.0852
 7567W        W27847   6.520   1.889   3.799  0.1292 -0.1791  0.0911
 7568W        W27848  11.194  15.846  14.383 -0.0411  0.2111  0.1191
 7569W        W27849  14.938  13.551  12.434  0.1167  0.2822  0.0337
 7570W        W27850   5.946  12.725   4.467  0.0831  0.2826 -0.1226
 7571W        W27851   4.602   2.347  14.790  0.0305  0.1956 -0.0905
 7572W        W27852  12.546  12.419  13.788  0.3679 -0.0609  0.0580
 7573W        W27853   9.688   0.827  14.614 -0.0961  0.3739 -0.0132
 7574W        W27854   2.986   9.519   3.190 -0.2026  0.1249 -0.0046
 7575W        W27855  10.052  15.777  14.452  0.3339 -0.0617 -0.1714
 7576W        W27856   3.649   2.254  14.514 -0.1269  0.2027 -0.5812
 7577W        W27857  13.046  10.893   2.738 -0.4335 -0.0441  0.0936
 7578W        W27858  12.459  10.706   3.598  0.2330 -0.1989  0.0694
 7579W        W27859   4.195   2.583   1.230  0.0080 -0.2141 -0.2097
 7580W        W27860   3.935   9.154   0.542  0.0683  0.1276  0.1950
 7581W        W27861   2.706  14.650  16.335 -0.0017 -0.2462  0.0163
 7582W        W27862  10.887  13.185   4.101 -0.1058 -0.1701 -0.0257
 7583W        W27863   1.302  12.008  15.541 -0.0209 -0.0267 -0.0666
 7584W        W27864   2.914   7.052   5.175 -0.0609  0.1855  0.1560
 7585W        W27865   3.222  10.448   4.894  0.3316 -0.3466  0.2561
 7586W        W27866   4.954   3.271  15.715 -0.2133  0.0618 -0.1084
 7587W        W27867   5.851   9.127   1.456  0.2112 -0.2725  0.1401
 7588W        W27868   7.620  15.330  15.889  0.1157 -0.0112 -0.0880
 7589W        W27869   1.021   2.544   3.523 -0.0196  0.0535 -0.1642
 7590W        W27870   7.054   6.053  15.462 -0.2841 -0.3980  0.2015
 7591W        W27871   9.075   4.012   0.647  0.0360 -0.1385  0.1966
 7592W        W27872  14.796  12.743   4.825  0.3808  0.0447 -0.0551
 7593W        W27873   0.016  15.236   0.889  0.4566 -0.0279  0.1727
 7594W        W27874   2.723  16.021  14.944 -0.0346 -0.2395 -0.4227
 7595W        W27875  13.175   4.939  16.387  0.2784  0.0057  0.0916
 7596W        W27876   7.788  11.712   3.090 -0.1387  0.2220  0.2054
 7597W        W27877   9.228   5.336  13.037  0.1291  0.0280 -0.0518
 7598W        W27878  17.237  17.729  15.581 -0.3076  0.0688  0.1373
 7599W        W27879  14.720   4.237  13.949  0.0314  0.0840 -0.1475
 7600W        W27880   5.800  16.765   3.804 -0.1303  0.3947  0.4149
 7601W        W27881   7.435   8.762   2.571 -0.1541  0.1576 -0.2624
 7602W        W27882  16.923   1.020   3.326  0.1016 -0.0685 -0.0921
 7603W        W27883   0.549  17.111  13.670 -0.3534  0.1856 -0.0280
 7604W        W27884  17.948  16.595   4.213  0.0003  0.0663 -0.0463
 7605W        W27885  14.584   5.590   0.552  0.4499  0.0473 -0.1336
 7606W        W27886  12.773   1.585  14.976 -0.2080  0.1084 -0.0967
 7607W        W27887  12.190  12.776  12.016  0.0929 -0.3593  0.0556
 7608W        W27888   5.448   0.313   0.833  0.0457  0.1858 -0.0405
 7609W        W27889  17.634   3.889  12.621  0.2728 -0.0947  0.4945
 7610W        W27890   7.528   1.843   3.061 -0.1272 -0.2601  0.3789
 7611W        W27891  12.225  15.719  16.257 -0.1385 -0.4708  0.0603
 7612W        W27892  13.464  17.326  15.899  0.0104  0.0203 -0.1429
 7613W        W27893  14.088   0.290  13.432  0.1942  0.0878 -0.0632
 7614W        W27894   1.313   4.997   1.577 -0.0394 -0.0061  0.0516
 7615W        W27895   7.781  17.700  15.535  0.1047 -0.0506 -0.1706
 7616W        W27896  15.964  12.391  15.251 -0.1919 -0.2842  0.1385
 7617W        W27897   1.710  17.988   2.298  0.2376  0.1017  0.0950
 7618W        W27898   5.824  11.760   1.303  0.0421  0.1027 -0.2048
 7619W        W27899   5.617   9.290   0.956 -0.3580  0.0199 -0.2556
 7620W        W27900  16.405   6.139  15.445 -0.1625  0.1715  0.0899
 7621W        W27901  12.458  16.708  13.791 -0.0280 -0.1326  0.0323
 7622W        W27902  16.001   2.100  13.299  0.2032 -0.0041  0.1862
 7623W        W27903   5.446   2.810   4.034 -0.0706 -0.1474 -0.2193
 7624W        W27904  11.419   2.221  12.866  0.0727 -0.0560  0.0540
 7625W        W27905   7.122  14.001  14.090 -0.0766  0.0063 -0.2171
 7626W        W27906   9.465  17.228  15.063 -0.0133  0.2060  0.0937
 7627W        W27907  13.936  17.752  14.350 -0.2166  0.0433 -0.0707
 7628W        W27908   6.462   3.889  16.536 -0.1535 -0.0654  0.2122
 7629W        W27909  14.472   3.422  13.193 -0.0266 -0.1319  0.0513
 7630W        W27910  14.247  13.590  13.608  0.4490 -0.1078 -0.1817
 7631W        W27911  11.641  15.316  12.847 -0.0673 -0.0652  0.0785
 7632W        W27912  12.988   8.739  15.518  0.0834 -0.2471 -0.0053
 7633W        W27913   9.783   4.886  16.334 -0.0365  0.0620  0.0366
 7634W        W27914  12.004   1.815  16.267  0.0065 -0.0093 -0.2955
 7635W        W27915   0.827  17.314  16.340 -0.2273  0.2386  0.2674
 7636W        W27916   1.682   5.877   1.432 -0.1700  0.1254  0.4707
 7637W        W27917  14.301  12.043  12.791 -0.1715 -0.0315 -0.1871
 7638W        W27918   9.485   2.692  15.120  0.0967  0.0609  0.2058
 7639W        W27919   2.724  10.395   0.542  0.1598  0.0382 -0.0567
 7640W        W27920   1.787   6.561  15.132 -0.4885 -0.0297  0.0724
 7641W        W27921   7.571   1.187   2.796  0.0451  0.1346  0.1032
 7642W        W27922   1.485  14.242  15.551 -0.0297 -0.4592  0.0556
 7643W        W27923   4.251  11.373   2.680 -0.0888  0.1209  0.0820
 7644W        W27924  17.404   5.335  13.808  0.3052  0.1459  0.1035
 7645W        W27925  13.584   8.678   3.317  0.1977 -0.2106 -0.1616
 7646W        W27926   4.398  17.130   2.551  0.0340 -0.1456  0.2405
 7647W        W27927   6.838   4.941  14.039 -0.1388  0.1215  0.1069
 7648W        W27928   4.228  16.728   0.985  0.1023 -0.2007  0.1070
 7649W        W27929  15.940   7.084  14.638 -0.0158 -0.0815  0.1133
 7650W        W27930  12.223   2.854   2.628 -0.3003  0.1126  0.0085
 7651W        W27931  16.516   4.353  15.096 -0.1783  0.1183 -0.0983
 7652W        W27932  17.405   5.008  12.932 -0.2103  0.2131 -0.3098
 7653W        W27933   4.146  14.701  13.488 -0.0264  0.3241 -0.1669
 7654W        W27934   2.779   8.826   1.137  0.0373 -0.0865  0.1598
 7655W        W27935   1.698   0.682  14.185 -0.2580  0.1872 -0.0132
 7656W        W27936   4.350   7.885   1.424  0.1346 -0.1303 -0.1031
 7657W        W27937  10.761  17.867  15.378 -0.0088 -0.0627  0.2101
 7658W        W27938  10.052   0.333   4.161 -0.1420  0.0707  0.1330
 7659W        W27939   8.328  16.314   4.555  0.0448 -0.0567 -0.0824
 7660W        W27940  15.992   3.315   3.861  0.3270 -0.1169 -0.2452
 7661W        W27941   6.092  12.406   3.463  0.0318  0.0517  0.2906
 7662W        W27942  13.216   1.789  14.731 -0.1945 -0.3824 -0.1251
 7663W        W27943  10.432   4.003   4.270 -0.2715 -0.1217 -0.1875
 7664W        W27944   6.622   3.052   0.208  0.2020  0.1842  0.0527
 7665W        W27945   9.572  12.345  14.047 -0.1499 -0.1532  0.1694
 7666W        W27946  17.571   5.627   3.279  0.2414 -0.0175 -0.1053
 7667W        W27947   3.949  14.267   3.299  0.2352 -0.1959  0.1146
 7668W        W27948   4.053  16.320   2.197 -0.1708  0.1162  0.0182
 7669W        W27949   9.258   5.836  12.733  0.1682 -0.2316  0.1902
 7670W        W27950   3.010   4.595   0.568 -0.0092 -0.0493 -0.1915
 7671W        W27951   8.467  11.068  15.839 -0.2662  0.1248 -0.1538
 7672W        W27952   4.781  11.149  14.091 -0.2474 -0.3978 -0.0604
 7673W        W27953  16.253  15.459   4.176  0.3891 -0.0132 -0.1356
 7674W        W27954  13.856  12.142   2.907 -0.0061 -0.0571  0.0543
 7675W        W27955  17.410  10.971   2.601 -0.0279  0.1241 -0.0031
 7676W        W27956  10.694   1.165  12.816 -0.1201  0.0017  0.1983
 7677W        W27957   9.004  10.118  16.041 -0.0580 -0.0850 -0.0952
 7678W        W27958  11.327   5.686  15.683  0.0018 -0.0217 -0.0091
 7679W        W27959  12.727  14.638   0.020  0.2009  0.3101  0.0478
 7680W        W27960   6.456   7.151  14.426 -0.0807  0.3781  0.1013
 7681W        W27961   2.056   1.261  16.486  0.3892  0.0060  0.1343
 7682W        W27962  14.589  12.923   1.712 -0.1753  0.0313 -0.1157
 7683W        W27963   7.258   9.179  16.450  0.0666 -0.0143  0.1970
 7684W        W27964   1.718   8.563   3.285  0.1123  0.1349  0.2640
 7685W        W27965  15.847   4.148   1.130 -0.0635  0.0665  0.1939
 7686W        W27966  16.313   3.263   2.220  0.1257  0.0529  0.0299
 7687W        W27967   4.619  10.502   6.421 -0.0208  0.2126 -0.0790
 7688W        W27968   6.303   9.694  15.895  0.0904 -0.0457 -0.0101
 7689W        W27969  16.698   9.595   2.123  0.1967  0.2301 -0.1411
 7690W        W27970   9.581   4.826   1.822  0.1621 -0.2027 -0.1511
 7691W        W27971   9.617  10.086  13.472 -0.2794  0.1077 -0.1940
 7692W        W27972   1.990  16.212   0.737 -0.3723 -0.3786  0.4130
 7693W        W27973   3.136   9.561   4.949 -0.0520  0.2323 -0.0368
 7694W        W27974   5.903  14.165  12.785  0.1358 -0.0777  0.0495
 7695W        W27975   3.349  13.233   0.631 -0.1567 -0.0592 -0.1382
 7696W        W27976  12.135   1.480   4.474 -0.1966 -0.1887 -0.1370
 7697W        W27977   5.377   8.283   1.843 -0.2254 -0.0527  0.0390
 7698W        W27978   7.884   3.352   1.212 -0.0311 -0.2205  0.0141
 7699W        W27979  11.479   1.882   1.865 -0.3361 -0.2804 -0.1380
 7700W        W27980   7.620   6.619   4.723 -0.1345  0.0920 -0.0927
 7701W        W27981  10.653   0.055  12.702  0.1450 -0.0263 -0.0204
 7702W        W27982   1.474  10.711  15.784 -0.0629 -0.0671  0.1275
 7703W        W27983   9.977   4.198  13.362  0.0243 -0.0236 -0.1475
 7704W        W27984   1.708   9.158  13.978 -0.0583 -0.0299  0.1722
 7705W        W27985  10.609  16.832  13.152  0.0340  0.3156  0.4002
 7706W        W27986  14.961   3.101   0.661 -0.0625  0.2166  0.1608
 7707W        W27987   3.115   8.632   4.110  0.1061  0.2435 -0.1387
 7708W        W27988  11.754  10.675   0.066  0.2489 -0.0931 -0.2473
 7709W        W27989  14.994   7.886  13.392  0.0597 -0.0998  0.1040
 7710W        W27990  15.459   0.005   3.514 -0.0817 -0.0487  0.1657
 7711W        W27991   0.317   3.000  12.621 -0.1411 -0.0838  0.0147
 7712W        W27992  10.071   7.302  12.996  0.1844  0.1752  0.1286
 7713W        W27993  17.649   7.167   0.826 -0.2028 -0.0866 -0.0005
 7714W        W27994   6.585   8.496  14.756 -0.1564  0.0797 -0.1726
 7715W        W27995   4.529   4.693  14.877 -0.0861  0.0919 -0.0518
 7716W        W27996   3.442   9.765   3.312  0.2813  0.0589 -0.2207
 7717W        W27997   5.410  10.091   5.091  0.2966  0.1739 -0.1145
 7718W        W27998   4.705   2.575   0.728  0.1232  0.1663 -0.0380
 7719W        W27999   9.083  17.949  15.191 -0.3711 -0.1359 -0.0946
 7720W        W28000   3.331  12.433   2.667 -0.1703 -0.3668 -0.0784
 7721W        W28001   8.395   3.621   0.115  0.1696  0.3590  0.1298
 7722W        W28002   1.051   3.054   2.134 -0.0618 -0.0306 -0.1554
 7723W        W28003  17.256   4.154  13.537  0.4164  0.0988  0.0364
 7724W        W28004   1.626  11.178   3.822  0.1697 -0.2028  0.0772
 7725W        W28005  15.277  14.844   3.908  0.2629 -0.2172 -0.1297
 7726W        W28006   4.803  10.892   3.458 -0.1795 -0.2047 -0.0233
 7727W        W28007  12.119  17.355   2.921 -0.3014  0.2135 -0.2845
 7728W        W28008   2.303   0.566   2.691 -0.0933  0.0217 -0.0017
 7729W        W28009  10.336   4.842  14.901 -0.0904 -0.0616 -0.3785
 7730W        W28010   8.778   9.156   3.983  0.1322 -0.0550  0.0599
 7731W        W28011  11.410  15.473  14.556 -0.1990 -0.2968 -0.0215
 7732W        W28012  11.897  17.430   0.502 -0.2116 -0.1505 -0.0417
 7733W        W28013  15.278   3.395  12.698 -0.0706  0.1678 -0.3641
 7734W        W28014   3.842   1.995   0.116 -0.0831  0.2484  0.0008
 7735W        W28015   9.660   1.521   0.361 -0.3730  0.0319  0.4175
 7736W        W28016   2.534  14.466   1.832 -0.0817 -0.0837 -0.0443
 7737W        W28017  14.394  15.113   3.953 -0.1907 -0.2598  0.1639
 7738W        W28018   1.020   9.295  14.422 -0.1161  0.2409 -0.1672
 7739W        W28019  14.651   3.256  14.369 -0.1579  0.0205  0.1436
 7740W        W28020   6.599  11.334   6.077 -0.0109 -0.0125 -0.1424
 7741W        W28021  13.882  12.997  15.731 -0.0871 -0.0817 -0.0426
 7742W        W28022  17.725  15.994   2.153 -0.2062  0.2285 -0.0783
 7743W        W28023   8.200  15.967  13.525  0.0516 -0.2551 -0.2293
 7744W        W28024  11.019   4.421   1.203 -0.3928  0.2175 -0.3322
 7745W        W28025   7.217  16.546   2.904 -0.0587  0.0096  0.1637
 7746W        W28026  13.722  14.016   1.368  0.2485  0.2517  0.0571
 7747W        W28027   6.510  17.484   1.754 -0.2517  0.0914 -0.1042
 7748W        W28028   0.921   7.597   1.010 -0.0084 -0.1853 -0.0524
 7749W        W28029   4.610   6.094  14.886  0.1400  0.0869 -0.2748
 7750W        W28030  15.245   2.926  12.813  0.2289  0.1474  0.0108
 7751W        W28031   9.973  16.460   4.256  0.0432 -0.0544  0.0734
 7752W        W28032  15.030   3.152  15.207  0.2679  0.3324  0.2572
 7753W        W28033  17.702  11.422   4.357  0.2277  0.1041  0.0621
 7754W        W28034   7.650   4.053  14.286 -0.3069  0.0787 -0.1638
 7755W        W28035  11.178  12.379  16.563  0.0535 -0.0374 -0.2204
 7756W        W28036  14.971  14.708   4.280 -0.0906  0.3163 -0.0205
 7757W        W28037   8.814  14.825   3.196 -0.4388  0.0625  0.0201
 7758W        W28038   7.623  10.526   2.763  0.3232 -0.1931 -0.1735
 7759W        W28039   9.930  16.321   2.825  0.0016 -0.0584 -0.0542
 7760W        W28040   3.024  12.293   2.170  0.3779  0.3310 -0.3357
 7761W        W28041   3.910   5.688   2.362  0.1178 -0.1694 -0.0482
 7762W        W28042   8.029  12.020  13.997  0.1986 -0.1746 -0.0319
 7763W        W28043  13.956   2.029   1.508  0.3997 -0.1085  0.2971
 7764W        W28044   5.071   1.037  16.644  0.0857 -0.0163 -0.1388
 7765W        W28045   5.551   6.021   2.013  0.4019 -0.1008  0.0926
 7766W        W28046   2.328  14.897   3.464 -0.0722 -0.0283 -0.2837
 7767W        W28047   1.615  12.513   1.660 -0.0436  0.0124 -0.1007
 7768W        W28048  13.667   7.236   2.193  0.2460 -0.0392 -0.0412
 7769W        W28049  13.286  13.814  15.743  0.0848 -0.4003 -0.1794
 7770W        W28050   6.945  14.828  11.824  0.4071 -0.1388 -0.2090
 7771W        W28051  10.952  15.711   1.780 -0.1131  0.3253  0.2388
 7772W        W28052   7.159   1.308  11.917  0.1338 -0.2831 -0.1522
 7773W        W28053   7.140   8.121   3.248  0.1091 -0.2587  0.1507
 7774W        W28054   7.588   9.776   3.991 -0.1338  0.0572  0.1796
 7775W        W28055   3.849  11.705   1.922  0.0831 -0.0121 -0.0980
 7776W        W28056   1.538  14.276   3.412 -0.0285  0.2476  0.2444
 7777W        W28057   8.607  17.134   1.155  0.2685 -0.1119  0.2654
 7778W        W28058  13.703  10.223   0.377 -0.3710 -0.1278  0.0969
 7779W        W28059   7.430   4.144  11.776 -0.0177  0.0714  0.0626
 7780W        W28060  15.804   6.416   3.216  0.2118 -0.1851  0.0697
 7781W        W28061   5.162   7.717   0.682 -0.0696  0.0410  0.0301
 7782W        W28062  13.176  12.312  12.513  0.1953 -0.1503  0.1003
 7783W        W28063   6.469  16.215   3.351 -0.1960  0.0659 -0.1938
 7784W        W28064  17.140   9.458   0.244 -0.0975  0.0312  0.0672
 7785W        W28065   1.342  16.028   0.039  0.0864  0.2861  0.1062
 7786W        W28066  11.089   5.025   3.349  0.1569  0.0337  0.2104
 7787W        W28067   4.798   6.023   2.606 -0.1551  0.2195  0.3640
 7788W        W28068  14.023  12.036  13.425 -0.0585  0.2160 -0.0490
 7789W        W28069   0.585  12.653   2.467 -0.0026 -0.1012  0.0740
 7790W        W28070  11.293   4.141  14.721  0.0982 -0.0223 -0.0611
 7791W        W28071  11.653   2.866   3.119  0.4341  0.3819 -0.0260
 7792W        W28072   0.063   8.970   0.468 -0.0204 -0.3227  0.2786
 7793W        W28073   9.950  15.257   3.673 -0.0319 -0.1034 -0.1278
 7794W        W28074  16.201  17.050   1.991  0.5347  0.0472  0.1389
 7795W        W28075  15.061   6.286  14.994  0.0614  0.1943 -0.2020
 7796W        W28076   1.714   2.598   0.538  0.5266 -0.0762  0.0631
 7797W        W28077   3.286   1.791  12.837  0.0159  0.1150  0.0326
 7798W        W28078  14.620   9.493   4.572 -0.1225 -0.0374 -0.2447
 7799W        W28079   1.341  13.269  11.889 -0.0957 -0.0089  0.0808
 7800W        W28080  12.265   8.908   0.627  0.0279  0.1607  0.0730
 7801W        W28081  11.820  14.136  14.633 -0.2649  0.0300  0.1167
 7802W        W28082   6.072  13.093   4.047  0.1537  0.0114  0.1434
 7803W        W28083   0.127  17.420   4.420  0.0267 -0.2634  0.0180
 7804W        W28084   6.915  15.671   0.309  0.0196 -0.0918 -0.1106
 7805W        W28085   5.200   7.960   4.646  0.0883  0.0565  0.0410
 7806W        W28086   2.485   6.858  14.849  0.0053  0.0685  0.0801
 7807W        W28087   2.103   3.835  14.074 -0.1010  0.2379  0.0152
 7808W        W28088  15.194  14.990  14.041  0.0821  0.4080 -0.3364
 7809W        W28089   9.061  14.843   2.305  0.5068 -0.0253 -0.4342
 7810W        W28090   0.461   8.113   0.472  0.1942  0.0083  0.2713
 7811W        W28091  16.241  14.371  12.693 -0.0610  0.0389  0.3095
 7812W        W28092  10.968   8.583  12.331 -0.2409  0.0885  0.0499
 7813W        W28093  12.782   9.303  15.401 -0.0933 -0.2346  0.4027
 7814W        W28094   1.413  13.853  12.842  0.3120 -0.3478 -0.3359
 7815W        W28095  10.496  12.400  16.074  0.1519  0.0058 -0.1482
 7816W        W28096  17.384  14.143  13.915 -0.2812  0.3618  0.2777
 7817W        W28097   0.087   8.231   2.604  0.0678  0.1806 -0.1112
 7818W        W28098   2.258  17.128   2.813 -0.0594 -0.1460 -0.1603
 7819W        W28099   3.235  11.154  14.672  0.2325  0.1080 -0.0489
 7820W        W28100   0.410  11.028  15.031 -0.1331 -0.1520 -0.1774
 7821W        W28101   3.807  10.844   3.625 -0.0214  0.2876  0.3197
 7822W        W28102  13.526  11.349   0.810 -0.2442  0.0530 -0.0034
 7823W        W28103   8.559   3.529  12.895 -0.2110  0.0462 -0.0216
 7824W        W28104  14.400  17.986  16.433 -0.0839  0.1422  0.1150
 7825W        W28105  10.441  15.269  15.642 -0.0065 -0.0543 -0.0285
 7826W        W28106  11.752   8.703   0.608  0.2235 -0.5553 -0.3881
 7827W        W28107   5.237  15.357  16.677 -0.0285 -0.2126  0.0550
 7828W        W28108   7.111  11.963   2.382  0.1812  0.1276 -0.1061
 7829W        W28109  15.599   7.727   4.107 -0.1281  0.1410 -0.0211
 7830W        W28110   9.311  14.609   3.296 -0.3014  0.0195 -0.1578
 7831W        W28111   5.573  11.975  12.622 -0.3105  0.0165  0.0347
 7832W        W28112  10.112   4.383   0.028 -0.1767 -0.0335  0.1285
 7833W        W28113   0.585   3.074  13.369  0.1266 -0.1023 -0.4969
 7834W        W28114  12.929   0.779  12.484  0.0966  0.0346 -0.2262
 7835W        W28115  13.724   5.152  12.765 -0.0372  0.0448 -0.1914
 7836W        W28116  11.849  13.501  13.086  0.1833 -0.1363  0.2539
 7837W        W28117  15.906  15.799  15.096  0.2586 -0.2257  0.0127
 7838W        W28118   5.414  13.203   2.045  0.2128 -0.1474 -0.0769
 7839W        W28119  10.482  16.015  12.973 -0.3441  0.2269  0.1098
 7840W        W28120  17.978   5.524  15.709 -0.0897  0.2906 -0.0538
 7841W        W28121  13.022   1.619  13.274 -0.1443 -0.0464 -0.3248
 7842W        W28122   2.341  15.926   1.731 -0.3295 -0.2586 -0.2660
 7843W        W28123   0.075  17.279   2.068 -0.1228  0.0232  0.1215
 7844W        W28124   1.477   7.698  13.767 -0.0079  0.1162 -0.0143
 7845W        W28125   0.324  10.898   2.790 -0.3325 -0.2560 -0.0426
 7846W        W28126   0.551   9.080   1.564  0.1577  0.1690  0.0432
 7847W        W28127   8.467  10.179  15.998 -0.1956  0.1653  0.0397
 7848W        W28128   5.210  12.399   2.441  0.0400 -0.0132  0.2217
 7849W        W28129   6.901  14.744   2.395  0.0852 -0.1455 -0.0033
 7850W        W28130   8.712  12.963  14.684  0.1361  0.0440 -0.0693
 7851W        W28131  14.139   2.782  12.304  0.0242 -0.2463 -0.0986
 7852W        W28132  15.357   9.009  16.258 -0.2020 -0.0339  0.1066
 7853W        W28133   9.598   4.529  12.771 -0.2328  0.4565 -0.0772
 7854W        W28134  13.060  11.433   4.494  0.3884  0.1706  0.1248
 7855W        W28135  17.358  12.707   6.003 -0.2515  0.0396 -0.1068
 7856W        W28136   5.750   4.773  14.892  0.1914  0.2388  0.0186
 7857W        W28137   0.896  16.096   2.389  0.0180  0.1157 -0.0440
 7858W        W28138   8.383   2.259   3.412 -0.0079  0.2165 -0.0318
 7859W        W28139  15.870   3.723  15.738 -0.0051 -0.2595  0.0303
 7860W        W28140   8.641   2.645  14.516 -0.1981  0.1151  0.2671
 7861W        W28141   4.557   0.575  12.559  0.1913  0.1458  0.2581
 7862W        W28142   8.851  17.019   1.812 -0.4146  0.0202  0.2723
 7863W        W28143   4.714  10.403   5.163 -0.0234 -0.1190 -0.2719
 7864W        W28144   1.711  11.441   1.677 -0.0318 -0.0576 -0.0483
 7865W        W28145  11.760   5.048   4.651  0.0822 -0.1072  0.1468
 7866W        W28146  12.351   5.806   2.671 -0.1690  0.2605  0.0434
 7867W        W28147   2.266   2.496   2.571 -0.2322  0.0263  0.0819
 7868W        W28148   5.989  10.979  12.509  0.1624 -0.0464  0.0212
 7869W        W28149  13.150   1.819   0.282 -0.0878 -0.1214  0.1569
 7870W        W28150  13.270   5.092  14.290 -0.0602 -0.0956  0.3448
 7871W        W28151   6.350   9.607  12.278  0.2686 -0.2115 -0.1548
 7872W        W28152   5.194  16.236  14.678 -0.0091  0.1073 -0.5518
 7873W        W28153   6.744  13.574  14.878  0.1405 -0.2290  0.0660
 7874W        W28154  15.739   0.431  11.945 -0.1593  0.0328 -0.0124
 7875W        W28155  15.842  15.362  14.829  0.2133 -0.1621 -0.0216
 7876W        W28156  12.504  14.581   3.924 -0.1191 -0.1249  0.0644
 7877W        W28157  10.965  11.214  15.113 -0.2434  0.1236 -0.0204
 7878W        W28158   9.416  10.053   1.207 -0.1010  0.1230 -0.1313
 7879W        W28159   4.744   8.702  13.873 -0.1012 -0.1149  0.1351
 7880W        W28160  10.396  14.733  11.783  0.0068  0.0449 -0.2490
 7881W        W28161  16.629  13.719   0.813  0.0999  0.3734  0.0124
 7882W        W28162   7.371   6.350   4.136 -0.2144 -0.3707  0.0303
 7883W        W28163   5.717   6.736  13.613 -0.0721 -0.0151 -0.2231
 7884W        W28164   4.645   9.208  14.774  0.1822  0.2545  0.2700
 7885W        W28165  10.561  15.900  16.235 -0.1225 -0.2071 -0.2301
 7886W        W28166  10.200   2.318   0.440 -0.4458 -0.1341 -0.1487
 7887W        W28167   9.103   8.084   0.111 -0.0819  0.2130 -0.2734
 7888W        W28168  14.302   3.590  14.526 -0.0100  0.0195 -0.0607
 7889W        W28169  11.272  10.176   3.003  0.1484 -0.0499  0.0458
 7890W        W28170  15.224  15.753  16.256  0.1876  0.1391  0.0425
 7891W        W28171   7.179  10.148   3.099 -0.1465 -0.3569 -0.3704
 7892W        W28172  12.664  10.154  12.107 -0.0651 -0.2072  0.0839
 7893W        W28173  10.673   3.380  15.361 -0.0494  0.3108  0.2598
 7894W        W28174   3.448   6.451   1.038 -0.1261 -0.0120 -0.1173
 7895W        W28175  13.962  17.900  15.248 -0.2166  0.0071 -0.0250
 7896W        W28176   1.408  16.765   0.089  0.1852  0.2714  0.1003
 7897W        W28177   8.247  16.840  15.588  0.1487  0.3230 -0.1353
 7898W        W28178   9.873   9.149   3.631 -0.1721 -0.1655 -0.2710
 7899W        W28179  15.902   0.821   0.243  0.0824  0.1128 -0.1395
 7900W        W28180  16.411  12.420  13.016 -0.0167 -0.0014 -0.0443
 7901W        W28181   3.121   9.601   3.736 -0.0516 -0.0252 -0.1807
 7902W        W28182   0.930   8.019   0.114 -0.1124  0.1592 -0.0012
 7903W        W28183   8.961   4.924  12.887  0.1797  0.1057 -0.1649
 7904W        W28184   9.586   6.210  13.692 -0.0074 -0.0146  0.0982
 7905W        W28185   4.026   5.443   1.579 -0.1194 -0.1797 -0.0989
 7906W        W28186   8.864  13.033   3.542  0.0311  0.0279  0.0085
 7907W        W28187  16.858  12.899   4.898 -0.0056 -0.1384 -0.0459
 7908W        W28188   2.816  17.098  13.593 -0.1205 -0.1379  0.2016
 7909W        W28189   0.333  17.030  16.233  0.0283  0.2838  0.2086
 7910W        W28190  17.743  14.930  15.389 -0.1009  0.0677  0.1067
 7911W        W28191   8.548   6.827   1.319 -0.1144  0.0135  0.1952
 7912W        W28192   3.757   0.755  14.342  0.1718  0.1053  0.0511
 7913W        W28193   5.230   4.859   0.931 -0.1875  0.0864  0.1435
 7914W        W28194   1.987  12.542   1.995 -0.0145  0.0086  0.1163
 7915W        W28195   0.626  16.450  14.746 -0.2132  0.1479 -0.3103
 7916W        W28196   5.662   8.103  16.342 -0.0438 -0.6374  0.3601
 7917W        W28197  15.041  10.293   0.810 -0.0613 -0.1802  0.1311
 7918W        W28198  10.336   1.452  13.048 -0.1688 -0.1053  0.4164
 7919W        W28199   6.213   4.772  16.680 -0.0934 -0.2037  0.0190
 7920W        W28200  16.072  10.591  13.682 -0.1664  0.0078 -0.1900
 7921W        W28201   1.780   4.649  16.603 -0.2884 -0.3353  0.2163
 7922W        W28202   0.318   4.236  14.266 -0.0900 -0.0222  0.1099
 7923W        W28203   1.491   7.994  13.322 -0.2173  0.2147  0.3220
 7924W        W28204  17.934   8.421   0.158  0.2096 -0.1421  0.0498
 7925W        W28205   5.696  13.512   1.729  0.3739 -0.1030 -0.4500
 7926W        W28206   1.335   4.302  14.486  0.0446  0.2265 -0.0836
 7927W        W28207  10.185  15.986  13.981  0.1732  0.1818  0.1570
 7928W        W28208   1.462   3.373  13.694 -0.2022  0.2922  0.0138
 7929W        W28209  16.583  17.440  12.497  0.0101  0.0557  0.2065
 7930W        W28210   5.004  14.339   0.389  0.2620  0.0584 -0.3252
 7931W        W28211  14.231   7.598   0.406  0.1426  0.4006 -0.0216
 7932W        W28212   5.488  15.450  14.730  0.0096  0.1662 -0.1421
 7933W        W28213  10.772   1.467  11.280  0.0094  0.1744  0.0582
 7934W        W28214  11.945   1.421   0.288 -0.3771 -0.1490  0.1336
 7935W        W28215   1.681   5.530   0.875  0.1969 -0.1178 -0.0164
 7936W        W28216  12.891   0.047  15.535 -0.2496  0.4083 -0.0978
 7937W        W28217   4.512  14.865  14.829  0.1165  0.0756 -0.0928
 7938W        W28218  14.999   3.942   0.882 -0.0299  0.0438 -0.1366
 7939W        W28219   1.409  17.693  16.609 -0.5492 -0.0576 -0.2668
 7940W        W28220   1.779  11.391  16.078 -0.0239 -0.0056  0.0920
 7941W        W28221  12.634  11.604  13.149 -0.2550 -0.0064 -0.0245
 7942W        W28222   8.418   8.330  14.423 -0.3696 -0.1427 -0.0810
 7943W        W28223  13.718  17.524  13.978 -0.0453  0.0190  0.1350
 7944W        W28224  10.682  10.771  15.877 -0.1753  0.3189 -0.3334
 7945W        W28225  13.160  17.163   0.740 -0.1540  0.1430 -0.1572
 7946W        W28226   3.096  13.469  13.932 -0.0369 -0.2910 -0.1923
 7947W        W28227   3.503  15.349   3.146 -0.2307  0.3432 -0.0823
 7948W        W28228  16.718   5.128  15.307 -0.2938 -0.0796 -0.0755
 7949W        W28229   6.443  16.888   5.011 -0.3314 -0.3249  0.0108
 7950W        W28230  11.469  10.674   1.882 -0.3039  0.0612  0.0374
 7951W        W28231   9.260  10.272  13.147 -0.1446 -0.3187  0.2765
 7952W        W28232   5.952   7.039  14.739 -0.0066 -0.2138  0.0160
 7953W        W28233   0.233   1.988   2.453 -0.0404  0.0387  0.4298
 7954W        W28234  17.514   7.302  13.191  0.0914 -0.1966  0.0541
 7955W        W28235  16.851   9.800  15.557 -0.0033  0.0678 -0.1024
 7956W        W28236  12.657  12.333  15.837 -0.1739 -0.2322  0.0032
 7957W        W28237   4.318   8.707   2.760 -0.1542 -0.1749  0.3532
 7958W        W28238   8.626  14.479   1.486 -0.1730 -0.2014  0.2126
 7959W        W28239  10.409   0.072   1.597  0.1147  0.1294 -0.0098
 7960W        W28240   3.292  13.911   3.335  0.0973 -0.1490  0.0769
 7961W        W28241   7.398  13.721  15.449  0.0368  0.1358 -0.1217
 7962W        W28242  14.081  14.684   0.253  0.1370  0.1638 -0.1219
 7963W        W28243  11.429  16.559  13.584 -0.1223 -0.2629  0.2314
 7964W        W28244   0.035  14.397   0.206  0.1868 -0.1161  0.2449
 7965W        W28245  16.838   5.408   0.304  0.3110 -0.2125  0.2726
 7966W        W28246   3.744  11.280   3.278 -0.0556  0.1580  0.0187
 7967W        W28247   1.817   5.361  13.360  0.2705  0.0175  0.0666
 7968W        W28248   5.215   8.103  11.730  0.2794  0.2959  0.0756
 7969W        W28249  17.460   2.486   0.690 -0.4716  0.2278 -0.0824
 7970W        W28250   1.326   6.705  12.746 -0.0474 -0.0647  0.0805
 7971W        W28251   5.051   5.284   3.617  0.2612 -0.3530 -0.0469
 7972W        W28252  17.271   4.735   4.798  0.2407  0.2833  0.0164
 7973W        W28253   5.880  13.821   3.411  0.0536 -0.0294  0.1177
 7974W        W28254   8.476   9.278  16.366 -0.0693 -0.0734 -0.1338
 7975W        W28255  11.657  16.625   1.501  0.2524 -0.0808  0.1509
 7976W        W28256  12.730  10.705  12.196 -0.1502 -0.0805  0.0172
 7977W        W28257  14.056  11.214   4.401 -0.0271 -0.1568 -0.0260
 7978W        W28258   2.069  17.063   3.708  0.0954  0.2559  0.0731
 7979W        W28259  13.880  17.595   3.740  0.1493  0.0592  0.0505
 7980W        W28260   4.084   8.259  14.788  0.0710  0.1285 -0.2541
 7981W        W28261  10.592  15.955  15.151 -0.1890  0.1232  0.1271
 7982W        W28262  16.781   0.140  12.178 -0.5230 -0.1994  0.0666
 7983W        W28263  12.689   6.166   4.470  0.2006 -0.1354  0.3413
 7984W        W28264  16.659   8.047  15.378  0.1626 -0.0094  0.1148
 7985W        W28265  10.284   9.082  12.241  0.1456 -0.1867 -0.5146
 7986W        W28266   8.135   2.415  14.434 -0.2369 -0.0288 -0.1294
 7987W        W28267  13.519  11.772   3.603  0.1057 -0.0783  0.0623
 7988W        W28268  15.958   2.887  15.611  0.1229  0.1600 -0.3651
 7989W        W28269   4.011   9.876  16.271  0.1319  0.3481 -0.0039
 7990W        W28270   8.617  15.380  15.810  0.1258 -0.1335 -0.0698
 7991W        W28271   0.230  16.033  13.514  0.0810 -0.1624  0.1628
 7992W        W28272  12.255   1.153   1.536  0.2160  0.0119 -0.1597
 7993W        W28273   1.631  13.088   0.714 -0.0481  0.2502  0.1437
 7994W        W28274   7.944  13.585   0.318  0.3788 -0.2940 -0.1273
 7995W        W28275  14.135   4.047   1.321  0.1249  0.1752 -0.4241
 7996W        W28276  14.330  11.486  15.904  0.3960  0.1478  0.2211
 7997W        W28277   0.606   9.566  14.101 -0.2020  0.2122  0.1714
 7998W        W28278   1.901   1.330  14.854 -0.3444 -0.3703 -0.1246
 7999W        W28279  10.122   8.673  15.213  0.2051  0.3208  0.0627
 8000W        W28280  14.130  16.740   2.665 -0.1405 -0.3126 -0.0782
 8001W        W28281  13.782  17.305  16.308  0.0391  0.3050 -0.1289
 8002W        W28282   3.780  16.852   4.404  0.1649 -0.0231 -0.4160
 8003W        W28283   6.909   4.572  13.460  0.4636 -0.1861 -0.2024
 8004W        W28284   7.615   4.804   4.687  0.0528  0.2753 -0.2726
 8005W        W28285   5.086  14.925   0.918  0.2564  0.3200 -0.0093
 8006W        W28286  10.189  14.953   0.264  0.1381  0.1093  0.0400
 8007W        W28287   7.906   8.965   0.352  0.1742 -0.2217  0.2862
 8008W        W28288   5.126   8.795  12.968 -0.0838  0.1117  0.2227
 8009W        W28289   5.901   0.274  12.391 -0.0422  0.0488  0.0512
 8010W        W28290   3.337   3.362   4.341 -0.0538  0.1762 -0.2617
 8011W        W28291   6.057  12.390   0.366  0.2902  0.1108  0.2279
 8012W        W28292  16.850   5.435   3.945 -0.1214 -0.1849  0.0788
 8013W        W28293  11.359  11.739   1.529  0.0038  0.0118 -0.1291
 8014W        W28294  12.573  10.773   2.706  0.3944 -0.0090  0.1749
 8015W        W28295   2.098  13.813   4.057  0.0191  0.0356  0.0556
 8016W        W28296  12.180   5.204  12.874  0.0576 -0.1667  0.1132
 8017W        W28297   9.561   7.505  13.089  0.1009 -0.1177  0.2086
 8018W        W28298  10.823  11.136  15.628  0.0492 -0.0338  0.0315
 8019W        W28299  13.718  16.016  13.789  0.0100  0.2666  0.0745
 8020W        W28300   8.994   6.556  16.653 -0.3014 -0.1260 -0.0709
 8021W        W28301   5.666   9.435  13.335 -0.3179  0.0695  0.0834
 8022W        W28302   6.609   1.018   2.817  0.0496 -0.1142  0.1040
 8023W        W28303  14.501  11.530  15.077 -0.0269  0.1561  0.0748
 8024W        W28304  17.393   5.540   1.311  0.1426  0.3974  0.0364
 8025W        W28305   3.128  17.255   2.844  0.1562  0.3065  0.0261
 8026W        W28306   7.820   7.222  12.164  0.0972 -0.1093 -0.2277
 8027W        W28307   4.807   9.176   4.493 -0.1027  0.1544 -0.3169
 8028W        W28308  17.211  15.735  15.580  0.4211 -0.2391  0.0254
 8029W        W28309   5.609  10.289  14.700  0.0404 -0.3025  0.1837
 8030W        W28310   7.155  11.022   3.703  0.0110 -0.0248 -0.0285
 8031W        W28311  10.334   9.702   1.047 -0.1742 -0.3074  0.0822
 8032W        W28312  14.592  12.388   2.488  0.0168  0.1642  0.2278
 8033W        W28313   1.490   4.234   4.851 -0.0595  0.1421  0.1054
 8034W        W28314  16.514  17.161  14.010  0.0135  0.1167  0.2604
 8035W        W28315  11.542  13.914  15.040 -0.1667 -0.1614  0.0291
 8036W        W28316   4.311  10.248  14.944  0.1618 -0.2209 -0.1375
 8037W        W28317  10.906   6.794  15.297  0.2255 -0.1364  0.3142
 8038W        W28318   9.036   5.324  14.571  0.0077 -0.1658  0.2898
 8039W        W28319  10.977  12.546   4.597 -0.2473  0.1826 -0.2361
 8040W        W28320  10.752  13.661   2.471  0.0081  0.1666 -0.0554
 8041W        W28321   4.753  11.491  14.430 -0.3467  0.3043 -0.2009
 8042W        W28322  12.689   7.898   5.198  0.1537  0.0234 -0.2244
 8043W        W28323   1.239   3.612   2.745  0.2078  0.0356 -0.0869
 8044W        W28324  17.269   5.206   4.883  0.1360 -0.1459  0.1374
 8045W        W28325  12.621   3.818  11.904 -0.1513 -0.1224 -0.1947
 8046W        W28326   9.861   3.932  16.439  0.3648  0.1119  0.1341
 8047W        W28327  11.608   5.305  15.923  0.0211 -0.1581 -0.0763
 8048W        W28328  12.050  10.211   1.905  0.1428  0.0713  0.2825
 8049W        W28329  17.350  14.676  13.990  0.0226  0.2117  0.2696
 8050W        W28330   1.377  17.292   2.776 -0.0767  0.1521 -0.0109
 8051W        W28331  17.032  13.961   3.257  0.2561 -0.2056  0.0872
 8052W        W28332   6.349  12.394   4.878 -0.0524 -0.0570  0.2410
 8053W        W28333  15.092   1.862  13.392 -0.1413 -0.1511 -0.1081
 8054W        W28334   4.126  10.738   1.812 -0.2704  0.1373  0.1815
 8055W        W28335   3.775  10.695  13.704 -0.2573 -0.1478  0.1375
 8056W        W28336  14.881  11.250  14.768 -0.0637 -0.0214 -0.2980
 8057W        W28337   2.674  17.122  14.062  0.2549  0.1388 -0.2040
 8058W        W28338  13.829   0.621  16.331  0.2204 -0.2990  0.3956
 8059W        W28339   9.763  16.164   0.005 -0.0915  0.0963  0.0267
 8060W        W28340   5.091  10.957   4.391  0.2034 -0.1819  0.1367
 8061W        W28341   6.366  11.493  14.833  0.0330  0.3238 -0.1004
 8062W        W28342   4.630   5.694   0.662  0.1410 -0.1223  0.2388
 8063W        W28343  15.137  17.426   4.260  0.0408  0.0831 -0.1129
 8064W        W28344   7.436  12.653  14.998  0.4513 -0.0446  0.3022
 8065W        W28345  12.443  11.652  12.595  0.0216 -0.0517  0.3049
 8066W        W28346   6.220   7.471  14.681  0.2046  0.1704  0.2282
 8067W        W28347   7.245  11.182  15.099  0.1477 -0.3159 -0.0936
 8068W        W28348  12.092   8.532   4.537 -0.1649  0.2237  0.1894
 8069W        W28349   3.577  10.599   2.813  0.3386 -0.1130  0.2177
 8070W        W28350   0.468   5.802  16.580  0.0419  0.0743 -0.0109
 8071W        W28351  12.713  10.651  15.950  0.1356  0.1848 -0.0976
 8072W        W28352   1.470   3.935   2.473 -0.0635  0.3064  0.0931
 8073W        W28353  14.135   8.797   1.321 -0.1708 -0.2321 -0.0426
 8074W        W28354   7.327  16.200  12.533 -0.1015 -0.3498  0.1692
 8075W        W28355   4.782  13.075  15.525 -0.0611  0.1301  0.1517
 8076W        W28356   4.573   3.944   2.205 -0.0445 -0.1282 -0.3310
 8077W        W28357   3.153  11.539   3.872  0.0016  0.0947 -0.0703
 8078W        W28358  17.705   8.661   0.499 -0.0040 -0.3119 -0.0315
 8079W        W28359   9.930  10.996   1.052  0.0361  0.0645 -0.4047
 8080W        W28360  17.219  15.887   1.152 -0.2789  0.3274  0.0598
 8081W        W28361   3.587   6.261  13.586  0.1003  0.1806 -0.0543
 8082W        W28362   2.285   2.962   0.446  0.0400 -0.0997  0.2452
 8083W        W28363  13.735  10.790   1.328 -0.1002  0.1952 -0.1845
 8084W        W28364  17.373  11.700   1.602 -0.1675 -0.1907 -0.4127
 8085W        W28365   6.168   0.766   1.454 -0.4445  0.0322 -0.2197
 8086W        W28366  13.354   2.671   2.450  0.3169 -0.2578  0.2831
 8087W        W28367  10.251  13.827  15.139 -0.1665 -0.2600  0.3381
 8088W        W28368   2.722   0.219  12.194  0.0137 -0.2082  0.0462
 8089W        W28369  12.350   3.390  15.874 -0.3491  0.1639  0.3091
 8090W        W28370   2.566   2.225   0.420  0.1254  0.2340  0.2916
 8091W        W28371  15.880  10.316  14.334  0.1437 -0.0877  0.1102
 8092W        W28372   6.266  14.323   1.882 -0.0135  0.2557 -0.4562
 8093W        W28373   9.283  12.393  13.550 -0.3978  0.1280 -0.0076
 8094W        W28374  10.691   0.489  12.451 -0.1393  0.0503 -0.0716
 8095W        W28375   3.743  12.196  16.423 -0.0117  0.1531  0.2293
 8096W        W28376  12.106   7.672  11.808  0.1104 -0.0885 -0.0502
 8097W        W28377  16.877  10.216  14.270  0.0470  0.0750  0.1284
 8098W        W28378   8.798  16.728  13.173 -0.1113  0.1371  0.3921
 8099W        W28379   8.589   9.118   3.425  0.0790  0.2160  0.0271
 8100W        W28380   3.404   7.707   5.087  0.0179 -0.3187 -0.0774
 8101W        W28381   2.730   7.803  12.979  0.0262  0.1916  0.1522
 8102W        W28382  17.414   6.280   1.751 -0.0098 -0.1210 -0.4979
 8103W        W28383  11.327   6.191  14.923 -0.0098  0.3603 -0.1551
 8104W        W28384   2.209   0.387   4.480  0.0704  0.2511  0.1384
 8105W        W28385   0.897  10.713   4.843 -0.1164  0.0158  0.0782
 8106W        W28386  11.375  13.147   0.596  0.2016 -0.3479  0.3134
 8107W        W28387  10.040   0.943  13.701  0.2059  0.2549  0.1901
 8108W        W28388  17.043  16.871  13.837  0.1875 -0.0810  0.3962
 8109W        W28389   2.773  10.122  16.585  0.1152 -0.0461  0.2805
 8110W        W28390  15.217   0.198  14.213  0.1921 -0.3653  0.1452
 8111W        W28391  16.111   4.751   0.209  0.2233 -0.2641  0.1372
 8112W        W28392   7.850  17.816   0.895  0.0010  0.2278 -0.1822
 8113W        W28393   3.910  17.744   3.139  0.2693 -0.2242 -0.0103
 8114W        W28394   0.043   9.193  15.009 -0.1919  0.1158  0.1531
 8115W        W28395   4.439  12.580   4.073 -0.3535 -0.1683 -0.0593
 8116W        W28396   6.166   2.889   0.511  0.3007  0.0799 -0.1792
 8117W        W28397  10.364   1.499   1.924 -0.1965 -0.2550  0.0027
 8118W        W28398   5.342   3.855  14.978 -0.0764 -0.1759 -0.0465
 8119W        W28399  13.405  14.473  14.478  0.2783  0.2253  0.1226
 8120W        W28400  11.114  16.693   3.405 -0.1524  0.1913  0.2047
 8121W        W28401  17.750   3.220  15.961 -0.1194 -0.0270  0.3754
 8122W        W28402  14.931   1.617  14.283  0.1136  0.0046 -0.4670
 8123W        W28403  16.688  14.927   1.602 -0.0441  0.1562 -0.0588
 8124W        W28404  10.082  16.774  11.917 -0.0237  0.1930 -0.0230
 8125W        W28405   5.864   5.888  12.504  0.1057  0.1446  0.2371
 8126W        W28406   8.000  15.911  14.506  0.1549  0.0348 -0.1613
 8127W        W28407   9.652   6.883  12.318  0.0759 -0.0533  0.0818
 8128W        W28408  15.106  17.058   4.634  0.1335 -0.3113  0.1441
 8129W        W28409   8.820  16.764  15.560  0.0608  0.3187  0.4594
 8130W        W28410   5.846   0.959  13.770  0.1628  0.1172  0.2360
 8131W        W28411  14.150   4.256   0.217  0.0478  0.2072  0.0902
 8132W        W28412  14.942   1.701   2.328 -0.0240  0.0914 -0.1719
 8133W        W28413  15.332  13.540  14.550 -0.2737  0.2435 -0.1121
 8134W        W28414  10.634  11.403   3.643 -0.3513 -0.0717  0.0606
 8135W        W28415   0.584  13.142   3.301 -0.2345 -0.0185 -0.2206
 8136W        W28416   9.411   6.330  16.370  0.0551  0.1843 -0.0575
 8137W        W28417   3.332  14.961   4.231  0.1976 -0.0034 -0.3215
 8138W        W28418  12.456   2.300   2.980  0.0746 -0.0164 -0.0070
 8139W        W28419   1.571   5.482   3.195  0.0815 -0.0798  0.0009
 8140W        W28420  11.402  12.316  14.544 -0.2310  0.1007  0.1246
 8141W        W28421   9.337   7.090  14.914 -0.0105 -0.0522 -0.1725
 8142W        W28422   1.061  13.908   0.904 -0.0558  0.1288  0.0188
 8143W        W28423  12.740  14.453   1.924 -0.2005 -0.2957 -0.0831
 8144W        W28424  13.820   1.177  13.476  0.2002  0.1368  0.0418
 8145W        W28425   7.072  16.911  13.686  0.0212  0.0242  0.0131
 8146W        W28426   5.644   3.884   3.126  0.1234  0.0858  0.2263
 8147W        W28427   2.493  12.202  15.766  0.0884  0.0662 -0.0776
 8148W        W28428   5.651  17.910  16.414 -0.0524  0.2066 -0.1022
 8149W        W28429   3.528   8.481   1.534 -0.2028  0.2381  0.0807
 8150W        W28430   9.996  11.662  14.219  0.2402  0.0091  0.1186
 8151W        W28431  15.579   2.532  15.539  0.2504 -0.1703  0.1003
 8152W        W28432  14.359   4.340   2.084 -0.0715  0.0612  0.2028
 8153W        W28433  15.970   2.446   4.809 -0.1063 -0.1104 -0.2432
 8154W        W28434   5.548  15.967   1.941  0.1201  0.2891 -0.2324
 8155W        W28435   7.124   7.044   2.553  0.0790 -0.0096 -0.1228
 8156W        W28436  12.928  13.205  12.412  0.0341 -0.1865  0.0820
 8157W        W28437   8.506   5.255  14.479 -0.2625 -0.0224  0.0864
 8158W        W28438  12.266   9.256  13.315  0.1856  0.0042 -0.1257
 8159W        W28439  11.551  12.876   3.294  0.1310  0.2729  0.3195
 8160W        W28440   0.510   9.909   0.348 -0.1196 -0.0582 -0.0602
 8161W        W28441  14.813   2.184  12.758  0.1003 -0.0848  0.0143
 8162W        W28442   8.181   5.305  15.287 -0.0514 -0.0808 -0.2080
 8163W        W28443  13.352   1.114   1.756  0.3097  0.0210 -0.0020
 8164W        W28444   0.807  15.240   4.936 -0.2184 -0.0511 -0.0587
 8165W        W28445   7.752  11.462  12.012 -0.0751  0.0982 -0.1892
 8166W        W28446  12.102   2.537  15.682 -0.0563  0.0226 -0.0955
 8167W        W28447   1.914  16.657   2.578 -0.0696 -0.0107 -0.1841
 8168W        W28448  17.910   4.618   1.799 -0.1077  0.0808 -0.0676
 8169W        W28449  10.052   4.597   1.407  0.0904  0.1670  0.0345
 8170W        W28450  11.711  10.377  11.961 -0.0093 -0.1917 -0.1556
 8171W        W28451   7.999  15.909   4.604 -0.1834 -0.3029  0.1731
 8172W        W28452   7.954  14.433   1.759  0.1281 -0.0329  0.0015
 8173W        W28453   4.775  17.267  13.317  0.0177  0.1221 -0.0008
 8174W        W28454  12.567  16.100  16.315  0.0659  0.0670 -0.1277
 8175W        W28455   1.788  16.049   5.001 -0.4727 -0.1558  0.1056
 8176W        W28456   2.940  13.119  15.485  0.1645 -0.0171  0.1104
 8177W        W28457   6.663   8.382  12.298 -0.0808  0.1059 -0.1514
 8178W        W28458  15.356   6.113  13.239 -0.0854 -0.0655 -0.0701
 8179W        W28459  17.623   4.553  13.241  0.0810  0.0789 -0.0087
 8180W        W28460  12.627  15.713  12.133 -0.0206 -0.0256  0.0201
 8181W        W28461   0.344   5.898  12.383  0.0405 -0.1040 -0.5147
 8182W        W28462  12.988  10.192   3.162 -0.3163  0.0907 -0.1528
 8183W        W28463  14.647  11.163   3.323 -0.1210 -0.1537 -0.0167
 8184W        W28464  12.981   1.790   4.179 -0.3824  0.1195  0.0400
 8185W        W28465   7.965  16.637  12.899  0.0553 -0.0437 -0.3648
 8186W        W28466   4.980  14.704   1.948  0.2409  0.0607  0.0932
 8187W        W28467   7.782  12.062  16.497 -0.1159  0.0274  0.0547
 8188W        W28468   2.450   4.505   1.421 -0.2533  0.1728 -0.0394
 8189W        W28469  14.542  14.007   1.930 -0.0958 -0.0049 -0.0105
 8190W        W28470  11.060  11.393   4.398 -0.2370  0.2847 -0.0597
 8191W        W28471  14.317  10.641   1.917 -0.0788 -0.0633  0.4931
 8192W        W28472  10.232   8.109   2.681 -0.0529  0.0948 -0.0463
 8193W        W28473   0.121  11.396   2.706  0.0354  0.2089  0.0916
 8194W        W28474   0.737   5.445  13.312 -0.0248 -0.5079  0.0792
 8195W        W28475   6.015  17.075  14.476 -0.1101  0.2031 -0.1048
 8196W        W28476   0.424  14.088   0.933 -0.0735 -0.2821  0.0752
 8197W        W28477   2.378   6.873   3.405  0.0879  0.1286  0.0121
 8198W        W28478  12.368  10.192   0.838  0.2283  0.0051 -0.2276
 8199W        W28479  15.712   7.396  11.904 -0.0382 -0.1201  0.0779
 8200W        W28480   7.782   9.169   2.436  0.1916  0.0395  0.0852
 8201W        W28481   2.333   8.490  14.229 -0.0920  0.0197  0.0999
 8202W        W28482  10.208  10.381  13.104 -0.2807  0.1138  0.2219
 8203W        W28483   2.626   4.270  12.909  0.0913 -0.1368 -0.2233
 8204W        W28484   2.880   4.171   4.225  0.1231  0.0906  0.1981
 8205W        W28485  11.816  15.924  15.580 -0.3309 -0.1662 -0.0384
 8206W        W28486  16.591  11.335   2.601 -0.0350 -0.2856  0.1351
 8207W        W28487  15.922  17.884  16.099  0.1561  0.1612 -0.1292
 8208W        W28488  15.363   6.855   0.983  0.0636  0.0242  0.0546
 8209W        W28489  16.355  17.786   0.362  0.1308  0.0161 -0.4533
 8210W        W28490   9.738  12.472   1.088 -0.0626  0.1118  0.1220
 8211W        W28491   6.204  16.491   4.562 -0.1217 -0.1566 -0.1319
 8212W        W28492   2.889   8.855   3.155  0.1819  0.0274  0.2360
 8213W        W28493  10.156   3.102  15.421  0.1313 -0.0010  0.1232
 8214W        W28494   5.101  15.855  13.361  0.1121  0.0080 -0.1915
 8215W        W28495   1.346   4.145  13.314  0.3595 -0.0616  0.2348
 8216W        W28496   1.772  17.408  11.789  0.0698 -0.0812  0.0879
 8217W        W28497   0.540   8.330  14.236 -0.0880 -0.2135  0.0718
 8218W        W28498  15.747   2.909   0.043  0.1136  0.0770  0.1759
 8219W        W28499   3.968   0.888   5.029 -0.0637  0.0249  0.1295
 8220W        W28500  11.336   1.045   0.523  0.2207 -0.0111 -0.1125
 8221W        W28501   1.165  14.468   0.695 -0.2275 -0.0889 -0.3142
 8222W        W28502   5.615   2.522   4.424  0.2828 -0.1199 -0.2959
 8223W        W28503   4.688   2.941   4.729 -0.0288 -0.1631  0.0113
 8224W        W28504   3.953   2.945   1.661 -0.2314  0.2225  0.3257
 8225W        W28505  15.048   8.953  14.419  0.0592  0.3113 -0.2221
 8226W        W28506  10.218   9.043  15.546  0.0842  0.2703 -0.1378
 8227W        W28507  14.975  14.176  15.516  0.0667 -0.0763  0.0838
 8228W        W28508   2.721  16.778   0.083 -0.2238  0.1971 -0.0460
 8229W        W28509   1.504   3.655  12.104 -0.0094  0.0105  0.2928
 8230W        W28510   2.761   5.384   3.094 -0.2103 -0.1589 -0.2116
 8231W        W28511  17.281   2.924  12.229 -0.1806  0.1292  0.0464
 8232W        W28512  14.201   1.089   1.102  0.3614 -0.1330  0.1142
 8233W        W28513  12.419   8.161   2.359  0.1766  0.1669  0.0225
 8234W        W28514  16.714  16.652  14.849 -0.0192 -0.0620  0.4404
 8235W        W28515   8.265  12.808  14.382 -0.0393  0.3978  0.0529
 8236W        W28516  17.099   2.897   2.400  0.0623 -0.1246 -0.0673
 8237W        W28517   6.889   3.393  13.343 -0.1604  0.0296  0.3929
 8238W        W28518  11.948   4.590  15.923  0.0540 -0.1015  0.1028
 8239W        W28519  17.142  12.953  13.012  0.2378 -0.0043 -0.1903
 8240W        W28520   4.910   9.014  15.328  0.3767  0.2078  0.0976
 8241W        W28521  12.661   8.358  15.497  0.2409 -0.2416  0.1156
 8242W        W28522  16.489   3.676  15.349 -0.1364 -0.1583  0.0178
 8243W        W28523   4.212   0.848   4.442 -0.0631 -0.1525 -0.1758
 8244W        W28524   1.237   0.859  15.960 -0.1336  0.2753 -0.1280
 8245W        W28525  13.487   3.974  14.077  0.2194 -0.1059  0.0254
 8246W        W28526  14.683   7.948   4.308  0.1018 -0.0230  0.3819
 8247W        W28527  15.836   2.537  13.427 -0.2248 -0.4244  0.1154
 8248W        W28528   5.790  15.501   3.052  0.0924 -0.3351  0.1725
 8249W        W28529   5.094   6.095  15.207  0.0291  0.1350  0.1472
 8250W        W28530   4.776  17.679   3.227  0.3337 -0.0360 -0.4160
 8251W        W28531  13.417   0.517  14.770 -0.0692 -0.0873  0.0991
 8252W        W28532   1.002  13.658   5.008 -0.0917  0.0425  0.1278
 8253W        W28533  17.370   5.920  14.999  0.2086 -0.0782  0.2144
 8254W        W28534   8.892   6.322   0.451  0.1767 -0.1433  0.2001
 8255W        W28535  13.871   3.154  13.874  0.1885 -0.1192  0.1607
 8256W        W28536  14.591  13.217  14.150  0.2921  0.0895  0.0770
 8257W        W28537  11.644   5.024   0.942  0.1668 -0.1788 -0.1984
 8258W        W28538  13.261  10.817  15.239  0.0113 -0.1127 -0.3431
 8259W        W28539  11.077  10.118   3.470 -0.1110  0.0715 -0.1535
 8260W        W28540   5.683   5.715  13.011 -0.1029 -0.0048 -0.0056
 8261W        W28541  17.615  10.242   1.772  0.3965  0.0732  0.3113
 8262W        W28542  11.868   1.710   2.710  0.2488 -0.0452 -0.1416
 8263W        W28543   1.003  13.569  15.121  0.0347 -0.1925 -0.0897
 8264W        W28544  15.497  12.231  14.014  0.1480  0.1925  0.0486
 8265W        W28545   1.609  16.110   4.486  0.1413  0.3815  0.0688
 8266W        W28546  10.768  16.539   3.071  0.2100 -0.2060 -0.1127
 8267W        W28547   5.902  10.348   0.904  0.1365  0.2335 -0.0469
 8268W        W28548  17.556  13.285  16.469  0.1862  0.0936  0.0990
 8269W        W28549   0.007   7.144  12.937 -0.0222 -0.1325 -0.0730
 8270W        W28550   3.989   7.078   2.623  0.1306 -0.1635 -0.2033
 8271W        W28551  14.482   9.924  15.691  0.1594 -0.0570 -0.0608
 8272W        W28552  12.043  10.068   1.345 -0.2113  0.1920  0.4210
 8273W        W28553  12.164  11.996  12.439  0.0827 -0.0368  0.0705
 8274W        W28554   5.549   3.040   0.888 -0.3215 -0.0908 -0.0109
 8275W        W28555  16.559   7.341  13.454 -0.0978  0.2367 -0.1047
 8276W        W28556   5.103  16.543   4.068 -0.1317 -0.0383 -0.4462
 8277W        W28557   0.573  17.253   0.128  0.0386  0.1626 -0.0960
 8278W        W28558   5.159  10.973  15.950  0.0463 -0.0236 -0.1076
 8279W        W28559   7.245   1.667  12.706  0.2129 -0.2470  0.3007
 8280W        W28560  17.168  10.828  13.735  0.1390 -0.0696 -0.0528
 8281W        W28561   5.491   9.973  10.936 -0.3042 -0.1405 -0.0463
 8282W        W28562   2.084  16.630  15.446  0.0607  0.1258 -0.0688
 8283W        W28563  13.951  17.126   1.788  0.1571  0.3828 -0.1413
 8284W        W28564  10.488   9.243  14.319 -0.0397  0.0054  0.4488
 8285W        W28565   8.557   0.162  12.597 -0.1917 -0.0124  0.3187
 8286W        W28566  12.864  14.500   4.277 -0.2753 -0.4378  0.0691
 8287W        W28567   2.622   6.828   2.935 -0.0683 -0.1974 -0.2818
 8288W        W28568  12.142   2.514  13.902  0.0099 -0.5040 -0.2711
 8289W        W28569  13.309   6.637   3.773 -0.0199  0.0852  0.0135
 8290W        W28570  11.312   5.812  13.078  0.0227  0.0255  0.2464
 8291W        W28571  12.558   8.628   3.196  0.0375 -0.0022  0.1807
 8292W        W28572  12.278  17.476   0.828 -0.0213  0.0403  0.1537
 8293W        W28573   4.263   1.778  16.669  0.1141 -0.2565  0.0087
 8294W        W28574   9.329   8.038   2.012  0.2185 -0.1757  0.2117
 8295W        W28575   7.456   3.953   4.110 -0.0484  0.0933 -0.0709
 8296W        W28576  13.320  13.018   0.220 -0.1932  0.0821  0.1516
 8297W        W28577  12.437  15.276  12.377  0.0552 -0.0520  0.0404
 8298W        W28578  16.728  13.127  12.618  0.0235 -0.0186  0.0341
 8299W        W28579   1.996  11.781   1.351  0.0905  0.0238  0.1893
 8300W        W28580  10.867   2.109   4.452  0.1356 -0.2388 -0.2650
 8301W        W28581  14.152   3.689  13.445  0.0108 -0.2105 -0.3082
 8302W        W28582   5.017  13.170   2.382 -0.2480  0.2023  0.2012
 8303W        W28583   2.698  14.101   4.114  0.1345  0.0900 -0.1160
 8304W        W28584   7.904  15.041   4.114  0.2685  0.1078 -0.0058
 8305W        W28585   7.729   8.829  14.259 -0.4705  0.2664  0.1367
 8306W        W28586   3.585   8.580   5.001 -0.0615 -0.1926 -0.0010
 8307W        W28587   6.524  10.974  12.486  0.1449  0.1565  0.2909
 8308W        W28588  12.277  14.711  12.474 -0.0596  0.1856  0.1751
 8309W        W28589  17.693  12.007   1.286 -0.1276  0.2369 -0.1603
 8310W        W28590   3.273  15.599  14.075  0.0036 -0.1268 -0.0727
 8311W        W28591  14.560   5.108  16.364 -0.0003 -0.2445 -0.2503
 8312W        W28592  17.755   2.718   2.506 -0.0083  0.1715 -0.0026
 8313W        W28593  13.054   4.159  13.308 -0.0893  0.0081 -0.1900
 8314W        W28594   7.843  14.394  16.199 -0.0537  0.1190 -0.1631
 8315W        W28595   3.971  15.927   4.487  0.0947  0.0112 -0.3923
 8316W        W28596   4.713   8.182   1.293  0.0084  0.0502 -0.3258
 8317W        W28597  16.021   4.602  14.410  0.0950  0.0082  0.1466
 8318W        W28598   9.482   2.104  13.346 -0.0579  0.0571  0.0069
 8319W        W28599  16.222  15.508  12.203 -0.1094 -0.2965 -0.0473
 8320W        W28600   5.147   8.200   0.509  0.0249 -0.1161  0.2840
 8321W        W28601   1.252   1.745   1.707  0.0325  0.0139 -0.0983
 8322W        W28602  16.570   7.915  16.660  0.0959 -0.3578  0.1882
 8323W        W28603  15.494   2.162   3.213  0.1257 -0.2650 -0.0698
 8324W        W28604   3.717  11.162  13.968 -0.1297 -0.1258 -0.0816
 8325W        W28605  12.516  11.922   0.059  0.0642  0.1690  0.1495
 8326W        W28606  15.241  16.590   2.278  0.2242 -0.1965 -0.0928
 8327W        W28607  14.203   6.403  14.516 -0.2838 -0.0541 -0.1480
 8328W        W28608   0.230  12.105  13.660 -0.0027  0.0214 -0.1911
 8329W        W28609   9.746   1.346   4.081 -0.0118 -0.0557  0.3616
 8330W        W28610   0.146   6.479  15.443 -0.1147  0.1289 -0.1216
 8331W        W28611   2.032   7.374   2.749  0.0859 -0.0641 -0.5519
 8332W        W28612  12.688  12.587  15.398 -0.2209 -0.0454 -0.0859
 8333W        W28613  15.515  17.786   4.396 -0.0724 -0.2326 -0.1258
 8334W        W28614   0.440  17.347  13.036  0.0005 -0.0317  0.2657
 8335W        W28615   8.723   3.730   4.538 -0.0337 -0.1639 -0.0645
 8336W        W28616   0.245  17.832  15.665 -0.0525  0.0497 -0.2062
 8337W        W28617  14.682  10.493   3.977 -0.0403  0.1231 -0.0763
 8338W        W28618  16.506   6.927  15.686 -0.2291 -0.0596 -0.0980
 8339W        W28619  14.655   1.240  12.977 -0.1273 -0.0378 -0.0447
 8340W        W28620  13.501   2.271   1.300  0.1580  0.0100 -0.2094
 8341W        W28621   0.239   1.814   3.655  0.0905 -0.1107  0.0762
 8342W        W28622  11.836  10.236   4.564 -0.0915  0.0273  0.0263
 8343W        W28623   0.390  10.726   0.004  0.2370  0.1318  0.0978
 8344W        W28624  11.261   9.696  13.762  0.3363  0.2228  0.0792
 8345W        W28625   3.434  14.004   2.091  0.4872  0.1758 -0.0867
 8346W        W28626   1.303   9.406  15.602  0.1091  0.1682 -0.1610
 8347W        W28627  10.913  12.504  13.480 -0.1595 -0.1395 -0.0196
 8348W        W28628   1.295  15.095   4.806  0.1562 -0.0811  0.0462
 8349W        W28629  10.491   8.012  13.507  0.0965  0.2599 -0.0187
 8350W        W28630   8.362  10.053   2.566 -0.0709  0.0044 -0.0581
 8351W        W28631  15.877  12.640  16.473  0.1024 -0.0053  0.0328
 8352W        W28632   1.623   0.400   0.544  0.0762  0.1718 -0.1013
 8353W        W28633  12.093   3.362   0.364 -0.0535  0.3837 -0.2758
 8354W        W28634   9.040   9.899   0.822  0.0003 -0.1586  0.0312
 8355W        W28635  10.923  11.065   1.951  0.1036 -0.0640  0.0529
 8356W        W28636  11.625   2.707  12.747  0.0172  0.0832  0.0778
 8357W        W28637  12.996  10.484  12.860 -0.0444  0.0518 -0.0130
 8358W        W28638   9.255   2.280   4.627  0.1148 -0.2875  0.2416
 8359W        W28639  13.021   7.545  14.226 -0.3231  0.2740 -0.0739
 8360W        W28640   2.233   3.275   2.973  0.0731  0.0654 -0.1650
 8361W        W28641  15.287  14.445   1.508 -0.0144  0.1419 -0.1900
 8362W        W28642   0.079   2.561   0.317  0.3489  0.2143  0.1046
 8363W        W28643   8.287  11.562  12.919  0.0130 -0.0878  0.0500
 8364W        W28644   2.053   7.441   3.557  0.1790 -0.1966 -0.0339
 8365W        W28645   8.744   5.177  13.659 -0.1890  0.0422 -0.3812
 8366W        W28646  12.951   2.244  11.734 -0.1192 -0.3016 -0.2046
 8367W        W28647  10.633  13.727  14.863  0.0488  0.1778 -0.0091
 8368W        W28648   4.709  17.508  15.201  0.0277  0.3399 -0.0326
 8369W        W28649  13.860  10.612   2.358 -0.1103 -0.1428  0.0375
 8370W        W28650  12.966   9.243  12.667  0.3905  0.0846 -0.1294
 8371W        W28651   0.464   7.095  13.184  0.0219  0.0462 -0.0164
 8372W        W28652   7.141  15.043   2.898  0.0746  0.2176  0.0432
 8373W        W28653  11.965   5.322   5.021 -0.1489  0.4404 -0.2418
 8374W        W28654   2.162  13.676   3.549  0.1020 -0.0848  0.0382
 8375W        W28655   2.833  13.803   1.012  0.1752  0.4888 -0.2438
 8376W        W28656   3.928   5.603   4.444  0.0986  0.2344 -0.2417
 8377W        W28657   6.912  15.278  12.172 -0.2436  0.1532  0.2186
 8378W        W28658   5.871   4.342   2.446 -0.1227 -0.3103  0.1774
 8379W        W28659  16.121  13.692  11.966  0.2193  0.0567  0.0524
 8380W        W28660  17.390   0.509   2.513 -0.1320 -0.4068  0.5429
 8381W        W28661  14.241   0.876   1.971  0.3133  0.0546 -0.3217
 8382W        W28662  14.252   6.421  12.511 -0.1585 -0.4218  0.2010
 8383W        W28663   8.302  15.092  14.965  0.3429 -0.1883 -0.0795
 8384W        W28664  11.872   0.906   0.319  0.1072 -0.0579 -0.0801
 8385W        W28665   0.718  16.631   2.869 -0.1461 -0.0532  0.1596
 8386W        W28666   3.592   0.852  12.485 -0.2135 -0.1159  0.1052
 8387W        W28667  11.361  14.901  12.824  0.3127 -0.0202  0.3395
 8388W        W28668  17.299   8.864  12.343  0.0343 -0.2487 -0.2174
 8389W        W28669  17.278   2.624   3.548  0.1479  0.2669 -0.0706
 8390W        W28670  12.057   6.859   4.381  0.1759  0.0133 -0.4327
 8391W        W28671   2.261   2.741   1.325 -0.1378  0.1475 -0.0917
 8392W        W28672  17.983  10.297  16.637 -0.2276 -0.0211 -0.0151
 8393W        W28673   1.754  11.772   0.877  0.0756 -0.2053 -0.2278
 8394W        W28674  14.717   7.945   3.749 -0.0998 -0.2153 -0.0674
 8395W        W28675  13.633  17.894   4.204 -0.0066  0.1211 -0.1366
 8396W        W28676   8.928   0.545   2.038 -0.0477 -0.2109 -0.2065
 8397W        W28677  10.548  16.884   2.336 -0.2797 -0.0497 -0.0582
 8398W        W28678   9.117  17.296  15.859  0.1376  0.0730  0.0679
 8399W        W28679   9.481   6.272   0.377  0.0219 -0.1173 -0.0474
 8400W        W28680   0.006   2.122   0.536  0.0306  0.0375  0.3758
 8401W        W28681   0.830   5.515   0.283 -0.0198 -0.0773 -0.3794
 8402W        W28682   8.785   6.843  16.211 -0.2720  0.0403 -0.0845
 8403W        W28683  16.394   0.679  12.965 -0.1902  0.1815  0.2351
 8404W        W28684   6.560  13.525  12.351 -0.2794  0.1375 -0.1704
 8405W        W28685   0.567   4.301   1.474 -0.1290  0.0729 -0.2201
 8406W        W28686  12.342  16.847  15.156 -0.1741 -0.0445 -0.1966
 8407W        W28687   3.787   9.011   4.737 -0.1719 -0.2009  0.1577
 8408W        W28688   2.619  13.455   5.558  0.6403  0.1702 -0.1590
 8409W        W28689  14.572  16.841   0.852  0.1052 -0.0494 -0.0137
 8410W        W28690  13.507   7.351  16.185 -0.0465 -0.2905  0.3061
 8411W        W28691   2.861  15.411  14.341  0.3329 -0.1140  0.0390
 8412W        W28692   6.972  11.158   1.364  0.0903 -0.2450  0.1232
 8413W        W28693   6.241   1.896  14.775 -0.0850  0.1669 -0.0614
 8414W        W28694  10.236   4.837  15.971 -0.1423 -0.0885  0.1441
 8415W        W28695   3.007  12.407  16.279  0.2990  0.1534  0.1180
 8416W        W28696   4.315  10.744   5.462 -0.0987  0.2052 -0.0589
 8417W        W28697  17.605   4.616   0.227 -0.0388  0.0036  0.1762
 8418W        W28698   0.681  12.753   2.971  0.1415 -0.0266  0.1760
 8419W        W28699   9.622   5.319  13.325  0.1066  0.0382  0.1405
 8420W        W28700  17.302  15.618  12.385 -0.1549  0.0063 -0.3196
 8421W        W28701  13.127  17.625  12.160  0.0971 -0.2051  0.0882
 8422W        W28702  16.334   7.034   1.019  0.0340 -0.0155 -0.1673
 8423W        W28703   2.027   9.103  15.321 -0.1372  0.1779 -0.2639
 8424W        W28704   1.934   6.960  16.365 -0.1045  0.1269 -0.0722
 8425W        W28705  10.396  14.312  12.339 -0.2091  0.1262  0.0025
 8426W        W28706  15.477  14.427   4.057 -0.0613  0.4086  0.2339
 8427W        W28707  12.656  16.583  14.593  0.0572  0.2758  0.0079
 8428W        W28708   6.129  13.725   0.807 -0.1566 -0.0256  0.0402
 8429W        W28709   1.868  12.818   2.440  0.2327  0.1226 -0.2152
 8430W        W28710   3.077   6.435   0.287  0.2066 -0.3838 -0.1654
 8431W        W28711  16.312   4.531  12.102  0.0778 -0.0070  0.1530
 8432W        W28712  10.445   6.117  15.925  0.1023 -0.0058  0.1076
 8433W        W28713   9.300   8.640  16.639  0.0384 -0.0826 -0.2463
 8434W        W28714   3.354  17.685  14.980  0.0460  0.1237  0.2446
 8435W        W28715   2.072   4.952   1.347  0.1141  0.0240 -0.1033
 8436W        W28716   7.515  10.837   4.078  0.0434 -0.2323 -0.2210
 8437W        W28717  12.953   3.672   4.028 -0.2610  0.2113 -0.2185
 8438W        W28718  12.555  10.438  16.338 -0.3268  0.0630 -0.3459
 8439W        W28719  12.881  12.647  14.952  0.0530  0.0747  0.0758
 8440W        W28720  17.745   4.708   3.487 -0.0638  0.1377  0.0369
 8441W        W28721  12.617   7.382   4.830  0.0712 -0.1131 -0.0555
 8442W        W28722  14.002   1.840  15.122 -0.0597  0.1257 -0.1893
 8443W        W28723   7.634  11.712   3.591  0.3625  0.0227 -0.1086
 8444W        W28724   6.361  17.339   2.325 -0.1237  0.1628 -0.0350
 8445W        W28725  12.187  13.271   3.075 -0.0013  0.1315 -0.0590
 8446W        W28726   7.528  12.896   0.923 -0.1138 -0.0502 -0.0914
 8447W        W28727  11.060   7.315   2.640 -0.0145  0.1475  0.2197
 8448W        W28728  16.666   2.424   1.085  0.1202 -0.2001 -0.1132
 8449W        W28729   5.205   4.062  13.611  0.1834 -0.1405  0.0035
 8450W        W28730   2.485   0.908  13.006 -0.0873 -0.0427 -0.0575
 8451W        W28731  10.391   4.855  12.926 -0.1050 -0.1139  0.1329
 8452W        W28732   4.603   8.145  12.543  0.2199 -0.0667 -0.0008
 8453W        W28733  13.414   9.213   1.911  0.2651 -0.2152  0.0307
 8454W        W28734   2.329   0.560  13.785  0.0571  0.1236  0.2868
 8455W        W28735  11.930  11.216  13.512 -0.1265  0.0573 -0.0995
 8456W        W28736   7.745  16.598   5.185 -0.2224 -0.0869 -0.2538
 8457W        W28737   1.667   8.605   4.190  0.1399  0.2745  0.1230
 8458W        W28738  10.651  15.647   2.571  0.0867 -0.1240 -0.2203
 8459W        W28739   7.907  12.538  16.602 -0.1991  0.1283  0.0134
 8460W        W28740   9.222  10.522  16.321  0.1896  0.3222 -0.0045
 8461W        W28741  12.054   2.784  16.419 -0.4009 -0.2457 -0.2076
 8462W        W28742   4.789  17.785  14.486  0.0399 -0.1001  0.0980
 8463W        W28743  13.560   7.193  11.869 -0.0148 -0.0639  0.1436
 8464W        W28744  14.773   4.518   2.362  0.1321  0.3475  0.0747
 8465W        W28745  16.418   0.866  14.110 -0.0562 -0.2501 -0.0413
 8466W        W28746   9.048   1.778   2.740  0.1643 -0.1133  0.0407
 8467W        W28747  17.000   8.039  12.898  0.2564 -0.0599  0.3708
 8468W        W28748   6.756   1.498   1.668 -0.2658 -0.0617 -0.1005
 8469W        W28749   1.808   3.894  15.228  0.0715 -0.1116 -0.1351
 8470W        W28750   3.261   5.339   3.385 -0.3110  0.1356 -0.1699
 8471W        W28751   9.399   8.673   4.503 -0.0264 -0.4488 -0.3193
 8472W        W28752   9.641   9.158  15.520 -0.0667  0.1022  0.1435
 8473W        W28753   2.150  13.760   2.441  0.0302 -0.0971  0.0316
 8474W        W28754  10.214   5.291  12.733  0.1109 -0.3455 -0.1635
 8475W        W28755   9.709   7.975  14.809 -0.0903 -0.3948 -0.3396
 8476W        W28756   0.334   8.868  16.626  0.1096 -0.3688  0.3432
 8477W        W28757   0.449  12.985   1.959  0.3418  0.1873  0.0081
 8478W        W28758   6.848  14.435   1.389  0.0119  0.3475  0.0480
 8479W        W28759  15.164   4.998  11.749 -0.0614 -0.0413 -0.2621
 8480W        W28760   3.182   4.019  14.938  0.0937 -0.1273  0.0335
 8481W        W28761  13.897   7.094  14.858  0.0056 -0.1408 -0.0849
 8482W        W28762  10.485   9.896   2.430  0.1244 -0.1570 -0.1387
 8483W        W28763  12.415   6.096  11.718 -0.2009 -0.5324 -0.1042
 8484W        W28764  10.248  16.778   0.589  0.0196  0.3374 -0.0406
 8485W        W28765  17.105  10.654  16.134 -0.1530 -0.3804  0.0862
 8486W        W28766  12.327  16.829   1.862 -0.1334 -0.3005 -0.4007
 8487W        W28767   5.657   1.212   0.690  0.0452  0.3046 -0.0786
 8488W        W28768  13.758   9.600   4.052 -0.3824 -0.2220 -0.1087
 8489W        W28769   0.685   8.971  14.127 -0.3754  0.3342 -0.0812
 8490W        W28770  11.539   5.293  11.533 -0.2269  0.1183 -0.1162
 8491W        W28771  15.722   6.825   3.505  0.1982  0.0955 -0.0915
 8492W        W28772  11.995  14.370   1.452 -0.1103 -0.1525  0.0125
 8493W        W28773  12.047   9.333   0.596 -0.3614 -0.2915 -0.0835
 8494W        W28774   8.255   4.175  11.627  0.3879  0.2074 -0.0036
 8495W        W28775  17.445   6.153   0.106  0.0449 -0.0262 -0.2229
 8496W        W28776  17.415   2.937   4.532 -0.1154 -0.3342  0.0216
 8497W        W28777  12.321   4.587   2.984  0.0263  0.1871 -0.2537
 8498W        W28778   4.912   3.389   3.353  0.2086 -0.2701  0.1054
 8499W        W28779  15.882   7.427  15.520 -0.3971 -0.1004  0.0387
 8500W        W28780   6.396   2.925   4.596 -0.2638 -0.0678  0.0450
 8501W        W28781  15.528   5.796   1.839  0.0633  0.0950 -0.2033
 8502W        W28782  13.270   2.170   4.528 -0.2031 -0.0411  0.0664
 8503W        W28783  11.803  15.190  14.574 -0.1644  0.0851  0.0440
 8504W        W28784   7.460   9.376   0.817 -0.0479 -0.1184 -0.3434
 8505W        W28785   3.120   0.423   1.863 -0.0522 -0.2139 -0.2804
 8506W        W28786  14.071  11.502  14.481  0.2116  0.2282  0.2641
 8507W        W28787   0.961  15.039  13.816 -0.4861 -0.0287 -0.2005
 8508W        W28788  12.072   0.468  15.499  0.3360  0.4395 -0.0349
 8509W        W28789   3.413  12.112  11.977 -0.1938 -0.0014  0.0871
 8510W        W28790   4.070  14.593  16.320 -0.1077 -0.1123  0.0423
 8511W        W28791   2.711  10.818  15.359 -0.2034 -0.3411  0.4933
 8512W        W28792   6.227   6.876  13.508 -0.2422 -0.2118 -0.0221
 8513W        W28793   0.299  12.198   0.606 -0.1507  0.0481 -0.3145
 8514W        W28794   5.118   3.694  14.021 -0.0907 -0.1276 -0.0571
 8515W        W28795   7.022   9.147  15.561 -0.0874  0.0979 -0.0754
 8516W        W28796  13.712   8.021  15.043  0.0423 -0.1328  0.1591
 8517W        W28797  12.703  15.515   3.505  0.1807  0.2780  0.3531
 8518W        W28798   8.072  16.205  15.494 -0.1397  0.0784 -0.3073
 8519W        W28799   0.902  13.715  16.193  0.3363 -0.1735 -0.0892
 8520W        W28800   1.531  17.259   4.268 -0.0349 -0.2369 -0.3167
 8521W        W28801   0.136  11.099   4.143 -0.2151  0.2112 -0.0788
 8522W        W28802  10.835  13.157  13.573  0.2968  0.0555  0.1262
 8523W        W28803  14.876   2.581   3.300 -0.0493  0.0976 -0.0866
 8524W        W28804  15.689  16.216   0.855 -0.2078 -0.3002  0.0635
 8525W        W28805  13.210   3.825   1.600 -0.1813  0.0725  0.3066
 8526W        W28806   0.889  12.851  13.237 -0.1381 -0.0944 -0.0199
 8527W        W28807   2.830   5.147   0.507 -0.2035  0.3028 -0.0023
 8528W        W28808  12.885  12.568   3.286 -0.1458 -0.1506  0.2450
 8529W        W28809   0.855  11.876   3.114  0.3161  0.1068 -0.0735
 8530W        W28810   6.080  16.157   4.897  0.4371 -0.0122  0.2113
 8531W        W28811   5.887   8.282   4.009  0.0066  0.0520  0.3050
 8532W        W28812   0.212  10.000   0.743  0.0252  0.1559 -0.1696
 8533W        W28813   6.332   8.790  15.086 -0.0952  0.1504 -0.0197
 8534W        W28814   3.078   1.849  13.332 -0.1182 -0.1075 -0.0184
 8535W        W28815  15.356  12.219   3.563  0.0297 -0.0306 -0.2934
 8536W        W28816   9.664   2.583  11.492 -0.1992  0.2878  0.0329
 8537W        W28817   4.591   1.134  13.138  0.0815  0.3243  0.1873
 8538W        W28818   8.167   6.571  12.843 -0.0837  0.2461 -0.1135
 8539W        W28819  13.327   5.363  16.037  0.1932 -0.0452  0.0638
 8540W        W28820  11.179   3.066  11.574 -0.1730  0.0562 -0.0353
 8541W        W28821   6.289   0.232   0.130  0.1197 -0.2847  0.1404
 8542W        W28822   8.570  11.507  12.416  0.0286  0.1030 -0.2277
 8543W        W28823   0.806  11.939   0.082  0.0341 -0.0408  0.2413
 8544W        W28824   9.240  12.500   0.590 -0.3080  0.0527  0.1000
 8545W        W28825  10.955  13.806  13.239  0.0852  0.1344  0.1021
 8546W        W28826   3.089   3.548  15.581  0.1752 -0.1975  0.0916
 8547W        W28827   8.499  14.714   0.533  0.1537  0.1826 -0.0459
 8548W        W28828  13.741   4.366  14.446  0.0267 -0.1633  0.2852
 8549W        W28829  14.487   7.931  13.205 -0.1532 -0.0286 -0.3072
 8550W        W28830   1.786   0.860  16.151 -0.0331  0.0110 -0.0812
 8551W        W28831  17.824   7.882   3.962  0.1874 -0.1723 -0.0737
 8552W        W28832   8.483  15.772  13.126 -0.2959  0.0860 -0.1285
 8553W        W28833   1.953  10.189  13.443  0.1583  0.0507 -0.1641
 8554W        W28834  13.146  11.577   1.074  0.1593  0.2250 -0.0707
 8555W        W28835  15.703  15.045  13.488  0.0108  0.4708 -0.3551
 8556W        W28836  17.645   9.703  12.287  0.1369  0.1577 -0.4338
 8557W        W28837   8.540   0.179  16.639  0.2322 -0.1186 -0.1079
 8558W        W28838   2.171   7.484   2.283 -0.1383  0.0333  0.1261
 8559W        W28839   4.429   3.249  15.806  0.0293  0.2750 -0.1689
 8560W        W28840  13.422   6.512   3.298  0.2190  0.0505 -0.0185
 8561W        W28841   2.991  15.601  12.340 -0.5301  0.2020  0.2141
 8562W        W28842  11.038   2.037   2.176  0.0649 -0.0616 -0.0550
 8563W        W28843   8.205   5.109   3.988 -0.4864 -0.0629 -0.1075
 8564W        W28844  16.867   4.124   1.735 -0.1643  0.2245 -0.5727
 8565W        W28845   1.521   5.033   1.003 -0.2473 -0.0668  0.1412
 8566W        W28846  14.734  10.338   2.530 -0.0603  0.0693  0.0888
 8567W        W28847  15.460   7.645  14.015  0.0317  0.0767  0.1605
 8568W        W28848   7.119   1.501  13.569 -0.1443  0.1233 -0.0991
 8569W        W28849   7.257   8.686  16.433  0.3805  0.2715  0.1461
 8570W        W28850   4.928  10.024   2.423 -0.4582 -0.0397 -0.1620
 8571W        W28851  12.200   7.342   4.156  0.0374 -0.2466 -0.0895
 8572W        W28852   4.035   4.042   3.577  0.0973 -0.1723  0.3852
 8573W        W28853   3.072   9.670  16.485  0.2246  0.1972 -0.2113
 8574W        W28854   2.329  10.254  16.511 -0.1850 -0.0189 -0.3233
 8575W        W28855   4.540  15.867   2.138 -0.0691  0.0743 -0.0170
 8576W        W28856  11.769  11.978  15.431  0.2781  0.0820 -0.4820
 8577W        W28857   1.346   8.597   5.032 -0.1943  0.0003 -0.3087
 8578W        W28858   8.384   0.844  13.738  0.0138  0.0821  0.0521
 8579W        W28859  17.388   0.523  14.196 -0.0761  0.1640 -0.0491
 8580W        W28860  15.940   5.921  14.051 -0.1206 -0.0210 -0.0467
 8581W        W28861   2.683   4.670   0.215 -0.3508  0.0310 -0.1355
 8582W        W28862   7.751   9.033  13.033 -0.0777  0.1647  0.4389
 8583W        W28863  11.752  16.035  12.847  0.1629  0.0156  0.1769
 8584W        W28864  10.514  13.397  12.203 -0.1829 -0.0458  0.0097
 8585W        W28865  10.351   0.091  14.424  0.2650  0.0575  0.0680
 8586W        W28866  13.927   8.826  13.298 -0.0609 -0.2111 -0.4492
 8587W        W28867  11.930   5.434   1.205 -0.1682 -0.0515  0.1138
 8588W        W28868  15.658  15.997   3.756  0.1056  0.0745 -0.1340
 8589W        W28869  10.401  13.139  13.276 -0.1581  0.0440  0.0069
 8590W        W28870  10.491   7.346   2.223  0.0013  0.0762 -0.1147
 8591W        W28871  13.109   2.529  16.041  0.0937  0.1153  0.2550
 8592W        W28872  14.909   0.359  14.860  0.0849 -0.1807  0.1658
 8593W        W28873  16.534  12.304  12.325  0.0178  0.0937  0.0328
 8594W        W28874  15.139  11.645   2.350  0.1032  0.0205  0.1688
 8595W        W28875   8.874   2.242   2.556 -0.2665  0.2052 -0.3848
 8596W        W28876   8.285   9.772   4.592  0.1366  0.2520  0.2903
 8597W        W28877  16.319   8.699   0.300  0.0445 -0.0073  0.0628
 8598W        W28878   0.832  17.562  14.062  0.3706  0.1887 -0.1679
 8599W        W28879   8.437  15.603   2.092  0.1403 -0.0793  0.0012
 8600W        W28880   2.644   5.005  12.565  0.1411 -0.1729 -0.1594
 8601W        W28881   9.410   1.639   1.675  0.0819 -0.1783  0.0966
 8602W        W28882   3.250  14.542  15.926 -0.4344 -0.4276 -0.4189
 8603W        W28883   1.367  16.923   0.564 -0.0250 -0.1765 -0.0954
 8604W        W28884  11.374   6.435   1.666 -0.0622  0.1251  0.0431
 8605W        W28885  16.128  13.371  16.374 -0.0989 -0.0076 -0.1994
 8606W        W28886  10.221   5.904   4.825  0.1651  0.3744  0.1711
 8607W        W28887  14.745   2.070   3.793 -0.1025 -0.1023 -0.2017
 8608W        W28888   1.635  14.403  12.836 -0.0173 -0.1863 -0.0709
 8609W        W28889   0.257   8.490  12.824 -0.4035 -0.0822 -0.2082
 8610W        W28890   2.714  14.584  13.636  0.4516  0.0826 -0.4026
 8611W        W28891  15.751  14.522   5.053  0.3787  0.3972  0.0318
 8612W        W28892  14.565   4.130   4.082  0.0578 -0.1704 -0.1406
 8613W        W28893   4.623   5.828  14.114 -0.1475  0.0798 -0.2026
 8614W        W28894   3.061   3.631   3.143 -0.1038  0.3266  0.0403
 8615W        W28895  17.632   9.484  13.537 -0.0383  0.2607 -0.1122
 8616W        W28896   4.088   0.108   4.540 -0.0220  0.2508 -0.0383
 8617W        W28897   8.154  17.907  16.454  0.0050 -0.3170 -0.0071
 8618W        W28898  14.862  10.094  15.245 -0.4650 -0.0459 -0.2276
 8619W        W28899  11.167   3.182  15.551 -0.0880  0.0531  0.1237
 8620W        W28900  13.765  16.995   1.084  0.0535  0.0085  0.2042
 8621W        W28901  11.916   3.435   0.810  0.3585  0.4036 -0.0082
 8622W        W28902   7.458  17.433  15.836 -0.0378  0.1981 -0.1698
 8623W        W28903  13.575  12.437  16.328  0.0747 -0.4238 -0.4677
 8624W        W28904  10.310  15.508   3.940  0.0589 -0.1462 -0.0856
 8625W        W28905   6.373   6.522   0.013 -0.3531 -0.3360  0.1817
 8626W        W28906  15.705   4.825  11.721 -0.4737 -0.0074 -0.1374
 8627W        W28907   4.207   9.030   3.211 -0.1097  0.0832  0.2096
 8628W        W28908   0.354   3.969  16.336  0.0807  0.0433  0.0608
 8629W        W28909   4.144   0.410  16.346  0.2218  0.0419 -0.1626
 8630W        W28910   1.823   6.649  13.603 -0.1323 -0.1306  0.0978
 8631W        W28911   7.962   8.466   3.280  0.1761  0.3436 -0.2036
 8632W        W28912   5.160   4.200   2.973  0.0283 -0.1308 -0.1722
 8633W        W28913  14.747  16.771  14.172  0.1077 -0.0171  0.0136
 8634W        W28914   1.201  16.127   1.976 -0.0510  0.0781  0.0420
 8635W        W28915   0.313   6.301  13.634 -0.0658 -0.0183 -0.2184
 8636W        W28916  10.011   5.334  16.096  0.2218  0.1080 -0.0710
 8637W        W28917  10.072   6.859  15.900 -0.3948 -0.1484 -0.1513
 8638W        W28918  15.284   5.906  10.674 -0.1989  0.0149 -0.1461
 8639W        W28919  14.004   2.346  12.521 -0.5332  0.1757 -0.0746
 8640W        W28920   7.329  10.526  13.380  0.1742 -0.1309 -0.1781
 8641W        W28921   3.973  11.253   1.176 -0.0392 -0.1145 -0.0455
 8642W        W28922   8.376   4.062  12.139 -0.0946 -0.1818 -0.0263
 8643W        W28923  11.639   8.744  12.604  0.3801  0.0081 -0.1429
 8644W        W28924  12.013  12.904  11.502 -0.2089 -0.0469  0.0030
 8645W        W28925   7.464   3.777   3.206 -0.0851  0.1149 -0.6002
 8646W        W28926   5.632  16.187  14.407 -0.5082 -0.1391 -0.1620
 8647W        W28927   5.995   9.051  12.582  0.0479  0.1670  0.0188
 8648W        W28928  10.321  17.770  13.479  0.1025  0.1173  0.4174
 8649W        W28929   9.256   3.449  15.061  0.1634  0.1815 -0.2056
 8650W        W28930   8.474   5.077  12.818  0.1033 -0.1927  0.1195
 8651W        W28931   5.250  14.323  15.499  0.1451  0.1880  0.1220
 8652W        W28932  14.218   3.190   0.037 -0.1778 -0.1002 -0.2027
 8653W        W28933   0.841  17.936  14.584  0.1637  0.3651 -0.0753
 8654W        W28934  11.432  13.617   0.877 -0.1592 -0.0425  0.2564
 8655W        W28935   8.619  17.684  12.309 -0.0259  0.0126 -0.1395
 8656W        W28936   4.229   0.906  14.390  0.1211 -0.1611 -0.2438
 8657W        W28937   1.659   1.936   3.012  0.2004 -0.1537  0.0178
 8658W        W28938  15.519  11.551   4.768  0.0410  0.3541 -0.1718
 8659W        W28939   4.640   0.674   4.627 -0.1403  0.1202 -0.1766
 8660W        W28940  16.745  17.291   0.412  0.0704  0.1396 -0.0128
 8661W        W28941   0.541   1.469   3.994 -0.0171  0.1392 -0.1073
 8662W        W28942  10.024   0.698  16.327 -0.3037  0.0717  0.0780
 8663W        W28943  10.742   9.294  12.332  0.1057 -0.3076 -0.1187
 8664W        W28944  11.584  15.286   4.345  0.1448 -0.0543  0.1947
 8665W        W28945   1.746   9.008  14.866 -0.2999 -0.0587 -0.0552
 8666W        W28946   0.933   9.204   3.684 -0.3943 -0.1648  0.0256
 8667W        W28947  16.054   9.504   1.450 -0.0651  0.1628  0.1994
 8668W        W28948  11.833   9.674  15.703  0.1414 -0.1111  0.0100
 8669W        W28949  16.295  12.339  15.643 -0.2686  0.0565 -0.1517
 8670W        W28950   4.695   6.683   4.711  0.2037 -0.1011  0.0679
 8671W        W28951   2.919  14.994   3.842  0.2444  0.0182 -0.0775
 8672W        W28952  14.169  16.142  14.731 -0.2027  0.3675 -0.0814
 8673W        W28953  15.987  17.625   4.347  0.0424  0.2768  0.2043
 8674W        W28954   9.994  10.841  15.368  0.3327 -0.1604  0.1215
 8675W        W28955   5.210   1.099   2.872  0.1887  0.2101  0.2087
 8676W        W28956  13.145  13.270  16.542  0.2481  0.3413  0.0493
 8677W        W28957  11.021   1.343  16.127 -0.1042  0.1264 -0.2386
 8678W        W28958   0.250  17.631   2.336 -0.1415 -0.1180  0.1176
 8679W        W28959   0.690  11.713  14.907  0.6027  0.0578 -0.1311
 8680W        W28960  13.041   6.669   2.011 -0.4030 -0.0498 -0.0871
 8681W        W28961  16.236   0.418  16.422 -0.3326  0.0306 -0.1208
 8682W        W28962  11.292  17.017  12.120  0.2088  0.0462  0.0485
 8683W        W28963  16.913   5.886   0.233  0.0566 -0.1897 -0.0387
 8684W        W28964  10.117   2.256   1.227 -0.1082 -0.0326  0.3737
 8685W        W28965  17.428   9.829   1.499 -0.0676  0.0246  0.2537
 8686W        W28966   5.816   8.936  15.435 -0.0317 -0.3220  0.0725
 8687W        W28967   4.977   9.417   2.904 -0.1115  0.1128  0.1619
 8688W        W28968   9.486   7.132   2.461 -0.0902  0.1570 -0.1932
 8689W        W28969   0.685  11.148   0.095 -0.2440  0.0369  0.0077
 8690W        W28970   2.159   7.459  16.695  0.0954  0.0873 -0.0599
 8691W        W28971   9.834   8.445   0.659  0.0947 -0.0592 -0.0919
 8692W        W28972   7.279   0.477  13.461 -0.2264  0.2262 -0.3287
 8693W        W28973   7.827  12.700   1.988 -0.0067  0.0217 -0.1694
 8694W        W28974  15.869  10.392   3.838 -0.1575  0.2895  0.0518
 8695W        W28975   4.691  16.890  13.877 -0.1515  0.2469 -0.2914
 8696W        W28976   4.824   7.070  14.705 -0.1095 -0.1630 -0.1531
 8697W        W28977   1.617  11.152  13.621  0.1415 -0.0695 -0.0904
 8698W        W28978   7.436  15.169   0.750  0.2130  0.1371  0.1708
 8699W        W28979   6.121   1.052   3.684 -0.1764 -0.0386  0.1548
 8700W        W28980  17.174  15.417   5.101  0.1492 -0.0640 -0.0208
 8701W        W28981  12.705  12.141  14.850  0.1149 -0.1218 -0.1563
 8702W        W28982   9.452  14.127   4.847 -0.3850  0.0880  0.0621
 8703W        W28983   9.550   7.454   1.512 -0.0799 -0.3089 -0.1078
 8704W        W28984  14.973  14.642   1.823 -0.0000 -0.0463  0.0584
 8705W        W28985   1.976  14.232  15.356 -0.2096 -0.0229 -0.1342
 8706W        W28986   7.327  13.271  12.979 -0.2531 -0.1064 -0.0835
 8707W        W28987   2.582  11.004  12.129  0.1426  0.5187 -0.2288
 8708W        W28988  17.414  12.400   0.172 -0.3360  0.1130 -0.1501
 8709W        W28989  17.022   2.570  12.473 -0.1040  0.2799  0.3177
 8710W        W28990  14.846   1.794   1.797 -0.1032 -0.0182  0.0127
 8711W        W28991   2.206  15.428   4.555  0.1536  0.2415 -0.0623
 8712W        W28992   6.210  16.717  14.168  0.0972  0.0693 -0.0242
 8713W        W28993  16.508   3.372  13.834 -0.0292  0.0209 -0.1669
 8714W        W28994   4.258   6.300   1.780 -0.1429 -0.3150  0.1781
 8715W        W28995   8.488   7.799   3.224  0.1265  0.1370  0.0526
 8716W        W28996  14.119  17.474  12.341 -0.3410 -0.0708 -0.0792
 8717W        W28997   3.059   9.206   2.829  0.2393 -0.2917  0.0358
 8718W        W28998   9.365  15.586   0.765 -0.1410  0.3088 -0.1733
 8719W        W28999   8.054  15.742  15.135 -0.1946 -0.0661  0.0564
 8720W        W29000  16.316  15.804   1.411 -0.2497  0.3803  0.0561
 8721W        W29001  10.596   0.169   2.827 -0.5024  0.0762 -0.1793
 8722W        W29002   2.210   1.315  13.069 -0.0594 -0.2352 -0.1258
 8723W        W29003  14.447  15.512  14.922 -0.0502  0.1607  0.1146
 8724W        W29004  13.803   7.575  13.334 -0.0110 -0.0470  0.3013
 8725W        W29005  15.585   9.216  14.121 -0.0338  0.0088 -0.0160
 8726W        W29006   6.435   5.258   5.777 -0.0389  0.0346  0.1460
 8727W        W29007   6.634   9.045  13.096 -0.0682  0.0261  0.3097
 8728W        W29008   6.624  13.084   2.527 -0.0905 -0.4080  0.1657
 8729W        W29009   8.210   4.581  11.961 -0.0410  0.0761  0.0020
 8730W        W29010   2.251   3.883  15.980  0.0487  0.0492  0.0305
 8731W        W29011   8.652   7.256  14.203 -0.0088 -0.1038 -0.2357
 8732W        W29012  13.709   5.524   2.595  0.2114  0.2060  0.0745
 8733W        W29013  13.687   2.499  15.574 -0.0321 -0.1142 -0.1841
 8734W        W29014   1.521   6.465  15.598  0.2081  0.0762 -0.0371
 8735W        W29015  16.279  10.322  16.599  0.0545 -0.0010 -0.2176
 8736W        W29016   4.355  16.557  13.069  0.0549  0.1417 -0.0838
 8737W        W29017   9.193   7.509   1.181  0.3087 -0.1501 -0.2720
 8738W        W29018  14.077  17.820   3.257  0.0486  0.0422 -0.2469
 8739W        W29019  11.625   0.372   3.474 -0.2864  0.0820  0.0175
 8740W        W29020  17.579   0.345   0.797  0.0490  0.3169  0.0360
 8741W        W29021  10.572   6.999  14.995  0.0186  0.2263 -0.1179
 8742W        W29022  13.566  12.982  16.435 -0.1008  0.0484  0.1282
 8743W        W29023   8.418  12.541  13.383 -0.0083  0.4014  0.2874
 8744W        W29024   4.450   7.595   5.495 -0.0618 -0.1460 -0.0957
 8745W        W29025  17.478   3.058  13.484 -0.0549 -0.0270 -0.1524
 8746W        W29026  16.766  11.793   1.259 -0.0871 -0.0978 -0.2736
 8747W        W29027  15.703  13.429   2.964 -0.1841 -0.1172  0.0463
 8748W        W29028  11.160  16.186  14.004  0.0899 -0.1827 -0.2374
 8749W        W29029   8.926   4.367  13.811 -0.1810 -0.0407 -0.1305
 8750W        W29030  10.404   4.299   1.872  0.2635  0.0037 -0.1135
 8751W        W29031   8.840   1.602  16.069  0.1638 -0.1090  0.0876
 8752W        W29032   0.460   8.626   4.621  0.4880 -0.0345  0.2847
 8753W        W29033  15.025   3.382  16.066 -0.1084  0.0852  0.1968
 8754W        W29034  15.462   5.997   0.002 -0.1302  0.1577  0.0989
 8755W        W29035   9.066   4.792   3.582  0.0153  0.0405 -0.2512
 8756W        W29036   4.715   5.335  13.792 -0.2004 -0.2670  0.0743
 8757W        W29037   8.248  12.738   2.197 -0.0933 -0.0731  0.4326
 8758W        W29038   5.580  16.568  13.473  0.0201 -0.2967  0.1395
 8759W        W29039   2.084  15.532   1.477 -0.3506 -0.1457  0.2485
 8760W        W29040  13.262   9.963   2.509 -0.0124 -0.0172  0.2325
 8761W        W29041  17.541  14.881   2.235 -0.2677 -0.1033  0.0317
 8762W        W29042   0.573  15.069   1.577 -0.2741  0.1997 -0.1440
 8763W        W29043   7.421   7.021  13.016  0.3547 -0.2258 -0.1131
 8764W        W29044   7.988  11.223   0.611 -0.1529  0.0384 -0.1809
 8765W        W29045   9.314  11.047   3.577  0.2278 -0.1086 -0.2073
 8766W        W29046   2.269  13.017   1.995  0.0371  0.2246 -0.2895
 8767W        W29047   8.993  10.122  16.648 -0.2077 -0.0680  0.1292
 8768W        W29048  13.463  15.382   1.905 -0.2689  0.1506  0.0924
 8769W        W29049  16.077   4.115  15.366  0.2724 -0.1275  0.3184
 8770W        W29050  15.940   8.914  14.012 -0.2537 -0.0895 -0.3144
 8771W        W29051   6.948   8.489   1.791 -0.0064 -0.0188 -0.2714
 8772W        W29052  14.988   5.635  12.325  0.0315  0.1548 -0.0232
 8773W        W29053   5.883   0.260   3.929 -0.1317 -0.1211  0.1075
 8774W        W29054  15.492  17.142  14.831 -0.2139 -0.0390  0.1649
 8775W        W29055  13.709   6.182   1.844  0.2426 -0.0102 -0.0509
 8776W        W29056  11.773   6.374   2.010 -0.2394 -0.0961  0.0910
 8777W        W29057  12.487   8.029   1.852  0.0486 -0.0359 -0.1400
 8778W        W29058   2.062  16.740  13.530 -0.3024 -0.0252  0.2175
 8779W        W29059   7.752  14.726   0.435 -0.0196 -0.3203 -0.1546
 8780W        W29060   7.012   5.684   3.330 -0.3472 -0.1151 -0.2087
 8781W        W29061   4.644  13.562   2.937  0.0151 -0.0732  0.0552
 8782W        W29062  13.608  12.376   2.017  0.1247 -0.0283 -0.1507
 8783W        W29063  13.482   7.785  12.343 -0.1221  0.0727 -0.2433
 8784W        W29064  13.434   6.229   0.524  0.0326 -0.1660  0.1229
 8785W        W29065   6.902   0.230   1.263  0.2179 -0.3133  0.2833
 8786W        W29066   4.871  11.653   1.048 -0.1313  0.1321  0.1238
 8787W        W29067  17.869  13.834  15.615  0.1880 -0.3286  0.1574
 8788W        W29068   5.902   2.169  12.041  0.0929  0.0144 -0.1218
 8789W        W29069   2.752   8.050  14.329 -0.2750  0.2022 -0.0223
 8790W        W29070   3.859   7.817   0.054 -0.0939 -0.0382  0.1642
 8791W        W29071  14.278  16.474   2.235  0.0835 -0.2810  0.3017
 8792W        W29072   6.219  13.857  12.505 -0.1212  0.2683  0.3393
 8793W        W29073  14.585   4.604   0.508 -0.1000  0.1121 -0.1607
 8794W        W29074   9.420   2.386  12.185 -0.0202  0.0290  0.0416
 8795W        W29075   6.354   8.178  13.731 -0.1297  0.1914 -0.1048
 8796W        W29076  11.594   0.715   0.810 -0.1273 -0.2230  0.1417
 8797W        W29077   8.440   0.435  16.236 -0.2505  0.1627  0.3831
 8798W        W29078   7.099  15.635   0.765 -0.1691  0.1040  0.0257
 8799W        W29079   8.151   0.146   2.231  0.1940  0.3969  0.1352
 8800W        W29080   9.300  15.104   0.543  0.2443  0.2031 -0.1747
 8801W        W29081  14.887   9.359  12.013  0.2896  0.0995  0.0656
 8802W        W29082   7.193  16.459   1.311 -0.0932 -0.2148  0.1168
 8803W        W29083  16.029   1.323   3.292 -0.0623 -0.0264 -0.2047
 8804W        W29084   2.083  13.815  14.592  0.0986  0.1908  0.0470
 8805W        W29085   2.826   8.752  12.448 -0.0246  0.0126  0.6732
 8806W        W29086   1.115   1.534   3.588  0.3896  0.1529  0.3459
 8807W        W29087   5.387   9.594  16.262 -0.0534 -0.1627  0.1685
 8808W        W29088  12.433   2.735  11.327 -0.0069 -0.1420 -0.0959
 8809W        W29089   8.790   6.524  12.314 -0.1753 -0.1792  0.0046
 8810W        W29090  15.744   9.443   4.475 -0.1763 -0.0859 -0.1376
 8811W        W29091  15.397  17.557   1.444  0.2031  0.1475  0.1479
 8812W        W29092   7.009  16.876  15.994 -0.1017 -0.0127 -0.2944
 8813W        W29093  11.144   1.556  15.386  0.0470 -0.1568 -0.1914
 8814W        W29094  10.681   0.081  13.652 -0.0463 -0.0456  0.1829
 8815W        W29095  16.102  15.599   3.678  0.1258 -0.0723  0.0620
 8816W        W29096  17.223  13.744   1.496  0.1001  0.1109 -0.1601
 8817W        W29097   1.230  11.943   0.822 -0.1135 -0.2824  0.1463
 8818W        W29098  17.845   3.087   1.130 -0.0759 -0.0173 -0.0084
 8819W        W29099   6.275  15.628   4.741 -0.1784 -0.3164  0.4111
 8820W        W29100   9.639   5.898  14.732  0.4791  0.0147  0.2077
 8821W        W29101   8.185  14.078  13.848  0.1757  0.0322 -0.2033
 8822W        W29102   6.187   1.843   0.820  0.1558 -0.2536 -0.0542
 8823W        W29103  10.935   5.220   2.800  0.0385 -0.1055  0.1199
 8824W        W29104   5.619   9.935   0.364  0.2699  0.0236 -0.0990
 8825W        W29105   6.433  13.582  13.373  0.1678  0.0208  0.0329
 8826W        W29106   5.437   1.521  13.742  0.2816  0.1183 -0.1148
 8827W        W29107  17.272   4.172   4.731 -0.2841 -0.1422  0.0134
 8828W        W29108   1.017   8.670  14.368 -0.1295  0.0427 -0.2884
 8829W        W29109   9.101  11.952   0.377 -0.1620  0.2731 -0.0048
 8830W        W29110   9.884   2.345  13.279 -0.0736 -0.0417 -0.0340
 8831W        W29111   0.043   8.867   4.738  0.1284  0.0786 -0.2833
 8832W        W29112   7.273  12.029   0.923 -0.2107  0.0981 -0.2040
 8833W        W29113   7.499  17.478  12.978  0.2144 -0.1508 -0.1399
 8834W        W29114   4.607   1.802  13.957 -0.3044 -0.0096 -0.1958
 8835W        W29115  11.723  14.970   4.679  0.0915  0.2139 -0.1873
 8836W        W29116   8.989   3.344   3.279 -0.0272  0.0664 -0.0915
 8837W        W29117   8.118   1.492   2.010  0.1798 -0.1811  0.1442
 8838W        W29118   4.880   3.546   0.262 -0.2421 -0.2458  0.0952
 8839W        W29119  15.744   3.215   4.737  0.0905 -0.1866  0.2784
 8840W        W29120  14.198  11.075   0.138  0.2280 -0.0414  0.2392
 8841W        W29121   0.467  16.398   2.521  0.0494 -0.1430  0.2914
 8842W        W29122   3.987   9.549   2.897  0.0644 -0.1495 -0.2163
 8843W        W29123  16.273   5.952   4.658 -0.1002  0.0563  0.1567
 8844W        W29124  13.886  12.664   4.165  0.0788  0.0647 -0.0901
 8845W        W29125  16.487   3.369  14.737  0.2352  0.0554 -0.3938
 8846W        W29126  17.922  17.718   0.639 -0.0214 -0.0757  0.1953
 8847W        W29127  12.658   0.807  12.901 -0.0811 -0.0344 -0.2310
 8848W        W29128  12.169  12.882   4.391  0.1964  0.1757 -0.1531
 8849W        W29129  17.031  10.565  12.737  0.1440  0.0223  0.0834
 8850W        W29130   2.004  15.552  16.247  0.3475 -0.2957  0.3829
 8851W        W29131  14.840   1.663  12.753 -0.1427 -0.1719  0.1102
 8852W        W29132  13.980  10.180   0.767 -0.2368 -0.1110 -0.0629
 8853W        W29133   5.335   9.960  12.187 -0.0187  0.1062  0.2425
 8854W        W29134  16.194  10.294   3.114  0.0412 -0.0880  0.2877
 8855W        W29135  10.352   1.437  11.761 -0.1404 -0.3974  0.0992
 8856W        W29136  12.353   6.279   0.198 -0.2162  0.0369  0.0447
 8857W        W29137  12.235  11.136   3.503 -0.1012  0.0299 -0.0466
 8858W        W29138  17.859  14.110   3.519 -0.0153 -0.0733 -0.1123
 8859W        W29139   9.773  15.552   2.776 -0.0550 -0.0998 -0.1506
 8860W        W29140  13.336   6.229  15.319  0.2813 -0.0737 -0.1119
 8861W        W29141   4.833  13.578  16.582  0.2084  0.1131 -0.2886
 8862W        W29142   3.922  14.765  12.474  0.3480 -0.2111 -0.0416
 8863W        W29143   2.452  11.998   4.721 -0.2403 -0.0706  0.1787
 8864W        W29144  10.278  12.086  13.457 -0.0973  0.2520  0.1991
 8865W        W29145  16.961  10.009   1.347 -0.0783  0.0631 -0.1644
 8866W        W29146   9.105   3.479  11.414  0.0366 -0.0269 -0.1230
 8867W        W29147   3.508  17.363  15.790  0.0173 -0.0085  0.1949
 8868W        W29148   0.466  10.479  12.866  0.1645 -0.0379  0.0080
 8869W        W29149  16.116  17.217  14.547  0.0479  0.0204  0.1712
 8870W        W29150  13.839  11.683   1.161 -0.0006 -0.4183  0.0313
 8871W        W29151  13.526  16.988  14.961 -0.2911 -0.3020  0.0234
 8872W        W29152  12.233  16.078  12.853 -0.1079  0.0269  0.1012
 8873W        W29153   9.249   3.124   1.477 -0.0227 -0.0204 -0.4022
 8874W        W29154  15.344  10.375   4.704 -0.2863  0.2864 -0.0305
 8875W        W29155   9.354  13.039   2.775 -0.1092 -0.1838  0.0340
 8876W        W29156  15.510  17.207  15.372  0.2349  0.1665  0.1875
 8877W        W29157  10.723  13.720  13.726 -0.2793 -0.0683 -0.1678
 8878W        W29158   2.500   8.586   3.057  0.1321  0.2918  0.2899
 8879W        W29159   8.915  11.936  13.546  0.1801 -0.1025  0.2775
 8880W        W29160  13.688   4.537  16.483  0.0256  0.2026  0.1328
 8881W        W29161   5.744  15.358   2.493  0.0986 -0.0126 -0.0715
 8882W        W29162   0.566   1.961   1.364 -0.1669  0.2365  0.1356
 8883W        W29163   3.789  12.743  13.343 -0.1263 -0.0368 -0.1162
 8884W        W29164   3.256  11.883   4.289  0.1141  0.1957 -0.0497
 8885W        W29165  14.324   7.951  11.847  0.1314 -0.5050 -0.0279
 8886W        W29166   9.692  12.286  12.257 -0.1646 -0.0402  0.0005
 8887W        W29167   3.519   3.869  16.249  0.2233  0.1575 -0.1581
 8888W        W29168   0.756  12.773   1.140 -0.0598  0.1081 -0.2475
 8889W        W29169   1.353   7.780  14.256 -0.2980  0.0387  0.3890
 8890W        W29170  14.821  16.458  15.077  0.0798 -0.0857 -0.0695
 8891W        W29171  14.108   9.747   4.431  0.1774  0.3799  0.2090
 8892W        W29172   1.238  16.973   4.033  0.1537 -0.0589 -0.0754
 8893W        W29173  10.693  16.710  16.264  0.1569 -0.3343 -0.1249
 8894W        W29174  13.089   0.587  15.594 -0.1842  0.0730  0.0055
 8895W        W29175  11.864   3.876  12.076  0.0889  0.0817  0.0040
 8896W        W29176  11.191   7.656  14.885 -0.1501 -0.1346  0.0936
 8897W        W29177   9.477  10.485  15.910  0.1115  0.2160  0.0239
 8898W        W29178   7.031  14.797  14.483 -0.0031 -0.0718  0.0481
 8899W        W29179   4.603  14.804   3.996  0.0051 -0.3302  0.1156
 8900W        W29180   3.411  12.635   6.174  0.1922 -0.2207  0.1380
 8901W        W29181  16.665  14.013   2.865  0.0787 -0.1540  0.0741
 8902W        W29182  11.328   0.846   3.662 -0.0787 -0.1286 -0.0474
 8903W        W29183   1.659   8.489  13.068 -0.0477 -0.1028  0.0525
 8904W        W29184  14.039  13.359   3.684 -0.1738  0.1917  0.0588
 8905W        W29185   7.161   2.287   4.436  0.1778  0.2487 -0.0283
 8906W        W29186   1.884   8.071  15.998 -0.2628 -0.1495 -0.3385
 8907W        W29187  10.297   9.943   4.036 -0.0292  0.1351 -0.0009
 8908W        W29188  15.445   6.094  15.824  0.0544  0.1459 -0.0667
 8909W        W29189   2.350   6.133  16.625  0.1147  0.1614 -0.1872
 8910W        W29190   0.727  16.138  16.084  0.0049 -0.1444  0.0493
 8911W        W29191   6.550  14.507  13.411  0.0053  0.2764 -0.1040
 8912W        W29192   4.524  12.939   5.197  0.2792 -0.2059  0.1355
 8913W        W29193  13.701   6.912   4.539  0.3855 -0.0537  0.2579
 8914W        W29194   2.361  11.057   2.515  0.0397 -0.0131 -0.0398
 8915W        W29195  14.373   8.281   3.637 -0.1220 -0.2804  0.0350
 8916W        W29196   3.299   6.527   3.501  0.3206  0.2930  0.0558
 8917W        W29197  12.478   4.816   0.603  0.0337  0.2326  0.0111
 8918W        W29198  10.198   8.017   3.184 -0.0850  0.0530  0.1137
 8919W        W29199   1.526  14.236  16.116  0.1747  0.0949 -0.1370
 8920W        W29200   4.456   5.669   2.492 -0.3153 -0.0442  0.0632
 8921W        W29201   6.836   0.398  12.273 -0.1446 -0.1660  0.3867
 8922W        W29202   6.513   1.582   1.208  0.1162  0.0069 -0.5033
 8923W        W29203  13.162   2.776  14.576 -0.2674 -0.2915  0.0444
 8924W        W29204   0.940  15.680   4.013 -0.1876 -0.1612 -0.0090
 8925W        W29205  16.213   2.735  12.079  0.0304 -0.0463  0.2059
 8926W        W29206  10.590   3.991  13.468 -0.0928  0.2220  0.1978
 8927W        W29207  13.117   9.934  11.303  0.3355  0.1873 -0.0678
 8928W        W29208  15.248   9.049  13.362 -0.0521  0.2475  0.0727
 8929W        W29209  14.827  10.736  16.165  0.2695 -0.1721 -0.1280
 8930W        W29210   5.043   8.282   3.684 -0.2289  0.3911  0.3437
 8931W        W29211  17.845  11.906  13.415  0.0119  0.1913 -0.0432
 8932W        W29212   1.533   6.600   2.605  0.1017 -0.2585  0.1379
 8933W        W29213  17.844   1.210  12.037  0.3273  0.0664  0.0107
 8934W        W29214  16.201   6.413   1.882  0.0861 -0.0478 -0.1425
 8935W        W29215   9.796   5.363  16.640 -0.0407  0.1431  0.1733
 8936W        W29216   9.087  14.454  14.642 -0.3347  0.1864 -0.0742
 8937W        W29217   7.068   1.876  15.819 -0.0317  0.0364  0.0766
 8938W        W29218   7.541  12.234   4.789  0.1648  0.2396 -0.0690
 8939W        W29219  13.627  10.493  15.450 -0.0860 -0.1199 -0.0125
 8940W        W29220  13.420  16.189   3.203 -0.2096  0.1495  0.1968
 8941W        W29221   7.890   3.471  13.786  0.7380 -0.1478  0.0084
 8942W        W29222  13.009  16.309   4.124  0.1573  0.1274  0.0478
 8943W        W29223   5.170   6.579   4.640 -0.1652  0.1210  0.1833
 8944W        W29224  13.351   3.150   3.537 -0.1830  0.3076 -0.0688
 8945W        W29225   4.314   4.012   4.511 -0.0878 -0.0279  0.2033
 8946W        W29226  12.096  14.580  11.849  0.3161  0.0024 -0.3130
 8947W        W29227   5.716   1.944   4.393 -0.0744 -0.0661 -0.3550
 8948W        W29228  13.876   5.188  14.696  0.1580 -0.2745 -0.1629
 8949W        W29229  12.586   4.172   1.226 -0.3661 -0.0503  0.0769
 8950W        W29230  14.383   0.742   0.314 -0.0633 -0.0101  0.0039
 8951W        W29231   0.020   5.665  12.644 -0.1320  0.0516  0.0660
 8952W        W29232   8.843  10.643  15.910 -0.1827 -0.3561  0.1953
 8953W        W29233   1.159  14.032  15.905 -0.2293 -0.2101 -0.0603
 8954W        W29234  13.911  11.822  16.553  0.1660 -0.1568  0.1259
 8955W        W29235  15.875   1.552   0.754  0.0397  0.0705 -0.2029
 8956W        W29236   5.060  15.431  12.147 -0.0925 -0.2223  0.0968
 8957W        W29237   9.040   2.870   3.494  0.0205  0.0681 -0.2612
 8958W        W29238   7.231  13.344  13.490  0.2639 -0.1080 -0.0239
 8959W        W29239   6.878   9.809   3.456  0.0728 -0.0351  0.0759
 8960W        W29240   7.888   1.244   1.569  0.4982  0.2163  0.0236
 8961W        W29241  16.559  17.420   2.037  0.0284  0.2308 -0.0683
 8962W        W29242  14.701   1.195   1.128 -0.1453  0.1090  0.1368
 8963W        W29243   4.890  17.881   2.719  0.3512  0.0948  0.0821
 8964W        W29244  14.592  17.640  16.024 -0.0589  0.0189 -0.0675
 8965W        W29245  10.872   5.587  13.888 -0.0425  0.1515 -0.1578
 8966W        W29246  11.923   1.080   2.658  0.0290 -0.0978 -0.2275
 8967W        W29247  12.246   2.093  13.714  0.2563 -0.1913  0.0216
 8968W        W29248   4.545  15.923  15.758 -0.3024  0.1792  0.2171
 8969W        W29249   1.530   1.347   0.565  0.4650  0.0041  0.0318
 8970W        W29250  17.031  17.546  12.972 -0.0151  0.1473 -0.3738
 8971W        W29251  13.642   9.101   3.725 -0.2069  0.1720 -0.0345
 8972W        W29252   0.430   8.054  16.125  0.0272  0.3220 -0.1969
 8973W        W29253  13.613  16.848  15.850  0.1166 -0.0962 -0.1233
 8974W        W29254  15.269  10.361  15.099 -0.0555 -0.4858 -0.1164
 8975W        W29255   1.140  15.269   3.177 -0.2021 -0.0449  0.2400
 8976W        W29256   3.415  15.733  13.620  0.0825 -0.0740  0.0103
 8977W        W29257   9.393   2.565  13.884  0.0086 -0.0557  0.2709
 8978W        W29258   2.709   2.218   2.366 -0.1233 -0.2640  0.0816
 8979W        W29259  17.881   6.208  15.781 -0.1196  0.3700 -0.3325
 8980W        W29260  10.879   5.684   1.965 -0.1336 -0.0323  0.0579
 8981W        W29261  10.354   0.240  13.125 -0.1887 -0.2187 -0.1718
 8982W        W29262  17.019   7.179  13.349 -0.2366 -0.1153  0.0465
 8983W        W29263   6.645  10.135  14.545 -0.1595  0.4306  0.0789
 8984W        W29264  16.374  17.518   2.960 -0.1570 -0.1510  0.0920
 8985W        W29265  13.053   5.163  15.290 -0.0608  0.0492 -0.3639
 8986W        W29266   5.445  13.397   2.563 -0.1527 -0.2246  0.1094
 8987W        W29267  10.967  13.482   0.780  0.1773  0.2048 -0.2672
 8988W        W29268   8.990  14.077   1.540  0.2484  0.0769  0.3348
 8989W        W29269  11.469  14.652  15.949 -0.0669 -0.0085 -0.0143
 8990W        W29270   2.123   7.270   0.668 -0.1371 -0.3352  0.1663
 8991W        W29271   1.402   8.380   0.070 -0.1462 -0.1843 -0.0066
 8992W        W29272  16.584   3.465   0.193  0.2216 -0.1610  0.1596
 8993W        W29273  11.559  10.596   1.042  0.2552  0.1170  0.1991
 8994W        W29274  17.064  11.348  13.257  0.0485 -0.3302  0.2746
 8995W        W29275   8.759   5.519   2.496 -0.1427  0.1487 -0.1087
 8996W        W29276  15.792  12.880  15.307  0.3103  0.0269  0.0518
 8997W        W29277   2.676   0.511   3.041  0.0198 -0.0945  0.1284
 8998W        W29278  17.918   3.400  15.079  0.2147  0.0050 -0.1886
 8999W        W29279   7.861   0.484   1.132  0.4445 -0.1097 -0.2977
 9000W        W29280   6.555  13.991   2.101  0.0270  0.0291  0.1536
 9001W        W29281   4.879   8.457  14.413 -0.3078 -0.6235 -0.0561
 9002W        W29282   2.326  10.745   3.152 -0.1191  0.0903  0.0530
 9003W        W29283   5.435   4.286   0.137 -0.1718 -0.0306 -0.1522
 9004W        W29284   1.098  12.287   4.494 -0.1416 -0.1044  0.1190
 9005W        W29285   7.818  16.045  16.458 -0.0305  0.0223 -0.2666
 9006W        W29286   8.361  17.840  14.309 -0.0659  0.1051  0.0842
 9007W        W29287  13.481   0.889   3.054 -0.1145 -0.1557 -0.0642
 9008W        W29288   0.775   0.807  16.306 -0.2468 -0.2734 -0.2113
 9009W        W29289  12.693  17.553  14.692 -0.1437  0.1755  0.0409
 9010W        W29290  10.522   7.532   0.638 -0.2983 -0.1600  0.1095
 9011W        W29291   2.623   3.522   1.746 -0.1729  0.2650  0.2513
 9012W        W29292   1.798   0.423  16.484 -0.2503 -0.3173 -0.1586
 9013W        W29293  10.233  13.500  13.585 -0.1004  0.0687 -0.0994
 9014W        W29294   5.446  13.925   2.673 -0.2610  0.4134  0.0733
 9015W        W29295   4.630  15.231   3.632 -0.2624  0.1623  0.2084
 9016W        W29296   9.506   8.373   3.809 -0.1221 -0.0151 -0.1556
 9017W        W29297  17.649   9.831  12.847  0.1042 -0.1187 -0.0302
 9018W        W29298  16.056   7.552   2.394 -0.1386 -0.1235 -0.1636
 9019W        W29299   8.114   0.838  16.261 -0.2186  0.2149 -0.0022
 9020W        W29300   5.457  15.868   2.840 -0.0014 -0.2043 -0.0444
 9021W        W29301   9.863   6.820  13.215 -0.1978 -0.0479  0.1416
 9022W        W29302   4.902   0.105   1.513 -0.1768 -0.3446  0.0948
 9023W        W29303  16.511   8.143  12.992  0.1588 -0.1232 -0.0444
 9024W        W29304   4.640  13.782   2.127  0.0198  0.5157  0.3502
 9025W        W29305  15.871   2.822  16.206  0.0474 -0.0710 -0.0844
 9026W        W29306   2.272  13.335   3.867 -0.0182 -0.0033 -0.4011
 9027W        W29307   5.612   4.343  13.069 -0.0110  0.0117  0.0439
 9028W        W29308  14.193  10.401   3.147  0.2887  0.0073 -0.1295
 9029W        W29309   8.987  13.350   4.407 -0.1242 -0.0952  0.1220
 9030W        W29310  10.947   7.952  15.480 -0.0824  0.1831 -0.1648
 9031W        W29311  10.623  10.739  13.266  0.0017 -0.2481  0.2005
 9032W        W29312  12.476  15.731   0.426 -0.0474 -0.0184 -0.3322
 9033W        W29313   9.375  13.554   2.545 -0.2352 -0.1539 -0.0648
 9034W        W29314   7.661   8.014   0.349  0.4470 -0.0215  0.2311
 9035W        W29315   3.573   1.842  14.130 -0.2292  0.1070  0.0843
 9036W        W29316   5.177   9.824   4.029 -0.3732  0.0135  0.0626
 9037W        W29317  10.032  16.971   3.572  0.0790 -0.3297 -0.2093
 9038W        W29318   0.773   5.333   3.880  0.1269 -0.0729 -0.0375
 9039W        W29319   2.892  17.420   1.174  0.1633 -0.1842  0.2323
 9040W        W29320   6.461  10.944  11.882  0.2417  0.1804 -0.3415
 9041W        W29321  11.996  14.714  14.645 -0.1419  0.0203  0.2271
 9042W        W29322   1.586   1.329  16.272  0.0455  0.4084  0.1270
 9043W        W29323   5.423  10.840   4.952 -0.1711 -0.1813  0.2075
 9044W        W29324  16.637  14.580   0.911 -0.0237 -0.0733 -0.2439
 9045W        W29325   0.978  10.387   1.822  0.1085  0.3557  0.0207
 9046W        W29326   3.351  16.803  14.948 -0.0165 -0.0419  0.6322
 9047W        W29327   2.606   8.349  16.416 -0.1090 -0.0758  0.0532
 9048W        W29328  10.292   6.019   4.284  0.0676  0.0566 -0.1311
 9049W        W29329  13.763   7.885   1.013  0.1198 -0.3346 -0.2848
 9050W        W29330   2.234  17.569  14.672  0.0979  0.2236  0.1028
 9051W        W29331   1.327  12.044   3.040 -0.1096  0.0456 -0.1388
 9052W        W29332  17.290  10.371  13.985 -0.0212 -0.1460  0.1517
 9053W        W29333   4.818  10.617   4.002 -0.1047  0.1066 -0.0405
 9054W        W29334   3.582   8.693  16.617 -0.3354 -0.0452  0.0536
 9055W        W29335   5.343  10.894   0.138  0.1066 -0.2571  0.3412
 9056W        W29336  12.582   8.053   1.001  0.2159 -0.0517  0.0958
 9057W        W29337   7.160   3.627  15.006  0.2716 -0.1182 -0.2026
 9058W        W29338   4.139   5.934   1.346  0.0093 -0.2648  0.0877
 9059W        W29339   4.428   1.113   3.516  0.1841  0.0287 -0.0325
 9060W        W29340  16.067  13.137   2.337 -0.2048 -0.0185  0.1388
 9061W        W29341  16.955   7.190  15.723 -0.1195  0.2789  0.0475
 9062W        W29342   1.948   9.676   1.996  0.3258 -0.3899 -0.0794
 9063W        W29343   2.280  17.921   1.836  0.2259  0.1376  0.4612
 9064W        W29344   4.749   9.216  12.229  0.1727 -0.0086 -0.1091
 9065W        W29345   7.655  16.160   1.317  0.4099 -0.0166 -0.1414
 9066W        W29346  14.087   6.139  13.217  0.2998  0.0519  0.0340
 9067W        W29347   2.826  17.064   3.575  0.1181 -0.2356  0.1746
 9068W        W29348   9.828  12.709  16.676 -0.0280  0.0445 -0.2218
 9069W        W29349  17.319  17.953   0.558 -0.0568  0.1501 -0.0783
 9070W        W29350  17.640   5.546   4.980  0.0090 -0.1601 -0.0391
 9071W        W29351  12.741   4.855   3.317  0.0406  0.1557 -0.0236
 9072W        W29352  15.956  14.599  13.671  0.5859 -0.0560 -0.2817
 9073W        W29353   1.321  14.395   4.865 -0.1015  0.1766 -0.0428
 9074W        W29354  11.009  15.327   2.729  0.2468  0.2021  0.1490
 9075W        W29355  16.718   2.971  12.105 -0.1632  0.2340 -0.0311
 9076W        W29356   9.779  17.335   2.944  0.1564  0.3478 -0.2148
 9077W        W29357  13.551  13.611   0.095  0.2815 -0.0716  0.2659
 9078W        W29358   1.602   5.883   0.536 -0.0519 -0.1444  0.2039
 9079W        W29359  10.853   3.833   2.543  0.3491 -0.2288  0.1611
 9080W        W29360   7.698   4.888   4.173 -0.0789 -0.1133  0.3426
 9081W        W29361  16.064   1.788  15.325  0.1544 -0.1064 -0.3494
 9082W        W29362   9.112  11.840  15.014 -0.0545  0.0104 -0.0461
 9083W        W29363   2.709   5.137   3.967  0.0816  0.4423 -0.0573
 9084W        W29364   7.633   0.740  16.513 -0.1282  0.3828  0.2467
 9085W        W29365   5.319   2.589   3.285 -0.0795 -0.0067 -0.2689
 9086W        W29366  10.335  10.793   1.153  0.0475  0.1853  0.0754
 9087W        W29367  14.415  17.138   2.511  0.2904 -0.3969  0.0654
 9088W        W29368   5.652  12.331   3.705  0.0080  0.2319  0.3219
 9089W        W29369   5.463   3.542  13.629  0.2007 -0.0057 -0.0918
 9090W        W29370  14.436   1.630  15.073  0.1378 -0.1796  0.0764
 9091W        W29371   0.225   3.923   2.892 -0.1698  0.0506  0.1069
 9092W        W29372   7.123  10.693  12.530 -0.0220 -0.0166  0.0932
 9093W        W29373   8.612   8.869  15.989  0.0454  0.2692 -0.0732
 9094W        W29374  17.462   5.474   2.165  0.0825  0.0117 -0.1517
 9095W        W29375  12.023   8.424  14.477  0.3330  0.1372 -0.0312
 9096W        W29376  15.025   8.329   4.028  0.0661  0.1288  0.0493
 9097W        W29377   7.775   2.656  15.339  0.1466 -0.0447 -0.3768
 9098W        W29378  16.572   3.816  14.431 -0.1373 -0.0149  0.0592
 9099W        W29379   4.068  12.880   3.400 -0.1575 -0.1989 -0.0184
 9100W        W29380  16.654   8.265   4.484  0.1311 -0.1502  0.2000
 9101W        W29381   3.325  17.340  12.289  0.1763  0.1897 -0.1070
 9102W        W29382   8.865  17.179  16.435 -0.2738  0.0317 -0.0709
 9103W        W29383   4.850   3.870   3.915 -0.2004  0.2480 -0.2674
 9104W        W29384   2.625  12.965  16.331 -0.2606 -0.0259  0.4725
 9105W        W29385   4.325  12.834  13.807 -0.1563 -0.1696  0.1544
 9106W        W29386   2.860  13.180  13.473  0.1813  0.2473 -0.1240
 9107W        W29387   2.121  13.599  15.763 -0.1233 -0.0406 -0.0869
 9108W        W29388   4.118   1.560   2.207  0.1877  0.0033  0.0901
 9109W        W29389   7.010  13.296  16.206 -0.0428 -0.0077  0.1002
 9110W        W29390   6.549  16.758  11.837  0.0292  0.2508  0.0102
 9111W        W29391   7.324   4.262  15.651 -0.1341  0.3481  0.2981
 9112W        W29392  16.677   6.436  15.755 -0.0736 -0.1016 -0.0386
 9113W        W29393  15.068  10.540   3.138 -0.1567  0.0609  0.1988
 9114W        W29394   5.967  15.167  16.478  0.0443  0.1793 -0.1350
 9115W        W29395  13.126   4.863   1.351  0.0691  0.0096  0.1460
 9116W        W29396  10.004  16.493   0.285 -0.2807  0.2896 -0.2265
 9117W        W29397   7.288   2.302   1.507 -0.0354 -0.1115 -0.1374
 9118W        W29398   9.289   2.341  11.306  0.3223  0.0661 -0.0572
 9119W        W29399  15.202   4.879   0.710  0.2669 -0.1525 -0.0600
 9120W        W29400  10.434  15.384   2.136 -0.0315 -0.1389  0.0316
 9121W        W29401   2.317   5.560   2.185 -0.0059  0.0747 -0.1260
 9122W        W29402   7.533   9.951  16.690 -0.1509  0.1272 -0.4494
 9123W        W29403   6.793   6.348  15.753  0.0870 -0.1474  0.1268
 9124W        W29404   0.431   1.301   0.589 -0.0850 -0.3725  0.1864
 9125W        W29405   4.928   1.298  15.652  0.2398 -0.1223 -0.0558
 9126W        W29406   5.528   7.885  12.986 -0.0758  0.2002  0.4371
 9127W        W29407  10.183   6.315   0.996  0.1471  0.0802  0.1217
 9128W        W29408  10.708   9.613  15.062  0.0270  0.3308  0.2002
 9129W        W29409   2.029  16.367   2.131  0.1501 -0.0055 -0.0782
 9130W        W29410   6.672  13.180  14.069  0.1010 -0.0458  0.1517
 9131W        W29411  11.140   1.366  12.478 -0.0993 -0.0577  0.1133
 9132W        W29412  10.380  17.469   2.142  0.2162 -0.1396  0.1583
 9133W        W29413   1.399  12.991  12.756  0.1950 -0.1684  0.2341
 9134W        W29414  13.593   5.581  15.714  0.2261 -0.0344 -0.0216
 9135W        W29415   3.537  15.478   1.842  0.2307 -0.0422  0.1489
 9136W        W29416   4.729   6.974   0.009  0.1708  0.0417  0.0978
 9137W        W29417  10.403  13.277   2.089 -0.3173 -0.0135  0.2326
 9138W        W29418   3.701  14.519  13.782 -0.0036 -0.0916  0.0867
 9139W        W29419  12.802  12.330   4.318  0.1251  0.5114  0.0968
 9140W        W29420  17.566  11.539   1.000  0.1615  0.0137  0.0753
 9141W        W29421  12.363  11.668  16.287  0.3303 -0.0829  0.3771
 9142W        W29422   4.584  11.641  11.975  0.2849 -0.0598 -0.1146
 9143W        W29423   7.357  16.460  16.037 -0.1358 -0.1122 -0.0619
 9144W        W29424   9.599  14.568  13.371 -0.1097 -0.0581 -0.3796
 9145W        W29425   2.872  14.856   3.377  0.0111  0.0683  0.1409
 9146W        W29426  15.426  11.420   5.322 -0.1602 -0.0611  0.2676
 9147W        W29427   3.280  11.029   4.780 -0.0881 -0.0612 -0.1000
 9148W        W29428   3.007  11.082   3.714  0.3152 -0.3907  0.1221
 9149W        W29429   3.504  17.574   2.271 -0.1530  0.2120  0.0491
 9150W        W29430   5.244   8.685   0.406  0.1494 -0.1398  0.2358
 9151W        W29431   2.802  12.420  14.687  0.3407 -0.0519 -0.1597
 9152W        W29432  13.626  16.136  15.591  0.0595 -0.2012 -0.1601
 9153W        W29433   1.621   8.171   1.571  0.2225  0.2686 -0.2125
 9154W        W29434   8.287  10.419  12.857 -0.0762  0.1784 -0.1542
 9155W        W29435  12.382   7.961  15.516  0.1349  0.1127 -0.0726
 9156W        W29436   9.629  16.178  12.153  0.0012  0.1145  0.0421
 9157W        W29437   2.981  14.420  14.041  0.0680 -0.1337  0.0105
 9158W        W29438   0.859  17.060  12.064 -0.0069  0.2350  0.1317
 9159W        W29439   2.155   9.101   4.164 -0.3836 -0.0474  0.2270
 9160W        W29440   9.619  17.303  14.185  0.1216  0.4786 -0.1423
 9161W        W29441  12.333   2.081   1.992  0.0543  0.3090  0.1909
 9162W        W29442   3.673  10.748  12.060  0.0892 -0.4119  0.3504
 9163W        W29443  14.935   8.021   0.764 -0.2460 -0.0827 -0.0447
 9164W        W29444   4.782  14.050  13.195  0.0200 -0.0977 -0.0400
 9165W        W29445  13.601   1.893   1.899 -0.2022  0.3555  0.0215
 9166W        W29446  15.364  17.231   2.120  0.0907  0.0291 -0.2164
 9167W        W29447   8.803   4.375   0.803 -0.1199 -0.0247 -0.0785
 9168W        W29448  13.042  17.443   3.559 -0.1923  0.0542 -0.0845
 9169W        W29449  17.554  16.378   0.063  0.2512  0.1300 -0.4177
 9170W        W29450   0.512  17.662   0.449  0.1619 -0.1015 -0.2981
 9171W        W29451   8.888   6.461  11.799  0.3172  0.0772 -0.4155
 9172W        W29452   6.794  12.961  15.899  0.2037 -0.1050  0.0664
 9173W        W29453   9.694   1.435   1.252 -0.1032  0.0661  0.0152
 9174W        W29454  11.466  13.210   3.894 -0.0029  0.0377  0.0997
 9175W        W29455  14.383   5.965   3.154  0.0689 -0.2590 -0.4701
 9176W        W29456   7.847  12.982   4.882  0.1224  0.1152  0.4223
 9177W        W29457  11.719   9.230  14.825 -0.1514 -0.0007 -0.2181
 9178W        W29458   5.185   5.542   4.588 -0.2621  0.0596 -0.3416
 9179W        W29459  12.518  15.509  16.636 -0.1389 -0.0769  0.1066
 9180W        W29460  11.159   1.559   0.648 -0.2340 -0.3906 -0.1147
 9181W        W29461  14.368  17.875  14.168 -0.0753  0.0261  0.3263
 9182W        W29462  10.633  14.990  16.069 -0.2103  0.1047  0.3635
 9183W        W29463  10.105  17.248   4.489 -0.3877 -0.0401 -0.1392
 9184W        W29464   2.997  11.637   0.143 -0.0604  0.3879  0.2871
 9185W        W29465   9.152  17.165   1.364  0.0276  0.1555  0.0245
 9186W        W29466   0.733   8.361   1.416  0.1173  0.0022  0.0582
 9187W        W29467   2.797   5.172   2.250  0.0094 -0.0480  0.0640
 9188W        W29468  17.005   9.191   3.825 -0.1484 -0.0371  0.1728
 9189W        W29469   3.350  13.907  13.912  0.1804  0.5549 -0.0267
 9190W        W29470   8.856   5.538  12.697 -0.2635 -0.2953  0.2556
 9191W        W29471   4.124  13.808  14.628  0.0471 -0.0936 -0.2426
 9192W        W29472  16.348   8.581   3.941  0.4154 -0.0307  0.2016
 9193W        W29473  12.374  13.976   3.722 -0.0668  0.1829 -0.0663
 9194W        W29474  10.945   8.027  12.647 -0.1525 -0.0171  0.0163
 9195W        W29475   1.646   7.477   4.353 -0.1527  0.0871  0.0558
 9196W        W29476   5.401  10.273   3.998 -0.0593  0.0916 -0.0905
 9197W        W29477   6.420   5.168   2.345 -0.0605 -0.1877 -0.0399
 9198W        W29478  15.704  14.092  15.321  0.0594 -0.1667  0.1675
 9199W        W29479   8.025   7.997  12.789  0.2285  0.2587 -0.1534
 9200W        W29480  17.693  12.995  14.002 -0.1550 -0.3753 -0.0740
 9201W        W29481   9.740   2.995  16.400  0.0744 -0.2916 -0.1063
 9202W        W29482   6.517  15.025  12.362  0.0624 -0.3358  0.2684
 9203W        W29483  12.939   6.277   1.297 -0.0368  0.1549  0.0810
 9204W        W29484  10.073   2.932   1.921  0.0718 -0.1118 -0.1867
 9205W        W29485   0.579  15.845   0.249 -0.0441 -0.0832 -0.0781
 9206W        W29486  16.609  15.932  12.929  0.1115  0.2803 -0.0042
 9207W        W29487  16.073  11.317   1.316  0.1713  0.2043  0.0747
 9208W        W29488  14.833   6.169  15.418 -0.0135  0.0441 -0.4376
 9209W        W29489  16.110   4.247   2.237  0.1771  0.1433 -0.1626
 9210W        W29490   7.781   1.577  12.818 -0.2211 -0.1411  0.2762
 9211W        W29491  16.426  10.983   2.240  0.8118 -0.1276 -0.0860
 9212W        W29492   5.025   9.902  14.562  0.0491 -0.1609 -0.0258
 9213W        W29493  16.070   1.567  15.794 -0.0422  0.0385  0.4421
 9214W        W29494   2.622  15.300   1.283  0.4722  0.1792 -0.1810
 9215W        W29495   0.454  10.503  14.335 -0.0282  0.0652  0.1570
 9216W        W29496  16.689   6.323   2.056 -0.1606  0.2268  0.1470
 9217W        W29497  12.950   2.405   1.210 -0.2070 -0.3567 -0.0627
 9218W        W29498  16.589  15.482   3.569 -0.1747 -0.2026 -0.2415
 9219W        W29499   7.079   1.456   0.099  0.1842 -0.1241  0.0725
 9220W        W29500   0.212   3.932   0.734  0.1630 -0.1656  0.2862
 9221W        W29501  11.062   9.523  12.025 -0.1314  0.0018 -0.1808
 9222W        W29502   1.126  16.405  12.680 -0.1212  0.1027  0.1727
 9223W        W29503   2.351  11.702   4.225 -0.1561 -0.1409  0.0499
 9224W        W29504  15.897   7.835   1.921 -0.2318  0.0826 -0.0594
 9225W        W29505   6.571   0.884  13.041 -0.1053  0.1416 -0.0921
 9226W        W29506   1.339  11.366   0.639  0.1003 -0.0827  0.2111
 9227W        W29507  10.548  10.525  13.786 -0.0593 -0.3104  0.3425
 9228W        W29508   2.445   6.332   0.451  0.1148  0.2359 -0.0513
 9229W        W29509   7.818  13.913  13.540  0.0090  0.2909 -0.1957
 9230W        W29510   0.120  10.022  16.077  0.0748 -0.2939  0.2255
 9231W        W29511   1.512   6.416  14.718  0.2287  0.1443  0.1532
 9232W        W29512  12.177   5.451   4.598  0.3001  0.1624 -0.0004
 9233W        W29513   1.926  14.879   2.526  0.0546  0.1336 -0.0333
 9234W        W29514  13.586  15.503   0.969 -0.2659 -0.1586  0.1787
 9235W        W29515   3.605  17.807   0.058  0.0455 -0.2596 -0.1736
 9236W        W29516  10.069   0.706  13.205 -0.3287  0.0615 -0.1092
 9237W        W29517  10.214   9.462  13.636  0.1161  0.2720 -0.1911
 9238W        W29518   2.525  16.857  13.198 -0.0701  0.0095 -0.1651
 9239W        W29519  17.257   7.208   3.912  0.3538  0.4319 -0.2177
 9240W        W29520  10.866  15.441  14.377  0.0414  0.1751  0.0882
 9241W        W29521  14.509  13.092  13.631 -0.4100 -0.2995  0.2930
 9242W        W29522  13.527   1.108   0.338  0.1838  0.2365  0.1395
 9243W        W29523   8.091   9.632   4.031  0.2748  0.0227  0.0001
 9244W        W29524   2.700   1.725  14.805  0.2699 -0.0906 -0.0462
 9245W        W29525   9.987  14.172  14.162  0.1149 -0.2572 -0.1196
 9246W        W29526   1.266  10.540   4.462  0.0945  0.3323 -0.2862
 9247W        W29527   1.057  12.352  14.356 -0.1173 -0.0539  0.1311
 9248W        W29528  15.225  17.780   3.891  0.1739  0.0237 -0.1408
 9249W        W29529   4.407  15.013  16.358 -0.0802 -0.0518 -0.0591
 9250W        W29530  10.579  17.430  13.242  0.2130  0.1045  0.2236
 9251W        W29531  13.968  11.042   3.856 -0.1386  0.0132  0.0943
 9252W        W29532   5.182   8.188   2.733 -0.0855 -0.3330  0.1433
 9253W        W29533  13.742  16.633   0.414 -0.0728 -0.1670  0.0228
 9254W        W29534  15.129   6.438  15.915 -0.0877 -0.1109  0.0799
 9255W        W29535  12.045   5.384  15.178 -0.1027 -0.0097 -0.0283
 9256W        W29536  10.631  13.497   0.382 -0.0741  0.0984 -0.2214
 9257W        W29537   3.139  17.390   3.289 -0.0200  0.2815 -0.1182
 9258W        W29538   4.533  11.987   0.778  0.2138  0.1572 -0.0732
 9259W        W29539  15.755   2.095   2.188 -0.1441  0.1728 -0.2916
 9260W        W29540  11.085  11.145  12.582  0.0387  0.0009  0.1424
 9261W        W29541   5.562  14.152  14.613  0.1614  0.1245  0.2533
 9262W        W29542  11.086   1.055   2.963  0.2182  0.1949  0.1805
 9263W        W29543   0.482   7.859   0.919  0.1285  0.1463 -0.0463
 9264W        W29544   4.942   7.919   4.120  0.0830 -0.0290  0.0846
 9265W        W29545   0.827   8.543   4.148  0.1511 -0.3282 -0.1629
 9266W        W29546  14.771  10.797  12.201  0.1295 -0.2770  0.0717
 9267W        W29547  14.207  16.535  16.608  0.1918  0.0221  0.2182
 9268W        W29548   2.704   8.832   3.894 -0.1341 -0.0729  0.2902
 9269W        W29549   5.206   7.797  15.160 -0.0577 -0.0579 -0.0458
 9270W        W29550   9.926  13.292  14.005 -0.1353 -0.1111  0.1957
 9271W        W29551   0.561  12.013   4.298  0.1195  0.1142 -0.0528
 9272W        W29552  16.262  14.801  14.000  0.1015  0.1326  0.1172
 9273W        W29553   3.566   4.694   4.664 -0.0492  0.3230 -0.0754
 9274W        W29554   6.290  12.460  12.616 -0.3874  0.1661 -0.0477
 9275W        W29555   1.078  10.419  15.547  0.5619  0.4243  0.5936
 9276W        W29556   1.822   6.499   2.158 -0.0733  0.1562 -0.0082
 9277W        W29557   8.619   4.251   2.335 -0.0011 -0.0368  0.2967
 9278W        W29558   1.424  15.562  15.431  0.1590 -0.1056 -0.3239
 9279W        W29559  12.560   3.509  16.546  0.2037  0.0261  0.1137
 9280W        W29560   4.618  14.436  15.155  0.0654 -0.3795  0.1057
 9281W        W29561   1.887   8.563   1.799 -0.1202  0.2115  0.0171
 9282W        W29562   6.507   2.935   1.115 -0.2974 -0.0896  0.0199
 9283W        W29563   3.725   3.640  12.622  0.3205  0.3343  0.2168
 9284W        W29564   3.392  10.009   2.578 -0.3259  0.0778  0.0857
 9285W        W29565  11.890   2.323  16.506  0.0559  0.1578 -0.1631
 9286W        W29566   1.449  10.145  13.710 -0.2663  0.0505 -0.1016
 9287W        W29567  13.688  14.812  15.106  0.0814  0.1233 -0.2731
 9288W        W29568   7.607   6.793  15.242 -0.0690  0.0124 -0.0599
 9289W        W29569  17.546   8.596   4.608 -0.3826 -0.0747  0.1831
 9290W        W29570  12.303  10.171   0.310  0.4518  0.1051  0.1760
 9291W        W29571  12.799  12.662  12.399  0.1448  0.1244 -0.0081
 9292W        W29572   2.433  16.437  15.752 -0.0117 -0.2790 -0.4491
 9293W        W29573   1.081   7.235   5.026  0.3527 -0.1622  0.1654
 9294W        W29574   1.669   4.484  13.162 -0.3134  0.1370  0.0166
 9295W        W29575  15.135  16.798   2.722 -0.0251  0.0526  0.1083
 9296W        W29576  15.358  15.891  15.327  0.0722 -0.0286  0.2965
 9297W        W29577  17.103  12.019  16.121 -0.5561  0.0260  0.2326
 9298W        W29578  11.739   3.787   0.457 -0.0477 -0.0181  0.0059
 9299W        W29579  14.182   9.175  14.188 -0.0109  0.1942  0.0921
 9300W        W29580  13.228   4.065   2.353  0.1907 -0.0120  0.0055
 9301W        W29581  12.243   4.825   1.737  0.2624 -0.1145 -0.0756
 9302W        W29582   2.677   2.202  14.540 -0.0762 -0.1063 -0.1174
 9303W        W29583   7.677  12.945  13.197 -0.1790  0.1137 -0.1175
 9304W        W29584   3.837   6.879   3.162 -0.1405 -0.4442  0.0296
 9305W        W29585  13.669   3.822   1.877 -0.3685  0.1840 -0.1219
 9306W        W29586  17.498  12.268  16.422 -0.1654 -0.2223  0.1440
 9307W        W29587   1.742  15.203  15.260 -0.0281 -0.1830  0.0494
 9308W        W29588   7.389  10.756  14.252 -0.1394  0.2293  0.1291
 9309W        W29589   2.087  15.250   4.092  0.2000 -0.0501  0.1739
 9310W        W29590   6.354   5.474  14.148 -0.1197 -0.1872 -0.1518
 9311W        W29591   6.869   2.595   0.164  0.0919  0.1523  0.2454
 9312W        W29592  15.810   8.136   3.316  0.0616 -0.1726 -0.1217
 9313W        W29593   6.086   9.757  13.340 -0.1417 -0.2629 -0.1340
 9314W        W29594   6.588  17.121   1.130 -0.3824 -0.1046  0.1818
 9315W        W29595  13.882   3.856  15.139  0.1057  0.3083 -0.4114
 9316W        W29596  17.537   3.330   0.570 -0.4398  0.0025 -0.1651
 9317W        W29597   7.902  10.383  15.877 -0.0672 -0.4830 -0.1081
 9318W        W29598  10.740   5.198   1.842  0.1139 -0.1880 -0.2317
 9319W        W29599  15.960  13.256  14.739 -0.0327  0.0046  0.3371
 9320W        W29600   9.197   4.076   2.931  0.2254  0.1672 -0.0949
 9321W        W29601  17.896  15.543  13.724 -0.0133  0.4350 -0.1056
 9322W        W29602   2.624  16.371   1.885  0.0372  0.2070  0.1889
 9323W        W29603  15.065  15.193  16.324  0.0101  0.1330 -0.2332
 9324W        W29604   7.120   3.944  12.900  0.0373 -0.0654 -0.0342
 9325W        W29605   1.180   6.953   2.619  0.0968  0.0104 -0.1930
 9326W        W29606  15.008  10.715   4.654 -0.1597 -0.0020  0.2481
 9327W        W29607  12.786   9.922   0.427  0.0416 -0.0997  0.3416
 9328W        W29608   8.315   4.496   3.138  0.1026 -0.0361  0.1859
 9329W        W29609   6.453   9.304  12.672 -0.1584  0.1348  0.2809
 9330W        W29610   6.192  14.185   1.013  0.2575  0.1481 -0.0129
 9331W        W29611  12.996  11.945   4.686  0.0893 -0.0823 -0.0167
 9332W        W29612   9.122   4.519  14.640  0.0893 -0.0804 -0.0730
 9333W        W29613  17.001  10.842  13.209  0.0919  0.2781 -0.0143
 9334W        W29614  15.624   2.611  12.812  0.0566  0.2402  0.3400
 9335W        W29615   8.006   7.352  14.907  0.3727 -0.2361 -0.0692
 9336W        W29616  14.358  11.550   1.098  0.3101  0.2423 -0.0920
 9337W        W29617   8.005  12.462  14.821 -0.0826  0.3512  0.0801
 9338W        W29618  10.356  15.562  13.748  0.0568  0.1868 -0.0674
 9339W        W29619  11.990   4.829   3.781 -0.2793  0.2192  0.0594
 9340W        W29620   1.806  14.944   3.775 -0.2675 -0.1020  0.1499
 9341W        W29621   6.392  10.264  16.443 -0.0912  0.0255 -0.1087
 9342W        W29622  15.986   9.380   2.749 -0.3448 -0.1380  0.1639
 9343W        W29623  13.328   0.148  15.323  0.1881  0.1126 -0.3266
 9344W        W29624   4.460   8.319  14.055 -0.1047  0.2267  0.0085
 9345W        W29625   3.080  14.962   2.429 -0.0015 -0.0564  0.0274
 9346W        W29626  17.176  11.726   2.714  0.0399  0.1229  0.4739
 9347W        W29627   1.113  12.504   0.686 -0.2360 -0.0327 -0.0666
 9348W        W29628   8.886  15.461  14.996  0.0800 -0.0605  0.0609
 9349W        W29629   1.968  12.817  15.719  0.0447  0.1921  0.1733
 9350W        W29630   9.204   5.594   2.962  0.0444  0.0228 -0.0923
 9351W        W29631   8.346   3.972   4.599  0.0747  0.3035 -0.2100
 9352W        W29632  16.148   2.937   4.795  0.1384 -0.1410 -0.0911
 9353W        W29633  12.045   2.691   1.151  0.1012 -0.1517  0.0970
 9354W        W29634   0.579   6.708   4.973 -0.0370 -0.0374 -0.2663
 9355W        W29635  16.415   7.325  14.713  0.1586 -0.0708  0.0638
 9356W        W29636   3.852   7.520   4.774 -0.2271  0.1110 -0.1630
 9357W        W29637  17.409  15.360   0.873  0.0849  0.0810 -0.0453
 9358W        W29638   5.029  17.554   0.278  0.1734  0.1290 -0.1679
 9359W        W29639   3.765  16.972   4.876  0.0902  0.1048 -0.0318
 9360W        W29640   6.472   8.470   1.525 -0.1085  0.1751  0.1228
 9361W        W29641   6.843  10.201  12.344  0.1979 -0.1122 -0.0300
 9362W        W29642  16.562   9.385   0.080 -0.0099  0.1018 -0.0138
 9363W        W29643   4.770   1.509  12.854  0.3358  0.2711 -0.3229
 9364W        W29644  10.991   6.517  12.242  0.0080  0.0026  0.3786
 9365W        W29645  10.078  16.109  15.452 -0.0221  0.1262  0.1742
 9366W        W29646   0.845   4.147  14.463 -0.1688 -0.0941 -0.1339
 9367W        W29647   3.561   0.416   1.540 -0.3157  0.1282  0.1102
 9368W        W29648  11.642   5.177  13.873 -0.2014  0.1600 -0.2180
 9369W        W29649  15.389   4.341   0.873  0.0295 -0.1209 -0.2171
 9370W        W29650  14.364   2.204  15.324  0.4581  0.0272 -0.0038
 9371W        W29651  17.895  10.507  14.575 -0.1434  0.0143  0.2765
 9372W        W29652   5.522   2.916  15.979  0.1021  0.1667  0.1282
 9373W        W29653  17.620  14.023  15.982 -0.0407  0.0741 -0.3268
 9374W        W29654  12.094   5.886   1.061  0.0089 -0.2334 -0.1647
 9375W        W29655  14.570   3.794  12.133 -0.2622 -0.1026  0.0908
 9376W        W29656   8.289  14.052  15.717 -0.1143 -0.0287 -0.0995
 9377W        W29657  12.190   8.325  12.418  0.2891 -0.1694 -0.1158
 9378W        W29658   9.729   8.394   1.820  0.0362  0.0356  0.1713
 9379W        W29659   8.348  15.117   4.001 -0.3854  0.2184  0.0702
 9380W        W29660  17.506  16.200  14.858  0.0849  0.1605 -0.1404
 9381W        W29661   9.427   2.673  16.551 -0.0456 -0.1239 -0.0794
 9382W        W29662  12.971   2.745  11.511  0.1955 -0.1672  0.0143
 9383W        W29663   2.575   4.157  15.667 -0.0885  0.1477 -0.2838
 9384W        W29664   1.882   0.774  12.428 -0.0731 -0.0773  0.0123
 9385W        W29665  14.382  12.994  15.771  0.0984  0.4917 -0.1069
 9386W        W29666  16.674   8.918  15.661 -0.2581  0.1544 -0.0763
 9387W        W29667   6.280  16.361  12.052  0.2197  0.2101 -0.1228
 9388W        W29668   8.147   7.215   2.529 -0.0503  0.0722 -0.0469
 9389W        W29669  17.319   5.361   0.813  0.0469 -0.0625  0.1942
 9390W        W29670   5.886  10.978   3.959  0.1903 -0.0674 -0.1205
 9391W        W29671   8.434   4.246   1.186  0.1202 -0.0533  0.0220
 9392W        W29672  15.135   7.287   2.032 -0.0110 -0.0384 -0.2641
 9393W        W29673   6.751  11.345   3.669 -0.0118  0.0766  0.2481
 9394W        W29674  17.607  14.085   3.977 -0.0423  0.1166 -0.3410
 9395W        W29675  14.124   3.465   1.320  0.1865  0.1328 -0.0904
 9396W        W29676   1.601   7.943  11.673 -0.2484 -0.0322  0.1681
 9397W        W29677  17.644   4.148   4.248  0.1877 -0.0868  0.2149
 9398W        W29678  10.335   2.963   9.813  0.0384 -0.2066 -0.2666
 9399W        W29679   5.684   7.450   3.945  0.0293 -0.2693 -0.0862
 9400W        W29680  11.316   2.309   2.514 -0.0195  0.0397 -0.0982
 9401W        W29681   6.399  10.014  14.943  0.2406 -0.1151  0.3513
 9402W        W29682  16.714   2.578  12.843  0.0451 -0.0463  0.1536
 9403W        W29683  12.237   5.013   2.253 -0.0842 -0.1220  0.0907
 9404W        W29684   6.330  12.318  14.340  0.4314 -0.1201  0.1219
 9405W        W29685   1.341  12.624   2.399 -0.0696  0.3079 -0.0469
 9406W        W29686  13.304   0.415   3.226 -0.1191 -0.0719  0.0408
 9407W        W29687  11.047  14.796  15.117 -0.3615  0.1070  0.0561
 9408W        W29688   9.470   9.513  13.984  0.2103  0.1854 -0.3526
 9409W        W29689   9.970   1.520  14.581 -0.1626 -0.1774  0.0801
 9410W        W29690   2.302   6.988  13.943 -0.0413 -0.1075 -0.0305
 9411W        W29691   1.727  15.421  11.802  0.3247  0.0944  0.0910
 9412W        W29692   1.489  12.955   3.314  0.0528  0.2784  0.0910
 9413W        W29693   0.651   6.328   3.077  0.0268  0.0454 -0.0872
 9414W        W29694   4.350  14.661  14.400  0.0702  0.3014 -0.2181
 9415W        W29695   3.372   7.821   0.926 -0.0332 -0.1649  0.2021
 9416W        W29696  10.870  17.793   0.363  0.3369  0.1857  0.1865
 9417W        W29697   4.265  11.915   2.501  0.0189  0.0669  0.0824
 9418W        W29698   5.156   8.909  12.072 -0.1419  0.0755  0.1434
 9419W        W29699  10.779  16.896   2.761 -0.2915  0.0206 -0.0688
 9420W        W29700   9.402  12.754  15.491 -0.0342  0.2582 -0.2867
 9421W        W29701   3.606   6.925   1.784  0.2023 -0.0017  0.0145
 9422W        W29702   0.206  17.951   0.150  0.0490  0.0072 -0.1674
 9423W        W29703   8.154  11.336   0.148  0.1218  0.1745  0.1935
 9424W        W29704  12.826  11.367   0.740  0.1367 -0.2387  0.1493
 9425W        W29705   4.295  13.094  15.166  0.0159  0.0965  0.0949
 9426W        W29706  14.320  10.684  13.262  0.2343 -0.0518  0.1233
 9427W        W29707   1.335  11.955  14.177  0.0074  0.1292 -0.1930
 9428W        W29708   4.359  15.253  13.574 -0.2228 -0.1460 -0.2284
 9429W        W29709   5.653  13.709  12.655 -0.1432  0.3133  0.0034
 9430W        W29710   6.481  10.530  12.227 -0.1852  0.0402 -0.0228
 9431W        W29711  16.363   8.657   4.454 -0.1271  0.5993  0.0561
 9432W        W29712  10.600   4.515  12.612  0.0498 -0.1382 -0.0663
 9433W        W29713  17.235   5.134   0.357 -0.0580 -0.0711  0.0559
 9434W        W29714   8.697   9.386   0.115  0.0186 -0.5337 -0.1475
 9435W        W29715   7.088   5.746   1.508  0.1171  0.0451 -0.2895
 9436W        W29716   6.930  17.320   1.421  0.0174 -0.0573 -0.1469
 9437W        W29717  11.431   1.840  14.399  0.0609  0.0590  0.2688
 9438W        W29718  15.038   3.608   2.013  0.1700  0.2292  0.2130
 9439W        W29719   9.254   0.790  14.859  0.4081 -0.0883  0.0320
 9440W        W29720  13.358  11.016  14.806  0.2110 -0.1193  0.0091
 9441W        W29721  15.205  15.933  12.508  0.1085  0.0517 -0.1077
 9442W        W29722  12.671   7.759   1.449 -0.0083  0.0464 -0.0154
 9443W        W29723   1.631   1.290   2.368  0.0994  0.3250  0.2429
 9444W        W29724  12.900  11.920  13.714  0.0805  0.1701 -0.0824
 9445W        W29725   8.027  15.667   2.469 -0.0471 -0.1389  0.0083
 9446W        W29726  17.095  11.061  15.833  0.0211 -0.0101 -0.3521
 9447W        W29727  10.850  12.451   0.529 -0.2334 -0.0213 -0.1593
 9448W        W29728   4.495  11.988  12.953 -0.0435  0.0086 -0.1160
 9449W        W29729  10.752  11.939  13.542  0.3011 -0.0226 -0.1786
 9450W        W29730   5.439  10.568   2.385  0.2738  0.2731  0.2667
 9451W        W29731   6.934  11.824   0.587  0.0119  0.1063  0.0579
 9452W        W29732  14.841   5.996  13.341 -0.0466 -0.1025 -0.0534
 9453W        W29733   6.824  10.090   0.972 -0.0209 -0.5081  0.1276
 9454W        W29734  17.850   2.268   2.866 -0.1941  0.0540  0.0490
 9455W        W29735   4.500   2.149   3.657 -0.1672 -0.0250 -0.0817
 9456W        W29736  13.594  14.943  16.328 -0.0634  0.3422  0.0107
 9457W        W29737  10.342   5.426  15.122 -0.2005 -0.1195 -0.1253
 9458W        W29738   8.657   6.103  12.074  0.1097 -0.0959  0.1158
 9459W        W29739  12.084   4.838  15.163 -0.0888 -0.1237 -0.1986
 9460W        W29740   9.726  13.757  14.073 -0.2596 -0.0589  0.2398
 9461W        W29741   4.160  10.902   4.424  0.0341 -0.0700 -0.0217
 9462W        W29742   6.251   9.408   2.322 -0.1215 -0.0890  0.0323
 9463W        W29743   5.075  16.715  12.267 -0.0648 -0.1796  0.1690
 9464W        W29744  14.930   2.707  13.547 -0.1144 -0.0368  0.1404
 9465W        W29745   3.975   8.716  14.890  0.0457 -0.2345 -0.1517
 9466W        W29746  15.683   7.897   2.412 -0.2799  0.0595  0.0190
 9467W        W29747  11.854   6.308   0.025 -0.1972  0.1705 -0.1039
 9468W        W29748  14.696   6.750   3.432 -0.0411  0.2981 -0.0070
 9469W        W29749  15.082  17.051  13.917 -0.1644  0.0142  0.0294
 9470W        W29750  15.104   5.100   1.566  0.1651  0.2325 -0.1451
 9471W        W29751   5.491   9.007   1.927 -0.1766  0.2568 -0.0600
 9472W        W29752  11.356   6.934   2.726  0.2904  0.2457 -0.2084
 9473W        W29753   4.608  16.665   4.274 -0.1102 -0.1531  0.1025
 9474W        W29754  17.905  11.380  14.803  0.0995 -0.1539 -0.2359
 9475W        W29755   5.124  15.173  14.076 -0.1931 -0.2857  0.1426
 9476W        W29756  11.462  12.068   2.500 -0.0461 -0.0097 -0.0101
 9477W        W29757   5.416   8.751  15.156 -0.4553 -0.2701  0.0222
 9478W        W29758   9.137  15.953   1.199  0.0214  0.3166 -0.1228
 9479W        W29759   4.355   5.668  13.655 -0.0960 -0.0711 -0.0723
 9480W        W29760  16.854  14.477  16.429 -0.1724 -0.0536  0.2308
 9481W        W29761   5.101   9.411  14.390 -0.1667 -0.1621  0.2378
 9482W        W29762   1.156   1.936   3.028 -0.1210 -0.0049  0.2244
 9483W        W29763   0.285   9.565   3.004  0.2640 -0.0794  0.1648
 9484W        W29764  13.570  15.362  14.714  0.0738  0.1865  0.0862
 9485W        W29765  14.893  15.602   1.872 -0.1568 -0.1732  0.0676
 9486W        W29766   6.815  16.043   1.008  0.0903 -0.1765  0.0314
 9487W        W29767   2.031  17.621   0.100  0.1892  0.0144  0.0787
 9488W        W29768   9.348  14.137  15.329  0.0741  0.0179 -0.0117
 9489W        W29769   1.995   8.192   4.324  0.0255  0.3110 -0.0948
 9490W        W29770   9.877   6.623   1.620 -0.0437 -0.4016 -0.2679
 9491W        W29771   9.481  13.847  12.272  0.1316 -0.1415 -0.2166
 9492W        W29772   1.847  13.625  14.219  0.0498 -0.3466 -0.2158
 9493W        W29773  14.614   5.134   3.773 -0.2411 -0.2034 -0.3328
 9494W        W29774   1.221   4.521   3.069  0.1003  0.0338 -0.1955
 9495W        W29775   3.639  15.731  14.501 -0.1226  0.1386 -0.0093
 9496W        W29776  11.742   1.788  12.294 -0.2782  0.0542 -0.1135
 9497W        W29777  10.521  10.701   2.049  0.1601  0.2839  0.3828
 9498W        W29778  11.831   1.010   1.260  0.1432  0.2383 -0.1767
 9499W        W29779   8.822  12.838   4.579 -0.1413 -0.0095  0.0321
 9500W        W29780  16.431   9.810  15.251 -0.1780  0.0819  0.0634
 9501W        W29781   6.362  14.057   4.263  0.0601 -0.0654 -0.1177
 9502W        W29782  15.188   6.286   0.375 -0.0213  0.0491  0.1281
 9503W        W29783  14.253   2.544   1.747 -0.1995  0.0440  0.1361
 9504W        W29784   5.047  15.946  11.963 -0.2374 -0.0953 -0.1587
 9505W        W29785   1.335   9.359  13.497 -0.0118 -0.2796  0.0023
 9506W        W29786  10.815   6.147   2.128  0.0115  0.1226 -0.2084
 9507W        W29787   4.751   6.775   2.094 -0.1710 -0.1242  0.0490
 9508W        W29788  13.278   8.043  11.840  0.0345  0.1494 -0.4115
 9509W        W29789   6.290  17.780  13.892 -0.0575 -0.3614  0.1692
 9510W        W29790  10.045   2.022   4.737  0.1215 -0.1832  0.2323
 9511W        W29791   1.874   9.518   4.003 -0.3197 -0.1857 -0.1017
 9512W        W29792   3.688  10.230   0.478 -0.0535  0.1364 -0.1431
 9513W        W29793  14.465   2.096   1.617  0.2115 -0.0359 -0.2232
 9514W        W29794   7.657   6.495  12.977  0.1356 -0.0491  0.0855
 9515W        W29795   9.455   0.834   2.918 -0.1709 -0.0441  0.0267
 9516W        W29796   7.767  11.804   4.917  0.1654 -0.2540 -0.0101
 9517W        W29797   2.995   7.251  12.696 -0.2458  0.1125  0.0046
 9518W        W29798   9.369  14.700  14.114  0.0273  0.0938 -0.0749
 9519W        W29799   7.037  16.334  11.510 -0.3021 -0.4009  0.1156
 9520W        W29800   8.697  10.493   1.616  0.1753  0.0151 -0.2629
 9521W        W29801  12.304   5.819   0.490 -0.0014 -0.1193 -0.3127
 9522W        W29802   9.470  17.900  16.531  0.0166 -0.1105  0.2747
 9523W        W29803  11.613   3.702  16.356 -0.1172  0.0500  0.0046
 9524W        W29804   0.317  15.804   3.183  0.0042 -0.0429  0.1110
 9525W        W29805  10.934   9.840  16.629  0.0720  0.1771  0.0878
 9526W        W29806  13.314   2.533  15.248 -0.0383 -0.1847  0.1122
 9527W        W29807  13.601   8.736   1.982 -0.2511 -0.0209 -0.0059
 9528W        W29808   1.962  16.230  15.665 -0.1661 -0.0980  0.0250
 9529W        W29809   0.719   6.594  15.564  0.3039 -0.0392  0.0870
 9530W        W29810   0.098  12.819  15.771  0.3845  0.1540 -0.0035
 9531W        W29811   8.732  16.720   0.868 -0.2837 -0.0009 -0.0682
 9532W        W29812   6.027   0.879   2.788 -0.1121  0.0100  0.2558
 9533W        W29813   3.440   0.691   2.895  0.0760 -0.0763  0.2255
 9534W        W29814   5.210  14.303  14.005  0.1547 -0.2342  0.1253
 9535W        W29815   7.003   4.916  14.622  0.0208  0.1966 -0.0490
 9536W        W29816  11.860  13.782   3.645 -0.0857 -0.2020 -0.3092
 9537W        W29817  14.424   2.014   1.019  0.0601 -0.0425 -0.0245
 9538W        W29818   8.261  13.450  13.214 -0.2318 -0.0592  0.0078
 9539W        W29819   5.675  12.325   0.652 -0.0125  0.0612  0.0743
 9540W        W29820   3.545   6.110   2.279 -0.0789  0.3355 -0.0198
 9541W        W29821  13.792  17.070  12.109  0.0398  0.0305 -0.3092
 9542W        W29822  16.007  17.806  12.106  0.0810 -0.2374  0.1249
 9543W        W29823  11.879  11.953   2.874  0.2859 -0.1089  0.0768
 9544W        W29824   6.467  13.546  12.865 -0.3157 -0.3193  0.0356
 9545W        W29825  14.356  16.826   3.620  0.0096 -0.0596  0.2063
 9546W        W29826   5.379   6.406   4.192 -0.0838  0.0772 -0.1823
 9547W        W29827   0.922   4.383  12.656 -0.1690  0.3252 -0.1105
 9548W        W29828  12.428  11.520   3.246  0.1321 -0.2451 -0.0088
 9549W        W29829   3.960   1.570   0.547 -0.1298  0.1193  0.1771
 9550W        W29830  11.968  14.199  15.835  0.1696  0.3020  0.0965
 9551W        W29831  17.354  12.097   3.577 -0.3773 -0.2085 -0.0840
 9552W        W29832   6.370  10.912   2.148  0.1867 -0.2456  0.2148
 9553W        W29833  11.000   4.488  15.026  0.1454 -0.2670 -0.0281
 9554W        W29834   1.925   7.424  13.873  0.0784 -0.0874 -0.2373
 9555W        W29835  11.910   6.787  12.893  0.0373 -0.0883  0.1744
 9556W        W29836   1.445  15.589   0.797  0.3047 -0.0361  0.1203
 9557W        W29837   1.570   4.878  12.812  0.0575 -0.1900 -0.4759
 9558W        W29838  17.548   6.596   2.902  0.1828  0.1775  0.2268
 9559W        W29839  17.852   0.699   1.127  0.1492  0.0308  0.1086
 9560W        W29840   2.433   7.917  13.945  0.0257  0.1430 -0.3449
 9561W        W29841  14.898  15.976  13.480 -0.1847 -0.0600 -0.1941
 9562W        W29842   0.036  17.058  15.702 -0.2993  0.1493 -0.0626
 9563W        W29843   9.495  11.308  15.357  0.2166 -0.0315  0.1523
 9564W        W29844   7.545  13.300  12.280 -0.2128 -0.0220  0.0962
 9565W        W29845   3.786   5.199   2.435 -0.0773  0.1045 -0.0546
 9566W        W29846   1.855   1.308   4.146  0.0837  0.1953 -0.2110
 9567W        W29847  13.883   7.502   4.713  0.4316  0.1718  0.1684
 9568W        W29848  12.272   3.774  13.911  0.0091  0.0825  0.1446
 9569W        W29849  12.010  16.586  15.961 -0.0488 -0.0409  0.0771
 9570W        W29850   8.070   6.657  13.847  0.3631  0.3146 -0.0330
 9571W        W29851   5.228  10.102   2.056 -0.1963 -0.3952 -0.2159
 9572W        W29852   4.147   7.026  15.089  0.1563 -0.0841  0.0061
 9573W        W29853   1.894   4.263   4.460  0.1131 -0.0833  0.0905
 9574W        W29854   9.886  12.932   1.340 -0.0190 -0.1819 -0.0976
 9575W        W29855  10.984  14.692  15.832  0.0108  0.1203  0.1468
 9576W        W29856   0.971  16.686   3.604 -0.2627  0.0817  0.1809
 9577W        W29857   7.448  16.096   3.690 -0.1637  0.3531  0.1190
 9578W        W29858  13.223   3.678   2.096 -0.2003 -0.2039  0.0398
 9579W        W29859   0.051   3.522   3.725 -0.1298  0.0390 -0.3030
 9580W        W29860  10.642   7.186   3.612  0.1779  0.3584  0.0223
 9581W        W29861  17.168   3.285  11.906 -0.0532 -0.0546  0.3187
 9582W        W29862  11.311   4.105  11.294 -0.1066 -0.3206 -0.0638
 9583W        W29863  16.092   3.737   0.066  0.1370 -0.0374  0.2107
 9584W        W29864   7.857   0.729  12.823  0.0058  0.0594 -0.1990
 9585W        W29865   5.984   0.048  13.336 -0.0675 -0.0623  0.1079
 9586W        W29866  13.236   8.925   2.377 -0.1723  0.5080 -0.0111
 9587W        W29867   9.496   4.835   2.371 -0.0650 -0.1928 -0.0489
 9588W        W29868  14.750   2.362  15.515 -0.2936 -0.2385  0.1799
 9589W        W29869  15.141  13.427   1.146  0.1222  0.3211  0.1363
 9590W        W29870  10.307  15.829   4.742 -0.2970  0.1287 -0.0244
 9591W        W29871  14.401  13.225   0.461 -0.1283 -0.0061  0.0906
 9592W        W29872  15.012  13.833   0.905  0.0282  0.1187  0.0979
 9593W        W29873   2.582   7.909  15.024  0.0983 -0.0184 -0.1506
 9594W        W29874  15.739   3.408   3.417  0.0393  0.4682  0.0586
 9595W        W29875  10.563  17.569  13.857  0.0258  0.1579 -0.1002
 9596W        W29876   4.511   2.520   2.882  0.2035  0.1357 -0.1310
 9597W        W29877  14.765   5.052   0.605  0.0602 -0.0389 -0.0993
 9598W        W29878  10.613  16.155   0.922  0.1681  0.0897 -0.2544
 9599W        W29879  12.433   6.534  12.009  0.3787 -0.3243 -0.0870
 9600W        W29880  13.852  12.072   3.404 -0.0985  0.0626  0.3145
 9601W        W29881   1.319  12.520   3.588  0.2633  0.1796  0.2042
 9602W        W29882  10.819   6.695   3.349  0.0365  0.1518  0.1478
 9603W        W29883   2.510   3.374  13.507 -0.0968 -0.2448 -0.2429
 9604W        W29884  15.242  17.563  13.877 -0.1382 -0.1500  0.0389
 9605W        W29885   5.059  15.853  12.492 -0.2566  0.1157 -0.2490
 9606W        W29886   8.901  16.911  13.791 -0.2814 -0.1950  0.0252
 9607W        W29887   4.656   0.222  14.235 -0.0316  0.1500 -0.2291
 9608W        W29888   6.418   3.170  15.667  0.0891  0.2256 -0.1918
 9609W        W29889  12.732   0.023  14.951  0.0556  0.0083 -0.0321
 9610W        W29890   2.898  11.289  12.839 -0.0844  0.2211 -0.0578
 9611W        W29891   9.342  13.677  16.533 -0.2798 -0.1032 -0.0425
 9612W        W29892   9.917  12.540  13.581  0.1596  0.2593  0.0277
 9613W        W29893   9.216  14.996  15.048  0.3370  0.1664  0.0297
 9614W        W29894   1.863   5.461  16.077  0.2646 -0.0510 -0.2435
 9615W        W29895  17.115   9.848   4.942  0.2156  0.1179 -0.2478
 9616W        W29896   4.254  14.556   1.854 -0.1488  0.0115 -0.0224
 9617W        W29897  10.347  12.652  15.624 -0.1625  0.2162  0.2432
 9618W        W29898   9.500   2.273  10.309  0.2562 -0.1881 -0.2890
 9619W        W29899   3.961  15.737  14.954 -0.0152 -0.1023  0.0718
 9620W        W29900   6.831  11.912   1.181  0.5258  0.4372 -0.0135
 9621W        W29901  11.879   3.863   1.659  0.4617 -0.1261  0.2251
 9622W        W29902  12.003   2.447  15.091 -0.0425 -0.2739  0.0952
 9623W        W29903   3.572   4.044  15.207 -0.0512  0.5546  0.0124
 9624W        W29904   4.027   2.057  14.277  0.0663 -0.1203 -0.1263
 9625W        W29905  15.330  17.034   1.363 -0.0592  0.1134 -0.0365
 9626W        W29906   9.328  14.827   4.149 -0.2091 -0.1777 -0.0869
 9627W        W29907  15.059  10.811   1.089 -0.3638 -0.2733 -0.4429
 9628W        W29908   0.382  11.078   0.861 -0.3422 -0.3225 -0.1807
 9629W        W29909   5.655  13.151   4.387 -0.1721  0.2160  0.2344
 9630W        W29910  13.514  17.436   2.119 -0.0543  0.0484  0.4534
 9631W        W29911   7.672  17.843  16.642  0.1918  0.3046  0.0893
 9632W        W29912  11.009  13.503   4.571  0.1084 -0.0746  0.4218
 9633W        W29913  13.508   3.435  15.037 -0.2383 -0.1274  0.0023
 9634W        W29914  15.333  14.693   4.660 -0.2400 -0.0049  0.0978
 9635W        W29915  13.817  12.430   5.187  0.0003 -0.2694 -0.0103
 9636W        W29916   4.838   2.845   3.158 -0.3025  0.1587 -0.1202
 9637W        W29917  16.556  11.822   4.114  0.0549  0.3464 -0.0283
 9638W        W29918  12.942  14.442  11.710  0.0886 -0.1853  0.2423
 9639W        W29919   8.837   5.819  11.705 -0.2078  0.0253 -0.2791
 9640W        W29920   3.781  12.983   0.767 -0.1004 -0.0535  0.2361
 9641W        W29921   9.409   9.834   0.416 -0.1136 -0.1499  0.0899
 9642W        W29922  17.173   1.769   0.855 -0.0377  0.1052 -0.0849
 9643W        W29923  12.981  16.546   3.163  0.0018  0.0759 -0.1299
 9644W        W29924  12.377  12.917  13.625  0.1547 -0.1573 -0.3752
 9645W        W29925   8.173  16.281  15.005  0.3389  0.1800  0.3101
 9646W        W29926   4.131  15.052  12.108  0.0444  0.1308 -0.0848
 9647W        W29927  14.407  16.252  14.224 -0.1524  0.0136 -0.0666
 9648W        W29928  10.548   5.672  12.937  0.1280  0.0184 -0.0302
 9649W        W29929  13.937   9.195   0.205 -0.0121  0.2966 -0.0599
 9650W        W29930   5.565  15.845   1.336 -0.2298  0.1536  0.3421
 9651W        W29931   6.199  16.885  13.682 -0.1133 -0.1598 -0.0850
 9652W        W29932  14.142   5.467  16.625 -0.0484  0.3464  0.1906
 9653W        W29933  12.579  13.807  14.638  0.0585 -0.0106  0.0601
 9654W        W29934   4.226   0.715   0.587 -0.1778 -0.1948 -0.4200
 9655W        W29935  11.310  13.910  12.460  0.2177 -0.2044 -0.1131
 9656W        W29936  14.085  15.598  15.842  0.0131  0.3596  0.1662
 9657W        W29937   3.567   6.036   3.337  0.2808 -0.1666  0.0124
 9658W        W29938   4.387  12.844   2.482 -0.1505 -0.3272  0.0185
 9659W        W29939   0.572   8.995   0.419 -0.1415  0.2236  0.0032
 9660W        W29940   7.939   8.845  12.555  0.0538  0.3405  0.0336
 9661W        W29941   5.228  15.658   4.137 -0.1987  0.0213 -0.1016
 9662W        W29942  11.779   4.551  15.441  0.1991  0.2248 -0.0943
 9663W        W29943   8.435   8.320   4.492 -0.0687  0.1841 -0.0359
 9664W        W29944   4.409  10.961   4.832  0.0725  0.3501  0.1419
 9665W        W29945   1.597   2.330  14.618  0.1624  0.0384  0.2873
 9666W        W29946   7.541  17.453   0.862  0.2021  0.2645 -0.0975
 9667W        W29947   8.949   7.682  14.054 -0.2561  0.0173  0.2432
 9668W        W29948  16.251   2.608   1.426  0.0059 -0.0034  0.3017
 9669W        W29949  15.813  11.929   3.681 -0.0795 -0.1715  0.0881
 9670W        W29950  15.777  12.182  15.635 -0.1975  0.0205 -0.1699
 9671W        W29951  16.117   7.733   3.357  0.1073  0.1500  0.0298
 9672W        W29952   9.587  10.812  14.205  0.3850  0.3235  0.1359
 9673W        W29953   4.273  13.258  13.163 -0.1759  0.0619 -0.0727
 9674W        W29954  10.150   9.948  12.338  0.1226  0.0721  0.0154
 9675W        W29955   1.924   2.042  11.842 -0.2921 -0.2562 -0.1666
 9676W        W29956   4.673  17.145  14.324  0.0285 -0.1327 -0.1380
 9677W        W29957   9.851  14.464  14.634 -0.0218  0.0610 -0.0985
 9678W        W29958  12.660  15.929  14.780 -0.2095 -0.0357 -0.0073
 9679W        W29959   9.887  17.553  12.201  0.0896 -0.0008  0.0604
 9680W        W29960   5.637  16.797   1.117  0.1900 -0.1870  0.0008
 9681W        W29961  12.994   5.035   0.656 -0.0295 -0.0148 -0.1570
 9682W        W29962  15.687  12.139  12.304  0.3167  0.2573 -0.0358
 9683W        W29963  16.689  17.058  15.155 -0.0993  0.0538  0.2098
 9684W        W29964  16.111   8.131   1.070 -0.3483  0.3073 -0.4908
 9685W        W29965   0.355   5.730  13.519 -0.3132 -0.2245 -0.1291
 9686W        W29966   4.741   2.440   4.864 -0.0771 -0.4406 -0.2042
 9687W        W29967   7.995  12.239   1.245 -0.2404  0.0290  0.1460
 9688W        W29968   9.354   7.217  15.410  0.0650 -0.0237  0.2197
 9689W        W29969  11.043  16.887  14.455 -0.1078  0.0778  0.0679
 9690W        W29970   1.310   5.230  14.823 -0.2711  0.3417 -0.0537
 9691W        W29971   3.608  14.760   0.021 -0.2042 -0.1406  0.0391
 9692W        W29972   0.266   5.347   3.263 -0.0501  0.2075 -0.2975
 9693W        W29973   2.356   8.501   1.562  0.0105 -0.1237 -0.0018
 9694W        W29974   4.146  13.230  14.572 -0.2481  0.4566 -0.0853
 9695W        W29975  10.694  13.903  15.452  0.1165 -0.0860 -0.0231
 9696W        W29976  17.457  12.406  13.285 -0.0748 -0.1388  0.2205
 9697W        W29977   4.290   6.394   1.210  0.1297 -0.4244 -0.0321
 9698W        W29978   3.506  13.680  14.956 -0.1699 -0.0612  0.1654
 9699W        W29979   2.112   6.791  15.913  0.0175  0.0971 -0.0707
 9700W        W29980   9.724  12.306  16.338  0.2930  0.2504  0.0039
 9701W        W29981   2.162   7.373  15.200  0.0541  0.1019  0.2752
 9702W        W29982   2.244  15.019  15.507 -0.1004 -0.1359  0.0085
 9703W        W29983  12.277  17.387   4.249 -0.0896 -0.1067  0.0028
 9704W        W29984  10.787   3.539   3.001  0.3061  0.2325  0.1012
 9705W        W29985   6.385   2.293  12.992 -0.1339  0.0144 -0.3523
 9706W        W29986   9.238  16.060  12.463 -0.1352 -0.0258 -0.1192
 9707W        W29987  13.542  15.211  13.191  0.0915  0.1472 -0.2188
 9708W        W29988  17.584   6.714  13.524  0.3337  0.1292  0.1324
 9709W        W29989  14.866  12.519  15.937 -0.1481  0.0264  0.1143
 9710W        W29990   4.714   7.060   3.699  0.1708  0.0105 -0.0771
 9711W        W29991  17.617   9.014  13.431  0.1847  0.0810 -0.2488
 9712W        W29992  11.188   5.946  16.282  0.0220 -0.0243  0.2123
 9713W        W29993   6.515   3.189  12.530 -0.1427  0.2686 -0.4439
 9714W        W29994   2.682  17.410   2.661  0.0229  0.1774 -0.1062
 9715W        W29995   5.558  11.739   4.994 -0.2164 -0.2901  0.2025
 9716W        W29996   2.726   9.450  13.100  0.0781  0.2214 -0.2128
 9717W        W29997   0.762   9.267  13.722 -0.0117  0.2012  0.3511
 9718W        W29998   5.630   5.017  13.755  0.3859 -0.4157 -0.1230
 9719W        W29999  17.021  11.548  16.036 -0.0245  0.3473  0.5107
 9720W        W30000   0.877  12.871   4.556  0.0631  0.0629  0.2881
 9721W        W30001  15.126  15.254   3.704 -0.1087  0.2167 -0.0274
 9722W        W30002   6.505   4.237   3.228  0.0260  0.0659  0.0154
 9723W        W30003   8.795   3.179   1.663 -0.2288  0.1606 -0.0698
 9724W        W30004  12.762   0.127   1.126 -0.0776  0.2690  0.0259
 9725W        W30005  16.037  14.781   0.356 -0.1982 -0.1555  0.1087
 9726W        W30006   5.128  11.461   2.500 -0.3461  0.2465 -0.0041
 9727W        W30007  17.990   0.526   2.592  0.1119 -0.0444 -0.1356
 9728W        W30008  12.968   3.141   4.008 -0.0197  0.0774  0.4668
 9729W        W30009   1.046   9.643   2.895 -0.0748 -0.0065  0.0193
 9730W        W30010  10.151   8.523   5.458 -0.4427 -0.0519  0.3699
 9731W        W30011   5.116  13.962   3.659 -0.1316  0.0056  0.3380
 9732W        W30012  16.172   1.129   2.259 -0.2325  0.2527  0.2808
 9733W        W30013   2.579  14.664  14.232 -0.1203  0.2020 -0.0338
 9734W        W30014   2.413   1.419   1.856  0.1203  0.1794 -0.0920
 9735W        W30015   6.923   1.713   3.538  0.0138 -0.0931  0.2246
 9736W        W30016   3.023   4.732   2.224 -0.0683 -0.1944 -0.1645
 9737W        W30017   0.064  12.183  15.631 -0.0224 -0.2822  0.0359
 9738W        W30018   2.213  16.250  13.628 -0.0875  0.0029  0.0192
 9739W        W30019   7.749   9.022  16.166  0.2592  0.0896 -0.1219
 9740W        W30020   2.904   5.869   1.648 -0.1245  0.1075  0.1173
 9741W        W30021  14.230  11.696   2.050  0.3133 -0.1499  0.0089
 9742W        W30022   9.426   9.037  16.350  0.1450  0.1820  0.0595
 9743W        W30023   7.128   7.221   4.190 -0.0075 -0.1235  0.0897
 9744W        W30024   2.540   6.830   4.028 -0.1097  0.1140  0.1997
 9745W        W30025   2.184  14.964  13.290 -0.1022 -0.1220 -0.0582
 9746W        W30026   0.213   8.775  14.102  0.0137 -0.3966  0.1521
 9747W        W30027  15.086  15.197  15.523  0.0801 -0.2719 -0.0256
 9748W        W30028   9.679  11.438  13.875 -0.2003  0.1227  0.1909
 9749W        W30029  11.200   6.942  14.393  0.1406 -0.0571 -0.3156
 9750W        W30030   4.501   2.722   0.232  0.3965 -0.1446 -0.0461
 9751W        W30031  11.362   9.333   5.512  0.0063  0.4512  0.2544
 9752W        W30032   2.248  15.170  16.657  0.1993 -0.4844 -0.0482
 9753W        W30033   2.317   2.159  12.673 -0.0573  0.1262  0.2810
 9754W        W30034  16.527   5.286  14.903  0.1123 -0.1126  0.0667
 9755W        W30035  11.389  15.429   4.789  0.0022 -0.0558  0.0788
 9756W        W30036   3.149   0.249   2.898 -0.2566 -0.0352  0.3025
 9757W        W30037  14.828  10.367  14.289 -0.0802 -0.0259  0.0444
 9758W        W30038  15.405   8.291   2.501  0.1657  0.0351  0.0953
 9759W        W30039   3.720   3.868  14.273 -0.0101  0.1376 -0.0961
 9760W        W30040   2.786   0.080   1.961  0.3307 -0.1348 -0.2533
 9761W        W30041  16.736   5.925  12.171 -0.2370  0.0429 -0.1968
 9762W        W30042  11.542  11.263  15.059  0.0278 -0.1346  0.1042
 9763W        W30043  14.203   4.283   2.621  0.2727 -0.1204 -0.0151
 9764W        W30044   8.986   7.067   2.196  0.0628 -0.1842 -0.1111
 9765W        W30045   7.583   9.732  13.578 -0.1841  0.2652 -0.0072
 9766W        W30046  15.588  10.700  14.112 -0.2970 -0.0063 -0.1775
 9767W        W30047   4.962   1.822   2.618 -0.0996 -0.2651  0.1337
 9768W        W30048  10.797   2.860  15.269  0.0132 -0.0567 -0.0168
 9769W        W30049   6.224  12.990  15.791 -0.1058  0.3703 -0.0205
 9770W        W30050  12.202   4.755  13.274 -0.0551 -0.1506  0.2976
 9771W        W30051   2.351   2.099   0.850  0.0373 -0.1837  0.4266
 9772W        W30052   9.956   1.664   3.425 -0.1448 -0.0518 -0.0577
 9773W        W30053  10.735  14.778  14.096  0.0447  0.2349  0.1262
 9774W        W30054   9.667  16.789   2.010  0.0213  0.1682 -0.3008
 9775W        W30055  16.061  12.647  13.460 -0.0099 -0.1419 -0.0350
 9776W        W30056   0.738  14.294  14.624 -0.0508 -0.1493 -0.0802
 9777W        W30057  10.316   0.591   1.394 -0.2417  0.0996 -0.0311
 9778W        W30058  16.040   0.188   1.339 -0.0376  0.2689 -0.0357
 9779W        W30059   2.129   6.862  15.395  0.0610 -0.0390  0.1880
 9780W        W30060  10.972   2.690  14.273 -0.2729  0.2569  0.2159
 9781W        W30061  17.190   7.108   1.128  0.0335  0.0631  0.2507
 9782W        W30062   4.617   1.525   5.677  0.0491  0.1724 -0.1804
 9783W        W30063  10.723  16.682  15.777 -0.0946  0.1154  0.0054
 9784W        W30064   0.072  11.892  16.428  0.0301  0.1507 -0.0648
 9785W        W30065   8.046   0.262   1.608  0.2755 -0.2623 -0.0401
 9786W        W30066   6.312  10.821   2.667  0.4379  0.0487 -0.2862
 9787W        W30067  16.495  17.508  14.333  0.0758  0.2116  0.0249
 9788W        W30068  17.647  12.443   3.903  0.2484 -0.0366  0.0105
 9789W        W30069  15.478   5.146   1.124 -0.2325  0.1770  0.0841
 9790W        W30070   4.915   5.004  15.788  0.1185  0.1288  0.0672
 9791W        W30071   6.671  16.768  13.945  0.0004  0.1155  0.0966
 9792W        W30072   7.216   4.951   2.177 -0.0761  0.0684 -0.0649
 9793W        W30073   2.110  17.638  12.275  0.0855  0.2013 -0.1305
 9794W        W30074   0.763  12.033   1.815 -0.1725  0.0026  0.4391
 9795W        W30075  11.176  11.941   0.100 -0.0122 -0.3708  0.1430
 9796W        W30076   0.138   0.410  14.453 -0.1608 -0.1579 -0.1635
 9797W        W30077   7.250  11.531   0.289  0.0411 -0.1462  0.1933
 9798W        W30078   1.332   7.456   1.288 -0.3361  0.3183  0.0405
 9799W        W30079   4.203  17.180  12.271  0.1916 -0.1737 -0.1794
 9800W        W30080   4.634   3.857  14.369  0.0002  0.0752  0.1261
 9801W        W30081  11.609   9.230  13.834 -0.1189 -0.2370  0.3421
 9802W        W30082  12.864   7.042   2.319  0.3623 -0.1032 -0.0118
 9803W        W30083   5.172   7.901  14.462  0.1281  0.0779  0.1093
 9804W        W30084  15.252   8.679  11.957 -0.3638 -0.1678 -0.0850
 9805W        W30085   0.283   5.462  12.208  0.2094 -0.1457 -0.3616
 9806W        W30086   4.980  17.426   0.824  0.2289 -0.1321  0.0844
 9807W        W30087   1.789   3.921  14.486  0.1637  0.0347 -0.2958
 9808W        W30088   6.174   6.348   1.353 -0.1200 -0.1828  0.0402
 9809W        W30089  13.502  17.627  15.149  0.2052 -0.1516  0.0290
 9810W        W30090  16.706  12.939  15.876 -0.2444 -0.0346  0.1931
 9811W        W30091  15.976   2.031   0.103  0.5608 -0.0191  0.3710
 9812W        W30092  13.489  12.957   1.934  0.1568  0.0317  0.0056
 9813W        W30093   1.082   7.738  14.651  0.4411 -0.0650  0.1575
 9814W        W30094  14.727  13.212   2.161 -0.3507  0.2271  0.1087
 9815W        W30095   3.813  13.892   1.725  0.1525  0.1996  0.4120
 9816W        W30096  15.271  12.243   0.915  0.2103 -0.2522  0.2545
 9817W        W30097  17.843  15.212  13.232  0.2347 -0.0585  0.3246
 9818W        W30098  12.060   1.949  13.283  0.1912 -0.3900 -0.1890
 9819W        W30099   0.538   6.792   0.774 -0.0761 -0.0653  0.3009
 9820W        W30100   1.718  12.913  13.796 -0.0752  0.1383 -0.3876
 9821W        W30101  10.195  17.953  13.903  0.1971 -0.1288 -0.1284
 9822W        W30102  11.648   7.402   2.589 -0.2327  0.1988  0.1095
 9823W        W30103   0.824  10.312  12.462  0.1052 -0.1711 -0.4866
 9824W        W30104   8.312   6.667  15.714  0.3386  0.1732 -0.0336
 9825W        W30105  10.612  13.610   3.259  0.2721 -0.2794 -0.3312
 9826W        W30106   1.223   5.112   4.284 -0.0450  0.2775  0.0830
 9827W        W30107  15.796  15.656   4.160  0.0733  0.3097 -0.0608
 9828W        W30108   3.871   0.031  14.099 -0.1234 -0.1215 -0.2020
 9829W        W30109  15.018  11.193  11.983  0.0381 -0.0563  0.0092
 9830W        W30110   9.200   1.342  16.309 -0.1303  0.0987 -0.1148
 9831W        W30111   6.370   8.438   3.320  0.0506 -0.2800 -0.0965
 9832W        W30112   9.028  11.285  12.405 -0.1316  0.2201 -0.5422
 9833W        W30113   0.964   9.923   0.540  0.1741  0.1295  0.0270
 9834W        W30114  14.350  14.856   4.393 -0.0830 -0.2155 -0.0544
 9835W        W30115  10.319   2.855  12.470 -0.0074 -0.0284 -0.0775
 9836W        W30116   4.861  15.780  14.381 -0.3532 -0.1267  0.1657
 9837W        W30117  17.713   9.054   4.140  0.2492  0.1232 -0.3149
 9838W        W30118  15.422   4.208  14.003 -0.0446 -0.0315  0.0497
 9839W        W30119   4.242   8.836   2.260 -0.0791 -0.2252  0.0623
 9840W        W30120  10.715   4.966   2.397 -0.1220  0.1820 -0.2434
 9841W        W30121   6.436  16.535   1.745  0.0687 -0.0514 -0.0565
 9842W        W30122  12.394  15.825   3.247 -0.2624  0.2622  0.1713
 9843W        W30123   6.054  11.163   3.483  0.0834  0.1342  0.0496
 9844W        W30124   6.920   6.590   2.153 -0.0363  0.1857  0.2088
 9845W        W30125  11.733   5.772  12.228  0.2019 -0.0853  0.2879
 9846W        W30126  14.909  17.217  15.744  0.1592 -0.0285  0.1013
 9847W        W30127  15.484  10.236   4.225 -0.0874  0.0991  0.2042
 9848W        W30128  10.680   7.991   1.224 -0.0958 -0.0334  0.0044
 9849W        W30129   9.902  14.093  12.485  0.0725 -0.1745 -0.3627
 9850W        W30130   8.858   3.434  14.737  0.0206 -0.4356  0.1352
 9851W        W30131   2.987   0.432   3.894  0.1909 -0.0047 -0.0707
 9852W        W30132   8.225   4.087  15.654  0.2358 -0.1394 -0.0046
 9853W        W30133   4.423   7.214  12.851  0.1966 -0.2877 -0.1423
 9854W        W30134  13.874  17.365   1.391  0.2888  0.2577 -0.1978
 9855W        W30135   3.087  15.332   3.389 -0.0377  0.2831 -0.3952
 9856W        W30136   3.794  12.184   2.722 -0.2254  0.0044 -0.3523
 9857W        W30137   0.420   2.700   3.632 -0.0479  0.1583  0.2470
 9858W        W30138   4.022   8.780   0.055  0.1207 -0.0367  0.1601
 9859W        W30139  12.947   3.043   4.511 -0.1507  0.2119 -0.1290
 9860W        W30140  10.024   6.413  12.843 -0.1965 -0.0325 -0.2713
 9861W        W30141   2.001   6.680  12.576 -0.1291  0.0568  0.1227
 9862W        W30142   5.884   9.752   2.344  0.0388  0.0111 -0.3310
 9863W        W30143  16.568  13.817   3.562 -0.1307  0.4803 -0.1110
 9864W        W30144   1.156   1.985   5.703  0.1941  0.1860  0.1938
 9865W        W30145  12.743   2.072   1.640 -0.1154  0.0167 -0.1510
 9866W        W30146  12.396  17.863  15.349  0.0266 -0.1140  0.1832
 9867W        W30147  16.176  12.613   0.906 -0.2279 -0.1796 -0.0590
 9868W        W30148  16.541  12.522   3.146  0.2379  0.0619  0.1809
 9869W        W30149   6.633   8.248   2.462  0.2335 -0.1765 -0.0456
 9870W        W30150  13.856   2.082  13.705 -0.0618 -0.1034 -0.1896
 9871W        W30151  13.070  16.113   1.714  0.1011  0.0935  0.1070
 9872W        W30152   8.021  13.873   1.711 -0.2340 -0.0269 -0.1834
 9873W        W30153  12.440   0.963  13.793 -0.1229 -0.0240 -0.2104
 9874W        W30154   0.387  11.537   1.791  0.0790  0.1063 -0.4545
 9875W        W30155   5.387   8.960   3.972 -0.0697 -0.1647 -0.0563
 9876W        W30156   8.225   1.847   3.099  0.0605  0.1276  0.0929
 9877W        W30157  14.187   1.458   3.503 -0.1332  0.0537  0.2872
 9878W        W30158   5.561  17.462   0.381  0.1076 -0.3345 -0.0383
 9879W        W30159  11.939  17.232  15.157  0.0332  0.0561  0.0883
 9880W        W30160   3.917   0.570  15.410 -0.0128  0.0432  0.0640
 9881W        W30161  15.844  12.737   1.291 -0.1041 -0.1397  0.0065
 9882W        W30162  17.901   9.426   4.523  0.4435  0.0788  0.2477
 9883W        W30163  15.243   0.627  14.518 -0.2688  0.2205  0.2160
 9884W        W30164   5.666   3.621  14.160  0.1018 -0.0245 -0.1000
 9885W        W30165   2.131  11.876   2.676  0.2485  0.2538 -0.1969
 9886W        W30166   4.372   9.113  13.029  0.0586  0.1667  0.0013
 9887W        W30167   5.834  11.859   2.242  0.1302  0.0905 -0.0566
 9888W        W30168   1.626   2.163   4.313  0.0889  0.1075  0.2818
 9889W        W30169   3.354  15.276  14.535 -0.0258 -0.1436  0.2659
 9890W        W30170  13.397   8.716   3.917 -0.0021  0.0970 -0.1072
 9891W        W30171   5.775  12.971   1.039  0.1974  0.0563 -0.0608
 9892W        W30172   9.993   6.964   3.873 -0.0278  0.1536  0.1176
 9893W        W30173  12.493  16.426   0.580  0.0805 -0.1875  0.3444
 9894W        W30174   2.759   7.453  12.289  0.0453  0.2056  0.2323
 9895W        W30175  11.410  14.208   0.891 -0.1902 -0.0841 -0.0234
 9896W        W30176   5.710  10.734  15.951 -0.0568 -0.3618 -0.1016
 9897W        W30177   4.878   0.830   3.149  0.1594  0.2782 -0.2317
 9898W        W30178   5.101   2.942  16.182  0.3189  0.0188 -0.2414
 9899W        W30179   1.785   3.532  16.640  0.2489  0.0187  0.1529
 9900W        W30180  15.656   7.518  14.526 -0.2055  0.2813  0.1372
 9901W        W30181  10.370   1.488  15.995  0.2374  0.2668  0.0348
 9902W        W30182   2.545   2.864   2.725 -0.5014 -0.3361 -0.0226
 9903W        W30183   8.490  15.877  14.221 -0.2206  0.1118 -0.1248
 9904W        W30184   1.444   8.860   1.859  0.1809  0.1397  0.1457
 9905W        W30185   8.120  17.589   3.794 -0.2199  0.1860  0.1258
 9906W        W30186  13.828  11.583  12.318 -0.1580  0.3165  0.0333
 9907W        W30187  12.098  16.591  14.171  0.0909  0.0200  0.4057
 9908W        W30188   7.139  15.487  16.125  0.0568 -0.2772 -0.0402
 9909W        W30189  16.508   6.418  14.165  0.0806 -0.2684  0.1953
 9910W        W30190   7.202   4.250   3.176  0.0160  0.1362  0.0699
 9911W        W30191   8.366  15.785   4.128  0.0264  0.1112  0.1305
 9912W        W30192   7.632  17.534   3.708 -0.0212  0.1407 -0.3843
 9913W        W30193  17.094  11.335   1.329  0.0220  0.1372  0.0265
 9914W        W30194  16.406   3.901   0.401  0.2585  0.0197 -0.2781
 9915W        W30195  17.982   8.715  13.559  0.0900 -0.2778  0.2856
 9916W        W30196  10.073  13.982   0.208 -0.0300 -0.0739 -0.2639
 9917W        W30197  12.501  11.276  12.282  0.1927  0.0757  0.4101
 9918W        W30198  15.705   3.865   3.484 -0.1439  0.1272  0.0789
 9919W        W30199   2.072   9.862  16.326 -0.1433  0.0533 -0.1844
 9920W        W30200   9.124   7.170   3.362 -0.0279  0.4740  0.0083
 9921W        W30201   4.390   1.604   3.373 -0.1932  0.0700 -0.2013
 9922W        W30202   6.907   6.402   4.241  0.3299  0.1315  0.0118
 9923W        W30203  10.662   1.864   1.236 -0.4350 -0.1195 -0.1384
 9924W        W30204  16.287   7.703   0.315 -0.0932  0.2555 -0.1242
 9925W        W30205  17.232  17.641   4.018  0.1364  0.1084 -0.0099
 9926W        W30206   5.537  15.064   0.716 -0.1288  0.5322 -0.2256
 9927W        W30207   8.188   2.354  15.327  0.1040  0.2156  0.1113
 9928W        W30208  11.505  11.169   3.426 -0.3634  0.0409 -0.2316
 9929W        W30209   2.259   6.334  13.645 -0.0614 -0.2937  0.0635
 9930W        W30210  11.251   1.285   3.360  0.5792  0.0819 -0.3135
 9931W        W30211   8.509  16.152  12.693 -0.2500  0.1121  0.1077
 9932W        W30212   4.589   0.651   2.260  0.4305 -0.0852  0.1101
 9933W        W30213  13.156   2.921   1.155 -0.0030  0.0086  0.0109
 9934W        W30214   9.863  13.909  14.608 -0.0449 -0.0648 -0.1478
 9935W        W30215   3.879  13.342  10.985 -0.3134  0.0384  0.1288
 9936W        W30216   9.645  16.001  14.611 -0.0695 -0.1349 -0.0635
 9937W        W30217   2.745   2.217  15.986  0.0050 -0.2269 -0.0809
 9938W        W30218  17.460  15.691   1.800  0.0228  0.0043 -0.2544
 9939W        W30219  12.506  12.374   0.164  0.0457  0.0854 -0.0472
 9940W        W30220   5.392   3.798   3.825  0.2518  0.1137  0.2306
 9941W        W30221   4.240   9.304  15.065  0.1650  0.0600  0.2412
 9942W        W30222   1.180  16.356  15.938 -0.0303 -0.1610  0.3280
 9943W        W30223   8.707   6.642   0.854  0.0864  0.0006  0.3021
 9944W        W30224   6.352   0.967   0.858 -0.4215  0.1292  0.0969
 9945W        W30225  10.395   8.545   1.909 -0.0412  0.0782 -0.1497
 9946W        W30226   6.057   3.110   0.967 -0.0128 -0.1470  0.0629
 9947W        W30227  12.839   0.909  14.490  0.2011  0.4411  0.1772
 9948W        W30228   1.190  12.168   0.286 -0.0430 -0.2057 -0.2574
 9949W        W30229  11.110   7.542   1.465  0.1549  0.1699  0.0587
 9950W        W30230   4.653   7.573  12.555  0.0275 -0.3140 -0.1216
 9951W        W30231   0.743   8.411  16.045  0.1165  0.0523  0.1817
 9952W        W30232   2.949   3.598   0.941 -0.0324 -0.1153 -0.2330
 9953W        W30233   5.485   3.033  13.472  0.2683 -0.2279  0.0392
 9954W        W30234   8.164   3.498  12.135 -0.1589  0.2260  0.0517
 9955W        W30235   8.540  11.578  16.070  0.0431  0.0219 -0.0115
 9956W        W30236  17.364  11.109  16.271  0.1939 -0.4066  0.2536
 9957W        W30237   7.798   9.551   0.373  0.4395  0.0983  0.2013
 9958W        W30238   6.454  10.105   5.239 -0.2891  0.1777 -0.0479
 9959W        W30239  10.466  12.683  13.386  0.3056  0.3082  0.2662
 9960W        W30240   1.907  10.181   0.006 -0.1339  0.1051  0.0868
 9961W        W30241   9.296   3.897  13.052  0.2380  0.1612 -0.1571
 9962W        W30242   5.094  16.593  15.879 -0.2192 -0.2118 -0.1460
 9963W        W30243   0.340   2.807  16.467 -0.0136 -0.1834 -0.1605
 9964W        W30244   1.748  17.053  12.117  0.0342  0.1303  0.2057
 9965W        W30245  16.232  13.963   4.376 -0.2426  0.2891 -0.1684
 9966W        W30246   9.187   0.226   1.165 -0.2458 -0.1088  0.0422
 9967W        W30247  14.635  12.803   0.676 -0.0865  0.1923  0.1821
 9968W        W30248   8.216   9.762   0.183 -0.1917 -0.0644  0.2551
 9969W        W30249  16.029  10.655   2.305 -0.1869 -0.1190  0.3198
 9970W        W30250  17.682  17.635   4.182 -0.1659  0.0453  0.2371
 9971W        W30251   7.198   8.729   3.054 -0.1407 -0.2153  0.1417
 9972W        W30252   6.867  15.743   4.677 -0.1853 -0.0553 -0.0347
 9973W        W30253   2.983  14.128   2.952  0.1588  0.0609  0.1684
 9974W        W30254   4.814   8.800  16.139 -0.2195  0.0057 -0.2044
 9975W        W30255  13.135  13.495  15.382  0.1628 -0.2054  0.0186
 9976W        W30256  14.462   4.043  16.470  0.1218 -0.2160 -0.3917
 9977W        W30257   3.695   8.459  12.900  0.0022 -0.1866  0.1318
 9978W        W30258   9.260   0.024  11.703  0.1241 -0.1605 -0.0142
 9979W        W30259  17.388  15.646   2.308  0.1015 -0.2068 -0.0475
 9980W        W30260  14.758  11.728  11.919 -0.1871  0.1272  0.4636
 9981W        W30261  12.980   1.116   3.079 -0.0649 -0.0700 -0.0893
 9982W        W30262  15.729  10.854  14.609  0.0132 -0.3916 -0.0141
 9983W        W30263   5.922  11.319   4.338 -0.0054  0.3602  0.0793
 9984W        W30264   9.519   1.911   1.067  0.0183  0.2317 -0.0703
 9985W        W30265   9.397   2.032  15.722  0.2017  0.1803  0.0181
 9986W        W30266   0.725   9.037   4.365  0.3940 -0.3698  0.3407
 9987W        W30267  12.752  13.016  12.834 -0.0229 -0.0509  0.0439
 9988W        W30268  13.459  17.125   0.192 -0.0371 -0.1397 -0.0662
 9989W        W30269  12.504   9.429   2.125 -0.2372 -0.1129  0.1066
 9990W        W30270   1.970   2.899   4.637  0.4084  0.3360  0.1924
 9991W        W30271   9.545  10.687   1.719  0.3271 -0.3032  0.0715
 9992W        W30272  13.634   5.752   0.436  0.2978  0.0220 -0.4577
 9993W        W30273   4.072   8.091   3.480  0.0164  0.0837 -0.1400
 9994W        W30274  12.501   5.605  16.404  0.1505 -0.1471  0.1439
 9995W        W30275   7.272  15.988   0.431 -0.2390 -0.1641  0.1370
 9996W        W30276   5.627  11.651  16.240 -0.0311 -0.1554 -0.0420
 9997W        W30277   7.202  14.707  12.929 -0.2687 -0.1320 -0.0652
 9998W        W30278   1.677  11.513  15.269  0.0559 -0.3313 -0.2498
 9999W        W30279  17.381  17.125   0.559 -0.3006 -0.2579  0.0205
10000W        W30280   5.410  13.213  14.118 -0.1333 -0.3320  0.2479
10001W        W30281  16.706   3.391  12.791  0.0773 -0.0809  0.0018
10002W        W30282  13.418   3.858  12.988 -0.0174  0.2365 -0.1287
10003W        W30283  17.400   4.377  13.933 -0.2621  0.0965  0.2298
10004W        W30284   2.230   5.118  14.719 -0.0887  0.1182  0.1565
10005W        W30285   8.385  17.282   2.044 -0.0536  0.0192 -0.1006
10006W        W30286   5.139   9.290   0.035 -0.3473 -0.0177 -0.2327
10007W        W30287   3.825   7.353  14.584  0.1405  0.0720  0.1340
10008W        W30288  10.980   5.240   0.306  0.2557 -0.0789 -0.0257
10009W        W30289   4.184   4.207   1.817 -0.1101 -0.2193  0.1993
10010W        W30290   1.291   7.313   2.188  0.2715 -0.0165 -0.0146
10011W        W30291   2.394   8.710  15.311  0.1664 -0.1120  0.0139
10012W        W30292   3.369   7.340   0.297 -0.1962 -0.2299  0.1983
10013W        W30293   2.224  16.471   4.122 -0.2202  0.1210  0.0888
10014W        W30294   1.152  10.209  16.532 -0.0683 -0.1962 -0.1651
10015W        W30295  13.096  11.178   2.017 -0.1882  0.3745  0.1670
10016W        W30296   3.435  16.915   2.533  0.1064  0.1044 -0.2006
10017W        W30297   0.366  12.743   0.779 -0.0842 -0.0295  0.0818
10018W        W30298  10.606   0.801   0.654 -0.1258  0.0404  0.1146
10019W        W30299  16.051  16.704   3.359 -0.0035  0.2803 -0.2456
10020W        W30300  12.148   6.503   1.096  0.1610  0.0754 -0.0839
10021W        W30301   5.214  17.026  14.024 -0.0612  0.1336 -0.0089
10022W        W30302  17.669   6.360   0.532  0.6822  0.4891 -0.0176
10023W        W30303  12.660   1.166   1.906 -0.0065 -0.0038 -0.1409
10024W        W30304  15.201  11.625   2.965  0.0442  0.1982  0.0851
10025W        W30305  13.058   7.695   2.631  0.0892  0.0701  0.4283
10026W        W30306   4.225   9.686   3.821 -0.0859 -0.2189  0.0401
10027W        W30307   0.412   4.443  15.481  0.0882  0.0326 -0.1069
10028W        W30308   2.479  11.628  13.686  0.1621  0.0572  0.1326
10029W        W30309   2.211  11.919  15.472  0.1257  0.2233 -0.0348
10030W        W30310  16.896  16.311   2.842 -0.0806 -0.1117  0.2543
10031W        W30311   5.664  12.459  14.998 -0.1561  0.1613  0.1546
10032W        W30312  15.324   9.999   1.476  0.1753  0.0764 -0.1329
10033W        W30313   6.926   7.863   2.546  0.1243 -0.0800 -0.1638
10034W        W30314   0.372   6.378   0.057 -0.0136  0.3932  0.0825
10035W        W30315  10.859  11.628   0.228  0.3212  0.0694  0.1917
10036W        W30316   2.244  10.966  15.315  0.2714 -0.3740  0.1756
10037W        W30317   6.517   0.140  13.391 -0.1759 -0.0865 -0.1609
10038W        W30318   7.340   6.184  15.976 -0.2880  0.1596  0.2608
10039W        W30319   6.658   2.093  16.100 -0.3136  0.1410 -0.0977
10040W        W30320   3.244  17.668   4.685 -0.2631 -0.0677 -0.2896
10041W        W30321   7.193   4.435   0.244  0.1949 -0.2105  0.1449
10042W        W30322  16.988   7.318   2.915 -0.2386  0.0890 -0.0854
10043W        W30323   2.448   6.155  14.471 -0.3031  0.2457  0.1601
10044W        W30324  13.867   8.044   2.513  0.2069 -0.0627  0.1714
10045W        W30325   4.512   3.232   0.086 -0.0072  0.0796  0.1546
10046W        W30326   2.971  17.981  13.890 -0.2799 -0.0369 -0.1109
10047W        W30327   2.178   6.569   0.108 -0.1961 -0.0815 -0.0598
10048W        W30328   9.270   5.769  15.575 -0.0792  0.0584 -0.1852
10049W        W30329  17.878  13.671   3.820 -0.1398  0.1903  0.2681
10050W        W30330  15.386   6.075   4.000 -0.0972 -0.0697 -0.1707
10051W        W30331  10.165   0.394   3.662  0.0501 -0.1318  0.0176
10052W        W30332   9.037   0.699   3.550 -0.0643 -0.2276  0.1886
10053W        W30333   8.771   3.205   2.322 -0.0687  0.0739  0.0156
10054W        W30334  17.177  12.917   1.213  0.3594  0.1044  0.0754
10055W        W30335  13.917   0.297  14.013  0.2525 -0.0512  0.1043
10056W        W30336  17.554   8.538  13.681  0.2535 -0.0677 -0.1135
10057W        W30337  17.872   4.208  14.042  0.0959 -0.3621  0.0668
10058W        W30338   9.780  13.573  15.101 -0.0856 -0.2587  0.1659
10059W        W30339  17.443   4.065  14.347 -0.0263  0.1182 -0.1440
10060W        W30340  11.029  16.125   4.453  0.1016  0.1970  0.2710
10061W        W30341  14.218   1.759  14.566 -0.5443 -0.1063  0.2211
10062W        W30342  15.812  17.513  15.568 -0.0723 -0.2429  0.0833
10063W        W30343   8.372  16.427   1.996 -0.3102 -0.0102  0.0830
10064W        W30344  10.199  12.240  15.332 -0.3441  0.1620 -0.0541
10065W        W30345   1.111   3.798  15.980  0.1828  0.2698 -0.3904
10066W        W30346   9.373   0.998   4.280 -0.3447 -0.0940 -0.0788
10067W        W30347   1.406  11.420  16.468  0.0120 -0.2291 -0.0891
10068W        W30348   1.986   6.936  14.898  0.0549 -0.1017  0.0321
10069W        W30349   8.314  16.397   0.918 -0.2810 -0.0036  0.0327
10070W        W30350   3.051   9.171   4.111  0.0111 -0.3221  0.0257
10071W        W30351  16.313  15.990  16.256  0.3767 -0.0890 -0.0293
10072W        W30352   5.235  15.580  13.842 -0.0961  0.1174 -0.0990
10073W        W30353  17.818   3.941  16.319 -0.2452 -0.0555 -0.1696
10074W        W30354   5.534   6.580   2.356 -0.0715  0.0445  0.0764
10075W        W30355  12.516   4.677  16.355  0.1275 -0.0365  0.1100
10076W        W30356   7.875  16.153  15.947  0.0622 -0.1221 -0.0582
10077W        W30357   8.724  10.659  12.711  0.1052 -0.0228 -0.2122
10078W        W30358  14.171  17.955  12.450  0.2055  0.2284 -0.0889
10079W        W30359  10.166  11.335   3.448  0.1090 -0.0873  0.0118
10080W        W30360   1.353  17.584   1.508 -0.2411  0.0189  0.0265
10081W        W30361  11.308   4.983  16.684  0.0329  0.0911  0.1275
10082W        W30362  14.341   0.271   3.227  0.0637  0.2220 -0.0017
10083W        W30363   4.111   6.186  15.299  0.2445  0.1748  0.1065
10084W        W30364   4.453   1.573  12.143 -0.1864  0.0187 -0.1120
10085W        W30365   3.006  16.458  16.489  0.1783 -0.0880  0.1740
10086W        W30366  12.984   6.214   2.157  0.0505  0.1443  0.2504
10087W        W30367   2.469  10.984   3.717  0.2316  0.0266  0.2235
10088W        W30368   3.409  11.962   1.365 -0.1954 -0.1119 -0.2428
10089W        W30369   4.073  12.698  14.808  0.2341 -0.1037  0.3664
10090W        W30370   4.419  11.910  12.428  0.1103  0.0178 -0.3363
10091W        W30371   4.192   9.492   1.012  0.1620  0.1025  0.0443
10092W        W30372  11.671   7.888   2.264 -0.1104 -0.0202  0.0049
10093W        W30373   2.821   7.071  16.182 -0.4435  0.1267 -0.0872
10094W        W30374  12.568   7.852   4.447 -0.5062  0.1287 -0.3729
10095W        W30375  14.726   3.785  14.649 -0.0074  0.1571  0.1186
10096W        W30376   2.681   2.372   3.851  0.0946 -0.0501  0.2450
10097W        W30377   7.742   3.287  16.044  0.2409  0.3164  0.0294
10098W        W30378   2.354   1.169   1.162  0.1713 -0.0182 -0.1712
10099W        W30379  10.971   0.251   3.211  0.0734 -0.5431 -0.1024
10100W        W30380   4.423  15.799   4.721  0.2209 -0.5121  0.3377
10101W        W30381   5.686   8.733   4.303 -0.2408 -0.2394 -0.4266
10102W        W30382  11.965   1.948  14.642  0.2730 -0.2804  0.0097
10103W        W30383   2.103   6.236   4.738 -0.0126 -0.1386 -0.2400
10104W        W30384   2.203   1.657  15.586 -0.0781  0.0467  0.2843
10105W        W30385   8.669  17.501  16.078 -0.3549  0.0397 -0.1515
10106W        W30386  14.174  12.956  11.521  0.2363  0.0486  0.1277
10107W        W30387   2.032   6.395  15.579 -0.0112 -0.2349  0.2782
10108W        W30388   4.172   8.195  12.967  0.0760 -0.0557  0.2963
10109W        W30389   6.687  17.630  12.322  0.0487 -0.1871 -0.2875
10110W        W30390   1.012   8.566  16.563 -0.0188  0.2069  0.3350
10111W        W30391  17.797  11.347  13.537  0.1243 -0.0033 -0.1225
10112W        W30392  10.768  12.797   2.607 -0.3807 -0.0803 -0.1535
10113W        W30393  14.841   3.313  13.605 -0.2296  0.0619 -0.0393
10114W        W30394   5.586   7.527  12.599  0.0123 -0.0302  0.0270
10115W        W30395   7.222  12.700  14.418 -0.0384  0.1041 -0.0267
10116W        W30396   3.696   7.084   4.971  0.0544  0.0188  0.0265
10117W        W30397  10.248   3.603   0.777 -0.1601 -0.3561 -0.0597
10118W        W30398  16.693  14.293   2.404  0.2192 -0.0416 -0.0166
10119W        W30399  15.693  13.625  15.056 -0.0765 -0.2099  0.1065
10120W        W30400   3.814  16.688  14.852  0.2246 -0.0129 -0.0876
10121W        W30401  12.344  15.012   1.465 -0.0613 -0.1495 -0.1185
10122W        W30402  16.769   1.919  13.157  0.0720  0.1515  0.0071
10123W        W30403   6.782   4.647   4.626  0.2676  0.2014  0.0714
10124W        W30404   8.593   7.524  13.137  0.0262 -0.2247  0.1336
10125W        W30405   1.543   2.351   1.441  0.0654 -0.0023 -0.1439
10126W        W30406  15.996   9.879  14.943 -0.1898  0.0509 -0.0838
10127W        W30407  17.563   1.972   0.622 -0.0673 -0.2489  0.0709
10128W        W30408   8.021   7.609  16.410 -0.0127  0.2054  0.3016
10129W        W30409  15.802  11.445   3.621  0.2172  0.3854  0.0017
10130W        W30410   5.376   8.258  15.199  0.1274 -0.0232  0.0785
10131W        W30411   0.141  12.076  14.163  0.1841 -0.0871  0.1838
10132W        W30412   4.047   2.235  12.581 -0.0891 -0.1988  0.2075
10133W        W30413   0.768   7.620  12.216  0.1800 -0.0218  0.0204
10134W        W30414   4.202   4.520   4.458  0.1206 -0.1078  0.2463
10135W        W30415   7.159  10.092  13.597  0.2071  0.0200 -0.2049
10136W        W30416  12.528   7.951  12.082 -0.4375 -0.1230  0.1076
10137W        W30417   6.122   8.020   4.639 -0.1244 -0.2714 -0.0655
10138W        W30418  15.415   6.501   2.786  0.0235  0.0516  0.0377
10139W        W30419   2.173   1.151  12.613 -0.4566  0.1117  0.0200
10140W        W30420   1.111   9.766  14.268 -0.1499  0.2951  0.0727
10141W        W30421   8.454  16.804  14.008 -0.2460  0.2622  0.1168
10142W        W30422  16.448   6.542  12.933 -0.1702 -0.1277 -0.0045
10143W        W30423   0.338   3.050   0.251 -0.4328  0.0298 -0.1939
10144W        W30424   4.232   2.405   0.537 -0.1659 -0.1095  0.1113
10145W        W30425   0.845  15.292  14.644 -0.0575  0.2283 -0.1430
10146W        W30426   6.528   9.469   0.583 -0.0134 -0.1048  0.3803
10147W        W30427   3.011   0.791  14.838 -0.2372 -0.1119 -0.0467
10148W        W30428  17.945   3.082   4.812 -0.1184 -0.4952  0.0571
10149W        W30429   8.432   3.363  14.479 -0.1350 -0.2180 -0.1299
10150W        W30430  17.777  15.826   2.634  0.0271  0.1260  0.1745
10151W        W30431   2.116   6.739   4.744  0.1561 -0.2029  0.0141
10152W        W30432   5.271  10.420  16.541 -0.1830 -0.0698 -0.0487
10153W        W30433   0.288   1.147  15.039  0.0497  0.1251 -0.1873
10154W        W30434  14.035   2.983   4.061  0.1591 -0.0363  0.1333
10155W        W30435  16.602  11.348  15.897  0.1549 -0.0422 -0.0803
10156W        W30436  11.420   6.006   2.786 -0.0500 -0.2246 -0.1612
10157W        W30437   4.538  16.232  12.728 -0.2633 -0.1998 -0.2159
10158W        W30438  10.428   3.286   4.369  0.3792  0.1446  0.2477
10159W        W30439   2.809  15.879   0.003  0.0132  0.3650  0.0100
10160W        W30440  17.038  12.295  12.218 -0.0687  0.0398 -0.2533
10161W        W30441  17.698  13.372   0.310  0.0597  0.0230  0.0529
10162W        W30442   8.049   4.528  13.839 -0.0699  0.3256 -0.0924
10163W        W30443  12.128   8.116  13.547 -0.1172 -0.1926  0.0326
10164W        W30444  12.519   5.682   1.216 -0.0096 -0.1160 -0.2572
10165W        W30445  17.072   5.671   2.482  0.0054  0.2402  0.0995
10166W        W30446   4.003  13.118  13.578  0.0980  0.1540  0.1276
10167W        W30447   3.004   5.363   4.257  0.0149 -0.1985  0.0465
10168W        W30448  12.258   3.284  14.133 -0.2183  0.0877 -0.1348
10169W        W30449  16.913  10.841   2.894 -0.2261  0.0550  0.0014
10170W        W30450   3.816   1.331  13.572 -0.1307 -0.1668  0.2943
10171W        W30451   4.383  13.011   1.973 -0.0160  0.0003  0.1695
10172W        W30452   6.585   8.159   4.398  0.2590 -0.0655  0.2498
10173W        W30453   8.626   1.645  14.212 -0.1611 -0.0100 -0.3639
10174W        W30454  13.084   8.261  12.810  0.2266  0.1542  0.0347
10175W        W30455   3.075   4.096  15.434  0.2308  0.1000  0.0966
10176W        W30456   2.530   4.193   3.668  0.3042  0.1489  0.0897
10177W        W30457   7.133   7.669  12.266  0.1094  0.0764 -0.0177
10178W        W30458  10.987   1.250   4.234 -0.0206  0.1370  0.2773
10179W        W30459  14.483   8.613  16.464  0.1392  0.1962 -0.1458
10180W        W30460   0.236  12.366   4.604  0.2823 -0.1491 -0.0295
10181W        W30461  10.509  10.968   1.574 -0.0413 -0.0642 -0.1293
10182W        W30462   5.577   2.659  12.043  0.1279  0.3085  0.2679
10183W        W30463   2.896   9.968  16.111  0.1489 -0.0842 -0.1457
10184W        W30464   2.251  11.844   3.523 -0.0205  0.1606 -0.1265
10185W        W30465  12.042   6.095   2.946  0.3715  0.1716 -0.1321
10186W        W30466   7.908  11.018   1.475  0.2018 -0.0503  0.0945
10187W        W30467   7.790  13.720  12.077 -0.1027 -0.0471 -0.0370
10188W        W30468  17.177   8.116  15.380  0.1911  0.0737 -0.1418
10189W        W30469  11.709   1.404   2.248 -0.0762 -0.2929  0.0849
10190W        W30470  10.834   1.699   4.159 -0.0332  0.0556 -0.1115
10191W        W30471  15.815  15.486  13.286 -0.0855 -0.1541 -0.0737
10192W        W30472  12.307   6.369  15.026  0.5246  0.2707  0.2992
10193W        W30473   8.688   1.036  14.812 -0.2064  0.0314 -0.0243
10194W        W30474  11.259  12.849  14.691 -0.2486  0.2731 -0.2120
10195W        W30475  17.103  17.141   3.827 -0.3065  0.2598 -0.1765
10196W        W30476  10.202   4.348   2.957 -0.0395  0.1273  0.1261
10197W        W30477  10.331  16.217  15.879  0.0540  0.2054 -0.1341
10198W        W30478   5.568  11.561  15.444 -0.0374  0.3655  0.0463
10199W        W30479   1.598   4.326   2.139 -0.1373 -0.0501  0.3126
10200W        W30480   8.071   5.998   3.817  0.2689 -0.0309  0.3426
10201W        W30481   3.127  11.033  13.555  0.3485 -0.3670 -0.1504
10202W        W30482   7.871   7.898  13.297  0.2362  0.1119  0.2389
10203W        W30483   1.973  11.409  13.860  0.1880 -0.1632  0.1549
10204W        W30484   0.656  11.294   4.307 -0.4073 -0.2203 -0.1399
10205W        W30485   8.035  11.582   2.484  0.2369 -0.0491 -0.0699
10206W        W30486  13.028   0.090  13.479 -0.0526  0.0840  0.1981
10207W        W30487  10.832   2.159  14.668  0.0481 -0.2487 -0.1182
10208W        W30488  15.523   4.602  14.264  0.2161 -0.2100 -0.1126
10209W        W30489  11.517  15.547   0.036 -0.1828  0.1500  0.1896
10210W        W30490  17.926   5.608   1.120 -0.0724  0.1564 -0.0921
10211W        W30491   2.363  17.484   1.354 -0.0276  0.1236 -0.2065
10212W        W30492   4.870   7.364   2.232  0.3492 -0.2987  0.2427
10213W        W30493  17.112  14.833  14.514  0.1439 -0.3191  0.1464
10214W        W30494  17.776   5.924   2.072  0.0003 -0.3499  0.1658
10215W        W30495   6.855  16.857   0.687 -0.0366 -0.0516  0.0314
10216W        W30496   0.292   5.067   2.816  0.1775 -0.2026 -0.1961
10217W        W30497   9.796  15.541  16.235 -0.1969 -0.2399 -0.1048
10218W        W30498   4.297  15.553   3.692  0.1188 -0.0448  0.1807
10219W        W30499  12.335  11.852   1.944  0.0301 -0.0980  0.1857
10220W        W30500   0.973   0.288   2.873  0.1782  0.1419 -0.0233
10221W        W30501   6.915   5.927   0.076  0.4627  0.4131 -0.1579
10222W        W30502  16.655   5.660  15.279  0.1545 -0.0410 -0.0083
10223W        W30503   9.041   0.108   0.074 -0.6815 -0.1074  0.0261
10224W        W30504   6.891   0.070  14.926 -0.1295  0.2921 -0.2646
10225W        W30505  17.652   0.300   2.897  0.1219  0.1215  0.1043
10226W        W30506  14.976  10.220  14.726 -0.3486  0.0283 -0.1086
10227W        W30507  10.141  13.462   1.568  0.0430  0.0640  0.1384
10228W        W30508   3.063   6.438  16.003 -0.0754 -0.1331  0.1396
10229W        W30509   3.551  13.871  15.579 -0.0191 -0.6432 -0.0676
10230W        W30510   7.492  15.334  13.817  0.4050 -0.1115  0.1749
10231W        W30511   4.864  10.581  12.933  0.7257 -0.0387 -0.1260
10232W        W30512   7.188  11.542  12.151  0.2797 -0.0242  0.0445
10233W        W30513   9.690   4.973   3.580  0.2163 -0.3038  0.0279
10234W        W30514   6.440   2.350   1.839  0.0863  0.1507 -0.0352
10235W        W30515  14.950   2.260   1.610 -0.4767 -0.0657  0.0046
10236W        W30516  12.278  14.948   2.666  0.0558  0.2085  0.2418
10237W        W30517   7.495  11.506   2.748  0.2347  0.1107 -0.0405
10238W        W30518  16.965  17.513  14.830 -0.0998 -0.0521 -0.1553
10239W        W30519  17.576   6.114   3.079 -0.2158  0.0622  0.2587
10240W        W30520   3.712   2.368   2.669  0.0436  0.2093  0.2186
10241W        W30521   1.260  14.670  11.881  0.1146  0.0422 -0.0895
10242W        W30522  14.454   1.112  15.832 -0.1444  0.2631  0.0374
10243W        W30523   1.886  14.096   2.693  0.1049 -0.2445 -0.0755
10244W        W30524   9.832  14.570   0.105  0.5269  0.0241  0.0544
10245W        W30525   8.977   6.532   1.310  0.0001 -0.2036 -0.2106
10246W        W30526  16.865  17.660  13.981  0.0617 -0.1243 -0.1601
10247W        W30527   3.030   7.065  14.832 -0.1272  0.2729  0.0129
10248W        W30528   5.387  10.329  16.064  0.1299 -0.1890  0.0195
10249W        W30529   6.651   9.723   2.440 -0.3306 -0.1522 -0.2561
10250W        W30530  14.041   1.319  15.405 -0.3965 -0.0050 -0.1691
10251W        W30531   6.336   9.891  14.191 -0.1553  0.1040  0.0489
10252W        W30532  16.702   3.311   2.567  0.1485 -0.0298 -0.0937
10253W        W30533   7.748   4.303   2.466  0.1721  0.2904  0.1376
10254W        W30534   1.328   7.896   3.045  0.0174 -0.0647  0.1298
10255W        W30535   6.161  15.272   3.368  0.1573 -0.2476 -0.0924
10256W        W30536  12.859   4.800   4.480 -0.0591  0.0430  0.0920
10257W        W30537  17.167   1.105  12.751 -0.2866 -0.0865 -0.0685
10258W        W30538   0.452  15.877   2.156  0.1214 -0.0736 -0.0346
10259W        W30539  14.457  16.067   0.016  0.0425 -0.0260 -0.3574
10260W        W30540   8.327  17.852  11.987  0.3117 -0.0955 -0.0535
10261W        W30541   0.589   7.897  13.881  0.3268  0.2521  0.1228
10262W        W30542  17.525   7.675   0.790 -0.0076  0.0495  0.1270
10263W        W30543  15.046  10.932  15.625  0.2311  0.4325 -0.2405
10264W        W30544   4.360  17.198   1.526  0.1853 -0.3753  0.2171
10265W        W30545  13.490  11.984  14.661 -0.0084  0.2719 -0.0237
10266W        W30546   2.496  17.552  14.266  0.1455  0.0602  0.2305
10267W        W30547  14.246  14.618  16.019  0.5802  0.1061  0.0808
10268W        W30548   2.963   8.829  13.835 -0.1433 -0.0893  0.2748
10269W        W30549  16.733   4.003  12.790 -0.1087  0.3031  0.0639
10270W        W30550   1.049   0.264   1.863 -0.3503 -0.2854 -0.1221
10271W        W30551   5.756   1.173   2.341  0.0211  0.1820  0.0616
10272W        W30552   3.319   9.499  14.610 -0.0201 -0.1183  0.0237
10273W        W30553  16.377   7.279   3.110 -0.0239  0.1387 -0.1947
10274W        W30554   6.294  17.750  15.633 -0.1237 -0.1363  0.1163
10275W        W30555  14.119  11.992   0.692 -0.0038 -0.0303 -0.0545
10276W        W30556   4.259   5.758  15.663  0.1939 -0.1775  0.2387
10277W        W30557   7.888  15.746  13.215  0.3387 -0.2095 -0.2225
10278W        W30558  13.097   5.516  11.588 -0.1105  0.1359  0.1005
10279W        W30559   9.006   4.932  14.916 -0.0442  0.1037 -0.0991
10280W        W30560   5.258  13.532   3.843  0.0487 -0.2284  0.2532
10281W        W30561  15.776   9.964  12.092  0.0046  0.1047 -0.2651
10282W        W30562   1.333   1.956  16.534 -0.2449  0.1509  0.0175
10283W        W30563   1.231   1.400  15.882 -0.0986  0.2056  0.2525
10284W        W30564  14.859   1.462  14.860 -0.3026 -0.2108 -0.1987
10285W        W30565  13.479  17.235   3.469 -0.0046  0.1689 -0.1494
10286W        W30566  12.428   8.002  16.398 -0.0802  0.0083 -0.0005
10287W        W30567  13.037  10.293  15.219  0.0685 -0.0326  0.2342
10288W        W30568   3.732   6.995   0.449 -0.0403  0.0600 -0.5690
10289W        W30569   6.924   3.853  12.015  0.1118 -0.0162  0.1495
10290W        W30570  16.761   6.116  15.082  0.2652 -0.0285 -0.0259
10291W        W30571   4.902  13.287   1.890  0.1594  0.1950 -0.1081
10292W        W30572   1.202   9.622   5.977 -0.1371  0.1153 -0.0974
10293W        W30573   5.734   1.905  15.296 -0.1614  0.0764 -0.0572
10294W        W30574  12.897  14.979   4.346  0.2625 -0.2027 -0.0655
10295W        W30575   8.754   5.590   3.907  0.0318 -0.1705 -0.2906
10296W        W30576  11.573  17.673  14.930 -0.1686  0.0256  0.5175
10297W        W30577  10.955   4.995  14.749  0.2326 -0.1804  0.4119
10298W        W30578  17.675  13.669   4.388 -0.2374 -0.1832 -0.0004
10299W        W30579   1.865   8.705   1.270  0.1953  0.0097  0.0245
10300W        W30580  10.688  14.185   1.271 -0.1636 -0.1620  0.0507
10301W        W30581  13.998  15.870   5.265  0.0581 -0.0670  0.3896
10302W        W30582  17.775   2.015  15.221 -0.1399 -0.1456  0.1918
10303W        W30583  15.997  17.479   0.732 -0.0491  0.1638  0.2382
10304W        W30584  10.402   9.485   3.337  0.1018  0.0328 -0.1364
10305W        W30585  17.923   6.849  14.415  0.4271 -0.0483  0.1047
10306W        W30586  17.859  17.184   2.907  0.0546 -0.0726 -0.0961
10307W        W30587   8.168  17.957  15.565 -0.1186 -0.2227  0.0403
10308W        W30588   2.630   1.729   2.208  0.1599  0.0443 -0.1567
10309W        W30589   9.725   8.551  16.219  0.3960 -0.0454  0.0034
10310W        W30590  14.228  11.868  14.023 -0.3268 -0.0639 -0.0129
10311W        W30591  16.197   2.391  14.740 -0.2755  0.2741  0.1934
10312W        W30592   1.849   3.847   0.352  0.0443 -0.0613 -0.3539
10313W        W30593   5.431  14.507  15.030 -0.1824 -0.1219 -0.0252
10314W        W30594  16.877  10.943   2.442 -0.1954  0.0768  0.0850
10315W        W30595   7.296   1.392  14.944 -0.3800 -0.0242 -0.1675
10316W        W30596  14.819  15.612  12.603  0.3446 -0.0714 -0.1305
10317W        W30597  12.290   3.430  14.599 -0.2265 -0.2005  0.0488
10318W        W30598   3.126   8.139  14.666 -0.0909  0.0762 -0.0245
10319W        W30599   6.317  12.804  14.178 -0.0074  0.1795 -0.0008
10320W        W30600  17.724   1.191   3.377  0.2216  0.1014 -0.2174
10321W        W30601   2.807  11.002   4.522  0.0522 -0.0041  0.0677
10322W        W30602   4.875  15.082   4.735  0.0254  0.5053 -0.2201
10323W        W30603  17.710   1.536   3.751 -0.3870 -0.1361 -0.0716
10324W        W30604  10.269   8.280   0.333  0.0512 -0.1595  0.0859
10325W        W30605   7.194   6.688  14.542 -0.4814  0.1580 -0.2924
10326W        W30606  17.613   2.952   2.051  0.2520  0.2534  0.0647
10327W        W30607   4.283   8.173   0.136  0.0212 -0.1612 -0.0600
10328W        W30608  10.512  13.970  14.241  0.2311 -0.1753  0.1710
10329W        W30609  10.965  12.472  14.347 -0.0858  0.2907 -0.2549
10330W        W30610  17.613   9.226  12.190  0.1035 -0.2966 -0.2442
10331W        W30611  16.481   8.004   2.692  0.3637  0.2409  0.1977
10332W        W30612  11.007  10.055  12.045  0.2358  0.0347  0.0635
10333W        W30613  14.733  12.206  16.280  0.2223 -0.1454 -0.3197
10334W        W30614   0.456  13.898  15.515 -0.1983 -0.1974 -0.1750
10335W        W30615   8.303  17.264  16.378  0.0751 -0.0354 -0.3220
10336W        W30616   5.432  13.576   0.860  0.1206 -0.0795 -0.0374
10337W        W30617   2.921  10.898  15.948 -0.0941  0.0338  0.1508
10338W        W30618  14.734   0.615   3.208 -0.1147 -0.1343  0.0412
10339W        W30619   7.364  15.083   4.342  0.3227 -0.1545  0.1581
10340W        W30620   0.257   4.755  15.070 -0.2817  0.5101 -0.1008
10341W        W30621  11.285   9.426  14.147 -0.0816  0.2631  0.1357
10342W        W30622   1.326   5.829   0.152 -0.1319  0.0409  0.1865
10343W        W30623   8.622   3.059  15.618  0.3385 -0.0665  0.1020
10344W        W30624   9.313   0.962  11.127  0.0389 -0.1608 -0.3636
10345W        W30625  13.030   9.520  13.283  0.0506  0.1390  0.2338
10346W        W30626   5.815   0.626  14.128 -0.1015 -0.1575 -0.1509
10347W        W30627   1.171  13.480   0.685 -0.1183 -0.1337  0.0375
10348W        W30628  13.577   3.628  16.450  0.2970 -0.2394  0.1598
10349W        W30629   5.795  14.103   0.669  0.3000 -0.1747  0.2619
10350W        W30630   0.482   7.633   2.643  0.3187  0.0088 -0.2183
10351W        W30631   5.625   6.036  15.145  0.1843  0.2378 -0.1722
10352W        W30632   8.173   2.667   0.440 -0.0070 -0.0238  0.0105
10353W        W30633  10.608   1.876  13.931 -0.1369  0.2345  0.2337
10354W        W30634   2.491  10.162  13.134 -0.1785  0.3255 -0.5280
10355W        W30635   2.857  15.826  13.832 -0.1465 -0.1836  0.2689
10356W        W30636  16.239   2.887  14.715  0.0675  0.1116 -0.0905
10357W        W30637  15.199   6.007   2.715 -0.2155 -0.2420  0.3824
10358W        W30638  10.786   8.612  16.178  0.0319 -0.2743 -0.0048
10359W        W30639   8.376  10.767   3.329  0.1273  0.0332  0.0151
10360W        W30640   0.434  16.831  12.853 -0.3434  0.1334  0.0881
10361W        W30641   7.833  17.655  11.950 -0.0382  0.0194  0.1708
10362W        W30642  16.107   3.755   1.356  0.1286  0.0975  0.2740
10363W        W30643   9.935   7.469  15.168  0.0457 -0.0428 -0.1858
10364W        W30644  16.222  13.361   0.286 -0.1455  0.1223 -0.0601
10365W        W30645   5.514  17.465   0.985 -0.1985  0.2374  0.4722
10366W        W30646   4.413   5.155  14.478  0.0261  0.2860  0.4956
10367W        W30647   3.070   5.916  16.273 -0.0345 -0.1241 -0.1977
10368W        W30648  11.745  14.270   4.513  0.1448 -0.1550  0.0646
10369W        W30649  10.022   7.895  15.821 -0.3080  0.0497 -0.5158
10370W        W30650   9.954  15.176  16.620 -0.2233  0.1747  0.0994
10371W        W30651   8.742   3.448  13.367  0.1940 -0.0121  0.2198
10372W        W30652   0.013   2.095   1.525 -0.0271  0.0300  0.1082
10373W        W30653   9.547   6.222   2.908 -0.2971 -0.0660  0.2233
10374W        W30654   7.946   6.919   2.146 -0.0183  0.3585 -0.0620
10375W        W30655   1.365  13.600  15.451  0.3458 -0.2282 -0.2234
10376W        W30656  14.493  13.355   5.336  0.2672 -0.2308 -0.0471
10377W        W30657   4.498   4.687  16.651 -0.0358 -0.0008 -0.1464
10378W        W30658  13.277   9.671   4.797  0.0381  0.0522 -0.1482
10379W        W30659  16.936   0.638  15.994 -0.1801  0.4229  0.1259
10380W        W30660  13.286  10.394   1.089 -0.0672  0.2220  0.0573
10381W        W30661  12.623  16.674   3.483  0.3584  0.3307 -0.1193
10382W        W30662  13.910   8.336   1.960 -0.1067  0.4097 -0.1496
10383W        W30663  17.322  13.668   0.193 -0.0506 -0.2446 -0.2290
10384W        W30664   6.512   4.440  16.456  0.0936  0.1688 -0.4345
10385W        W30665   5.899   9.929  15.000  0.0475  0.1908  0.1073
10386W        W30666  13.566   1.754   1.082 -0.1146 -0.4701  0.0757
10387W        W30667  12.485   9.656   2.593 -0.0655  0.4007 -0.0325
10388W        W30668  13.932  13.381  14.749  0.2724 -0.0467 -0.0597
10389W        W30669  11.003  15.185  15.775  0.1012  0.3582  0.0845
10390W        W30670   5.694  14.212  15.298 -0.1733 -0.0018  0.3114
10391W        W30671  17.218   3.405   3.222  0.0416 -0.0012 -0.2174
10392W        W30672  17.114   9.855   1.875  0.0664 -0.5720  0.2777
10393W        W30673  10.331  13.119   1.260  0.2186  0.0547  0.0917
10394W        W30674  11.932   2.451  14.511 -0.0183  0.0712 -0.0764
10395W        W30675  14.204  14.744  15.077  0.3292 -0.2358 -0.0983
10396W        W30676  16.128  14.412   2.795  0.1096 -0.1628 -0.0148
10397W        W30677  11.422  12.540  12.528  0.0159 -0.1794 -0.1839
10398W        W30678   3.312   5.524   2.887  0.0989  0.0953  0.2675
10399W        W30679   6.283  13.025  13.639  0.0911 -0.2636  0.1615
10400W        W30680   1.839  13.489   2.755  0.2523  0.0602 -0.1264
10401W        W30681  12.802  13.855  13.585 -0.1876  0.1040  0.0495
10402W        W30682   4.334  13.962  15.495 -0.1022 -0.0691  0.2644
10403W        W30683   7.552   9.546  16.258  0.0386 -0.1323 -0.0060
10404W        W30684   0.829   2.519   3.995  0.1765 -0.1239  0.2194
10405W        W30685   9.177  11.501  13.853 -0.0656  0.0278 -0.0359
10406W        W30686  15.619   7.403   2.144 -0.1041  0.1192  0.1742
10407W        W30687  10.481  11.116  12.780  0.1724  0.0621 -0.2875
10408W        W30688  10.893  10.535  11.918  0.0956  0.1413 -0.2782
10409W        W30689   0.311   1.739  13.367 -0.0632 -0.1960  0.1491
10410W        W30690   8.087  16.861   2.112  0.1525  0.0095  0.0782
10411W        W30691  13.080  17.890   0.254  0.1859 -0.1631 -0.2180
10412W        W30692  13.960  17.802  13.245 -0.2543  0.1741 -0.0849
10413W        W30693   7.003  16.112  16.239  0.1150  0.1182  0.2034
10414W        W30694  13.206  11.217  16.537  0.0954 -0.0150  0.2220
10415W        W30695  16.652  10.640   4.070 -0.2741 -0.1766  0.0880
10416W        W30696   8.290   3.411   4.645  0.1143 -0.3176 -0.0080
10417W        W30697  17.445  12.194  13.874 -0.1316  0.3228 -0.0305
10418W        W30698   4.099  11.245  13.724  0.1003  0.1889 -0.0727
10419W        W30699  14.494   1.896   0.397  0.0898 -0.4432  0.2810
10420W        W30700  15.652   6.912   2.959 -0.0869  0.2399 -0.2741
10421W        W30701   1.505   6.100   2.811  0.1437 -0.0617 -0.1586
10422W        W30702  11.309  12.256   1.409 -0.0834  0.2051  0.1797
10423W        W30703  11.380  15.955  13.561 -0.2495 -0.1984 -0.3694
10424W        W30704   3.645  11.344   5.075  0.3402 -0.0617 -0.0913
10425W        W30705  14.618  14.468   2.106  0.1322  0.2008 -0.0361
10426W        W30706  16.684  16.283   4.125  0.0054  0.0942  0.0250
10427W        W30707  12.238   8.339  15.892 -0.0267 -0.0922  0.2682
10428W        W30708  10.611   0.054   4.847 -0.0371  0.1868  0.0042
10429W        W30709   8.045  15.424   3.250  0.2665 -0.1052  0.3293
10430W        W30710   2.910   6.400  12.395 -0.0063  0.0305  0.0967
10431W        W30711   0.599  16.893   2.322  0.2066  0.0767  0.2773
10432W        W30712   7.274   6.256  10.914  0.1586  0.0094  0.2179
10433W        W30713   6.594   6.288  16.213  0.1242 -0.2038  0.1456
10434W        W30714   8.363   2.991   1.266  0.0893  0.0318  0.3175
10435W        W30715   6.438   5.918  13.461 -0.0904 -0.0103 -0.2692
10436W        W30716  11.407   2.229  16.499 -0.2977 -0.2420  0.2975
10437W        W30717   7.284   9.147  13.613 -0.0400 -0.2534 -0.1404
10438W        W30718   4.945  15.145   4.140 -0.0664 -0.1202  0.0201
10439W        W30719   4.128  10.761  13.349  0.2072  0.0875 -0.0528
10440W        W30720  17.659  10.040  14.699 -0.3916  0.2383  0.2188
10441W        W30721  13.461   9.582   0.002  0.2084 -0.0860 -0.3546
10442W        W30722  15.330  17.230  12.844  0.0089 -0.2328 -0.2266
10443W        W30723  11.383   4.737   1.531  0.1121  0.1519  0.1700
10444W        W30724   5.350   6.606   3.310 -0.1604  0.0840  0.0132
10445W        W30725   1.451   4.489  13.634 -0.0790  0.1619 -0.1060
10446W        W30726  13.935   4.874   0.693 -0.0006 -0.1362  0.0851
10447W        W30727  17.442  15.543   4.746 -0.1177 -0.0462  0.3250
10448W        W30728   7.087  13.443  12.500  0.0899  0.1856 -0.4781
10449W        W30729   2.686   1.548   4.483 -0.0726 -0.1205  0.0252
10450W        W30730   1.864   2.422   2.883 -0.0139  0.0755 -0.1995
10451W        W30731  12.990  10.057   1.519  0.0761  0.0676  0.1464
10452W        W30732   9.307  16.710  13.214 -0.1060 -0.0398 -0.0868
10453W        W30733   0.071   8.436  14.527  0.2000 -0.3507  0.0522
10454W        W30734   0.700   9.943   5.024  0.1369  0.2332 -0.0280
10455W        W30735   8.237  17.682   2.360  0.0879 -0.1147  0.3742
10456W        W30736  12.293   5.368  13.769  0.0243 -0.1738  0.0737
10457W        W30737  14.416  15.629   1.727 -0.1756  0.1199  0.2754
10458W        W30738  13.030  13.130  14.112  0.0517 -0.1141 -0.0257
10459W        W30739  17.554   0.227  13.842 -0.1472  0.1251  0.0452
10460W        W30740   0.853  14.860  15.558 -0.2157  0.1085  0.0132
10461W        W30741  10.910   1.084  14.253 -0.1366  0.1693 -0.0298
10462W        W30742  10.864  15.226   1.715  0.2579  0.1741  0.2142
10463W        W30743  17.490   8.277   1.861  0.0104  0.1076 -0.2637
10464W        W30744  10.935   4.900   1.470  0.0868 -0.2583 -0.2705
10465W        W30745   3.266   2.044  16.668 -0.5274 -0.1731  0.2627
10466W        W30746   0.096  11.773   1.257 -0.4684  0.1545 -0.0704
10467W        W30747   5.541   1.895  16.295  0.0726 -0.2462  0.1974
10468W        W30748  17.819  10.134   2.220  0.0706  0.2781 -0.0480
10469W        W30749  13.058   8.081   1.238  0.3206  0.0216 -0.0454
10470W        W30750  16.520   2.243   4.140 -0.0015 -0.0956  0.2206
10471W        W30751  12.889   4.046   0.243 -0.2565 -0.2315 -0.1232
10472W        W30752   6.871   0.148   2.571  0.0904 -0.2650 -0.2802
10473W        W30753  15.626   8.799  15.718  0.1892  0.0693 -0.0954
10474W        W30754  17.695  13.112   4.828  0.0974 -0.0964  0.1184
10475W        W30755   2.196   1.952   1.745  0.2922 -0.1117  0.1955
10476W        W30756   2.858   8.995  15.228 -0.2020  0.4024 -0.0188
10477W        W30757  14.361   9.417  12.726 -0.0976  0.1150  0.0430
10478W        W30758  11.539   7.651   0.560 -0.4391  0.0281 -0.3346
10479W        W30759   8.083   3.283  16.528 -0.4110 -0.0201  0.1420
10480W        W30760  17.508   1.040  14.111  0.1374  0.2739  0.1963
10481W        W30761   9.340   4.059   1.592 -0.0293  0.1561 -0.0250
10482W        W30762   2.997  15.256   4.551  0.0175  0.1559  0.0230
10483W        W30763  16.968   0.261  14.342 -0.2488 -0.0556 -0.0265
10484W        W30764  11.697  17.870  11.801  0.2682  0.0960  0.4248
10485W        W30765   2.318  16.745   0.837  0.0045 -0.2763  0.1413
10486W        W30766   5.487  16.853  11.966 -0.1111 -0.1891 -0.1367
10487W        W30767   1.799   3.683  12.783  0.0818 -0.3489  0.0142
10488W        W30768   3.069   9.634  12.339  0.1207  0.0431  0.0815
10489W        W30769  17.291   3.376   2.240 -0.1195  0.0278 -0.0875
10490W        W30770  10.317  14.137  14.633 -0.0265  0.3849 -0.2271
10491W        W30771  11.167   5.739   0.107  0.0754  0.0696  0.0914
10492W        W30772  17.267   0.100   3.294  0.1605 -0.0836 -0.1516
10493W        W30773   4.521   4.191  15.447 -0.0458  0.0921  0.1224
10494W        W30774   6.827  12.475  16.120  0.0478  0.0862  0.0499
10495W        W30775   2.868  17.242  14.519 -0.2092 -0.0680 -0.1802
10496W        W30776  13.759   3.658  13.832  0.2626  0.0383  0.3395
10497W        W30777  13.052   5.022  11.698 -0.1790  0.3092  0.3635
10498W        W30778  11.535  11.921   3.335  0.1175 -0.0144 -0.1647
10499W        W30779   2.845   0.502  13.967  0.1308 -0.0554 -0.2526
10500W        W30780   1.292  15.753   3.542  0.2641 -0.1671  0.1098
10501W        W30781   3.157   4.639  13.999  0.0385  0.1488 -0.2183
10502W        W30782   2.908   0.877  16.154 -0.0625 -0.0528 -0.1646
10503W        W30783   6.688   2.801   1.927  0.2156  0.1079  0.1125
10504W        W30784   7.824   2.080   2.705  0.0404  0.0913  0.1097
10505W        W30785   0.603   7.729   1.339  0.1684 -0.0557 -0.1811
10506W        W30786   6.587   5.888  15.401 -0.0696 -0.0122  0.2956
10507W        W30787   5.517   5.071  14.399  0.1243  0.0630 -0.0407
10508W        W30788   9.069  12.802  13.247  0.1870  0.0242 -0.0735
10509W        W30789  14.265  11.880   3.162 -0.2549  0.1749 -0.1702
10510W        W30790   4.017   9.732   1.958  0.0719  0.1939  0.0287
10511W        W30791  15.054  10.807  16.601  0.2621 -0.2947 -0.3578
10512W        W30792  12.568   6.580   2.325 -0.1173  0.2804  0.2008
10513W        W30793   2.520  12.013  16.286 -0.2391  0.0317 -0.2106
10514W        W30794   9.628   5.328   3.116 -0.4197 -0.1578  0.1730
10515W        W30795  17.199  17.782   2.500  0.1679  0.1175  0.2064
10516W        W30796  11.397  16.943  15.429 -0.1068  0.3710 -0.0289
10517W        W30797   0.406  10.059   1.343  0.0362  0.2115 -0.1558
10518W        W30798  13.016   2.936  12.086 -0.2361 -0.0626 -0.2437
10519W        W30799  16.069  16.259  14.568 -0.0668  0.0843 -0.1305
10520W        W30800   7.465  13.356   2.411 -0.2031  0.0730 -0.0700
10521W        W30801  17.541   5.057   4.461 -0.0361 -0.4045  0.0353
10522W        W30802   1.761   6.776   5.101 -0.1729 -0.0903  0.0627
10523W        W30803   1.031   1.901  12.989  0.1186 -0.0646  0.1710
10524W        W30804  12.996   9.538  12.247  0.1072 -0.2641 -0.1612
10525W        W30805  14.720  16.060   1.692 -0.2492 -0.0847  0.0460
10526W        W30806   9.314   2.119   4.170  0.0586 -0.0364 -0.0647
10527W        W30807   8.991  13.675  14.000 -0.0844 -0.0385 -0.3168
10528W        W30808  14.205   9.360   3.203 -0.0192 -0.2542  0.2838
10529W        W30809  12.914  14.953  11.883 -0.2739  0.0899 -0.3427
10530W        W30810  16.234   3.786  12.760  0.0427  0.0251  0.1732
10531W        W30811   6.878  10.783  12.125 -0.3186  0.0598  0.1358
10532W        W30812   6.309   4.802   1.358  0.2659 -0.1343 -0.0052
10533W        W30813  14.424  15.538   2.423 -0.1107  0.1013  0.1634
10534W        W30814   4.455  14.978   3.079 -0.0371 -0.4661 -0.2141
10535W        W30815   0.272  14.434  11.925  0.1064  0.0462 -0.0469
10536W        W30816   8.323   4.209   3.967 -0.1533  0.1525  0.2408
10537W        W30817   3.329   9.959  13.686  0.1007  0.1837 -0.1961
10538W        W30818  13.748  11.806  13.862 -0.1672  0.1991 -0.0418
10539W        W30819   8.970  17.547  10.955 -0.0911  0.1461  0.3827
10540W        W30820   6.364   0.106  12.458  0.3042  0.0653  0.2474
10541W        W30821   5.864  12.060  14.421  0.1718  0.0796 -0.1367
10542W        W30822  13.278  14.374   1.990  0.1053 -0.0430  0.1913
10543W        W30823   0.102  17.405  14.880  0.0338  0.3266  0.0267
10544W        W30824  16.140  16.469   0.702  0.0113  0.1026 -0.2728
10545W        W30825  14.445  13.916   4.348 -0.0349 -0.1095  0.0303
10546W        W30826  15.310  15.974  14.334  0.1113  0.0268  0.0661
10547W        W30827   2.779   5.909  14.760 -0.1342 -0.0531 -0.2031
10548W        W30828  13.198  14.096  12.365  0.0154 -0.1333 -0.3802
10549W        W30829  17.645   0.920  12.824 -0.0521  0.1213  0.0474
10550W        W30830   0.428  11.847   0.931  0.1553  0.0848 -0.0291
10551W        W30831  16.489   2.584  15.651  0.1445 -0.1762 -0.1224
10552W        W30832   4.232  13.790  13.277  0.1498  0.3412  0.1958
10553W        W30833   9.835   6.662   2.261 -0.2199  0.2642  0.2485
10554W        W30834   5.374   7.456   2.367 -0.1323 -0.0983 -0.0990
10555W        W30835   6.616  12.047   4.034 -0.0689  0.1663  0.0433
10556W        W30836  12.679   5.714  12.353 -0.0249 -0.2768 -0.3204
10557W        W30837  15.945   3.624   4.364  0.2998  0.2253  0.3519
10558W        W30838  11.376   5.589  13.992  0.0082  0.0509  0.1178
10559W        W30839   3.658   4.224   1.524 -0.4877  0.1337 -0.3912
10560W        W30840  17.139   6.544   1.306 -0.0821  0.0766 -0.2666
10561W        W30841  16.847   1.298  13.296  0.1874  0.3650  0.0930
10562W        W30842  16.245  17.115  16.443  0.3394  0.0291  0.0279
10563W        W30843  14.870  15.490  13.449 -0.0775  0.1445 -0.1735
10564W        W30844   3.885  12.744   2.801  0.0937 -0.0698  0.1731
10565W        W30845   0.535  12.327  15.640 -0.2870 -0.2226 -0.2166
10566W        W30846   3.959  16.423   3.409 -0.1469  0.1067  0.1393
10567W        W30847   9.624  12.121  12.775 -0.2448  0.0658  0.0825
10568W        W30848   2.915   7.911  13.827 -0.0095  0.0050 -0.0032
10569W        W30849  10.255  17.057   3.146  0.1699 -0.4634  0.1115
10570W        W30850  10.788   9.578  14.020 -0.2235 -0.0232  0.3294
10571W        W30851   1.367  16.291   3.680 -0.1826 -0.1402 -0.0207
10572W        W30852   4.454   4.467   2.099  0.0756 -0.3012  0.0039
10573W        W30853   0.554   8.618  12.359 -0.0472  0.0975 -0.0314
10574W        W30854  13.756   4.158   2.402 -0.0794  0.0459 -0.2463
10575W        W30855  10.038   9.483  15.905  0.0283 -0.3348  0.3720
10576W        W30856  14.433  16.320  13.598  0.0405  0.1083  0.0376
10577W        W30857   1.116  15.661   4.862  0.2290  0.1532  0.2229
10578W        W30858  14.748  11.440  15.557  0.0107  0.0103 -0.2538
10579W        W30859  17.562  12.973   1.503 -0.0218 -0.0608  0.0110
10580W        W30860   2.926   5.349   0.904 -0.2313 -0.1564  0.3228
10581W        W30861   7.021  13.776  13.642  0.0825  0.1906  0.3844
10582W        W30862  14.640   8.516  14.109 -0.0716 -0.0249 -0.0215
10583W        W30863   3.347  13.637   1.669 -0.0273  0.0083 -0.2226
10584W        W30864   4.686   4.356  12.083 -0.1721 -0.0781 -0.1422
10585W        W30865  13.656  12.859   0.575 -0.2075 -0.2079 -0.3613
10586W        W30866  13.636   8.219  14.329 -0.1003 -0.0267  0.2151
10587W        W30867   8.882  16.633  16.199  0.0622 -0.1398  0.0297
10588W        W30868   9.019   7.057   4.243 -0.0277  0.0970  0.1820
10589W        W30869   5.188   0.815  15.091  0.3013  0.0407  0.2307
10590W        W30870  10.048  12.118   1.328 -0.1079 -0.1389  0.1947
10591W        W30871   3.320  13.528   4.835  0.0997 -0.1897 -0.0352
10592W        W30872   3.122  13.302   0.103  0.2814 -0.0474  0.0589
10593W        W30873  15.850  14.470  16.052 -0.0525 -0.2144  0.3869
10594W        W30874   8.853  13.164  14.204 -0.0920  0.0794 -0.1071
10595W        W30875  17.428  14.414  14.718  0.0851 -0.0815  0.0209
10596W        W30876  12.581   5.017  13.552 -0.3971 -0.4296 -0.1132
10597W        W30877   0.316  15.500  13.410  0.2568 -0.0152  0.1069
10598W        W30878  10.882   9.153   3.883  0.0766  0.1575  0.1101
10599W        W30879   4.409   5.037  16.050 -0.2626  0.0182 -0.0584
10600W        W30880  14.523  13.617   4.721  0.1824 -0.0538  0.0614
10601W        W30881  10.307   2.870   0.400 -0.1106 -0.4110  0.0479
10602W        W30882  17.015   3.298   0.333 -0.1831 -0.0342 -0.1631
10603W        W30883   8.193  12.476   1.667  0.1914 -0.2434  0.1418
10604W        W30884   2.663   4.020  14.850  0.1141 -0.0067  0.3562
10605W        W30885  16.980   2.213  16.460 -0.3919 -0.2466  0.1013
10606W        W30886   8.107   9.044  14.894  0.2404  0.1348  0.1430
10607W        W30887  14.758  14.835  16.153 -0.2729 -0.0142 -0.0764
10608W        W30888   4.004   1.042  13.952  0.1345  0.3845 -0.1845
10609W        W30889   4.539  15.027  13.117 -0.3205 -0.0292  0.1041
10610W        W30890  10.388  11.365  14.177 -0.0025  0.0480 -0.2138
10611W        W30891  15.622  17.477  16.016 -0.3011 -0.2225 -0.1549
10612W        W30892   2.404   1.250  14.849 -0.1721 -0.3246  0.4028
10613W        W30893   0.246   8.330  13.803 -0.0329 -0.1371  0.0799
10614W        W30894   5.770  11.344   1.498  0.2440 -0.0466  0.2981
10615W        W30895  13.761  10.604  11.869  0.1574 -0.1610  0.2425
10616W        W30896   1.600  15.112  14.244 -0.2603  0.1059  0.0681
10617W        W30897   8.579  13.670   4.596  0.3524 -0.1463 -0.0021
10618W        W30898   2.030   6.509   3.434  0.3239 -0.0603 -0.2385
10619W        W30899  13.475  10.758  13.617  0.2161  0.2107  0.0975
10620W        W30900   8.102   8.831   4.621 -0.1534 -0.0181 -0.4050
10621W        W30901  10.508   1.429  13.700 -0.4131  0.2696  0.3758
10622W        W30902  16.122   7.450  14.318 -0.2985  0.0440 -0.1218
10623W        W30903   8.909  11.502  13.295 -0.1690  0.2028  0.2462
10624W        W30904  14.250   4.333  14.237 -0.0772  0.0610  0.0482
10625W        W30905   0.913   1.392  14.882  0.1600  0.0702 -0.0793
10626W        W30906   8.524   6.623  14.645  0.2457  0.1696  0.0791
10627W        W30907  12.072  15.579   0.183  0.0957 -0.2554  0.1604
10628W        W30908  14.253  14.132   2.323 -0.1574 -0.0278  0.1219
10629W        W30909   6.093   8.720   1.760  0.2296 -0.3033 -0.0574
10630W        W30910  14.515   8.846   2.410  0.1280  0.2289 -0.3119
10631W        W30911  10.240   0.941  12.722  0.1182 -0.0526 -0.0658
10632W        W30912   0.965   7.690   4.904  0.0236 -0.1964  0.1678
10633W        W30913   5.050   1.570  16.330 -0.1489  0.3822  0.0880
10634W        W30914   1.160  17.883  13.795 -0.0489 -0.1121 -0.4243
10635W        W30915  14.863  14.736  13.056  0.2030  0.1601  0.1020
10636W        W30916  13.862  10.786  16.284  0.1805  0.0695 -0.2671
10637W        W30917   2.298   1.903  11.525  0.0662  0.1141  0.0308
10638W        W30918  13.461  15.852   0.177 -0.0676 -0.1154  0.1315
10639W        W30919   3.048  15.864   4.286  0.1639 -0.1106 -0.1777
10640W        W30920  12.752  16.007   0.721 -0.0194  0.0504  0.2530
10641W        W30921   9.249   7.894  14.626 -0.0020 -0.0628  0.0416
10642W        W30922  16.204  16.408  15.052  0.3014 -0.2462  0.4880
10643W        W30923  10.052   0.740   2.956 -0.1592 -0.0862 -0.3283
10644W        W30924  13.121   5.642  14.151  0.1429 -0.0498 -0.2150
10645W        W30925   4.641   8.118  13.246  0.0281  0.3536  0.0975
10646W        W30926   7.744  17.199   0.377 -0.1269 -0.1397 -0.1912
10647W        W30927  13.597  14.579   0.004  0.2384  0.0388  0.2183
10648W        W30928   7.373  16.635  12.754 -0.0963  0.2322 -0.1923
10649W        W30929   7.487  12.511  15.684  0.0896 -0.2630  0.0032
10650W        W30930   9.148   2.095  11.887 -0.0682 -0.1987 -0.0329
10651W        W30931  15.535   8.686  13.696  0.1045  0.2520  0.0580
10652W        W30932   8.967   0.663   3.019 -0.0123 -0.5315 -0.2427
10653W        W30933   1.086  11.938  12.639 -0.2213 -0.2284  0.1424
10654W        W30934   9.673   3.309  14.239  0.1808 -0.1680 -0.0201
10655W        W30935  13.941  10.896  13.492  0.2051 -0.1922 -0.1145
10656W        W30936   3.528  12.856  14.815 -0.2270 -0.2801  0.0001
10657W        W30937  10.836  11.860   3.717  0.0483 -0.0969  0.0455
10658W        W30938   7.701   0.611   0.304 -0.0582 -0.1642 -0.1044
10659W        W30939  10.404  14.345  12.909 -0.0898  0.1963  0.2282
10660W        W30940  10.093   1.349  13.447 -0.1419 -0.2054 -0.2023
10661W        W30941   0.157   2.978   2.279 -0.0466  0.0198  0.0632
10662W        W30942   5.136   9.030  13.784  0.1062  0.2328 -0.0990
10663W        W30943   5.204   3.021  15.176 -0.0269 -0.3388 -0.1067
10664W        W30944  10.550   7.904   2.131  0.0125  0.0225  0.1867
10665W        W30945   2.323  10.335  13.719 -0.1491 -0.1314 -0.1286
10666W        W30946   3.537  12.323   4.055  0.1494  0.0632  0.0295
10667W        W30947   8.220  13.329   4.821 -0.0789  0.2632  0.3431
10668W        W30948   6.855   3.930   1.922 -0.0255 -0.1634  0.2252
10669W        W30949   7.703   7.900  13.825 -0.2564  0.1229 -0.3634
10670W        W30950   9.029  13.637  16.139  0.1207  0.1798 -0.0883
10671W        W30951   3.419   1.133   3.883 -0.0706  0.1394 -0.2283
10672W        W30952  17.184  13.836  13.032 -0.3390  0.0709 -0.2833
10673W        W30953   0.493  10.837  11.949  0.0620 -0.0799 -0.1253
10674W        W30954  17.023   3.325   4.219 -0.0741  0.1354 -0.1790
10675W        W30955   0.835   8.204   0.946 -0.0170  0.3172  0.0858
10676W        W30956  17.658   1.339  15.667  0.1030  0.3312 -0.1999
10677W        W30957  12.685   3.185  11.664 -0.0138 -0.2114 -0.4143
10678W        W30958  12.031  16.389  15.479  0.2167  0.1175 -0.1538
10679W        W30959  11.974  17.784  12.732 -0.0236  0.1483  0.0875
10680W        W30960   3.617   3.209   0.426  0.0165  0.1544 -0.4081
10681W        W30961  17.327  12.459  12.612  0.0464 -0.0758 -0.1519
10682W        W30962  15.836   2.011  15.756  0.0686 -0.3405 -0.2793
10683W        W30963   5.952   8.687   0.871  0.0010 -0.3571  0.1713
10684W        W30964   2.973  13.887   6.368  0.0335 -0.0169  0.1127
10685W        W30965   5.373  15.693  14.301 -0.1037 -0.2569 -0.0809
10686W        W30966  11.539   0.582  16.201 -0.0436  0.1441 -0.0552
10687W        W30967  10.826  12.968   1.245 -0.0154  0.0960  0.2704
10688W        W30968  15.551   1.543   3.490 -0.0258  0.1785  0.2574
10689W        W30969  10.630   3.738   5.552  0.1712 -0.1161  0.0873
10690W        W30970  14.507   2.977  13.422  0.0778  0.1568  0.0123
10691W        W30971  11.166  16.132   3.852 -0.2282  0.1337 -0.0566
10692W        W30972  15.422  17.963  15.912  0.2756 -0.0123 -0.1577
10693W        W30973   9.537   9.963   4.769 -0.6000  0.3517 -0.0313
10694W        W30974   0.516  14.188   4.511 -0.1102 -0.1585 -0.0297
10695W        W30975  16.518  15.169   0.852 -0.1759  0.1306  0.1209
10696W        W30976   6.529   3.442   1.024 -0.0535  0.3353 -0.1874
10697W        W30977   0.954   0.785  14.025  0.1657  0.3091 -0.0399
10698W        W30978   6.484   7.494   3.324 -0.0212 -0.1818 -0.3656
10699W        W30979   4.634  14.527   0.121  0.3453 -0.2089 -0.1891
10700W        W30980  11.777   8.320  16.010 -0.3100 -0.1197  0.0260
10701W        W30981  11.169   3.150   4.389 -0.0028 -0.0846 -0.2800
10702W        W30982   8.618   2.802  11.785  0.3008  0.2429 -0.0480
10703W        W30983   7.939   1.669  15.707 -0.0066 -0.1967  0.2672
10704W        W30984  14.789   2.602   3.912 -0.1162  0.1588  0.0026
10705W        W30985   9.741   1.046   4.677  0.1863 -0.2580  0.1602
10706W        W30986   7.787  16.096   1.749 -0.0862  0.1645 -0.1904
10707W        W30987  17.174  15.616  12.956  0.3359 -0.2978 -0.0127
10708W        W30988  13.375   1.933  11.861 -0.0155  0.0435 -0.2914
10709W        W30989   0.760   5.825   3.160  0.1954  0.2575 -0.3645
10710W        W30990   1.989  11.885  14.978 -0.0698 -0.1385 -0.0958
10711W        W30991  15.522  15.793   4.546  0.5903 -0.0429 -0.2939
10712W        W30992   4.335   4.734   1.668  0.2380  0.0038  0.3085
10713W        W30993  16.583   8.458  13.743  0.2292  0.2628  0.0067
10714W        W30994  16.576  13.295   3.815 -0.0409 -0.1730  0.3598
10715W        W30995  17.305   0.665   0.554  0.3385  0.0305 -0.3755
10716W        W30996   9.807   4.072  14.912 -0.1075 -0.0965  0.1326
10717W        W30997   2.130  13.472   4.808  0.2863  0.0304  0.1215
10718W        W30998  11.360   9.460  15.391  0.0394 -0.0083 -0.1669
10719W        W30999  14.862  13.019   0.283 -0.1697  0.0105  0.0872
10720W        W31000   7.862  10.517   0.654  0.0101 -0.2557  0.0259
10721W        W31001  10.917   5.265  15.153 -0.2696  0.1425  0.0166
10722W        W31002   8.287   1.415   3.405  0.0719  0.1991  0.0566
10723W        W31003  15.655   0.860   4.936  0.2536  0.2507 -0.2719
10724W        W31004  12.212   7.633   2.778 -0.0928 -0.0577 -0.1886
10725W        W31005  17.665   0.098  15.737  0.0887 -0.2121  0.0252
10726W        W31006   8.743  11.998   2.704 -0.2466 -0.1758 -0.0040
10727W        W31007   8.231  17.604  14.760  0.0576  0.2669  0.1254
10728W        W31008  10.329   4.694  11.681  0.3481  0.0751  0.0608
10729W        W31009  11.596  13.922   2.225 -0.0740  0.0237  0.2744
10730W        W31010   3.403   3.440  15.997  0.1537  0.0615 -0.1826
10731W        W31011  17.709  13.794  13.051 -0.3893 -0.1337  0.1105
10732W        W31012   8.242  11.507   2.987  0.1970 -0.3639  0.0240
10733W        W31013   3.547  11.569   4.606  0.0037  0.1559 -0.1885
10734W        W31014   8.867   3.853  16.044  0.1199  0.0263  0.1285
10735W        W31015  10.148  15.739  13.301 -0.2079 -0.0310 -0.1246
10736W        W31016   2.083   3.326  15.351 -0.4061 -0.1352 -0.1640
10737W        W31017   3.037  17.743   2.945  0.1795  0.2779 -0.3021
10738W        W31018  15.431  16.654  13.575 -0.0729  0.0961 -0.2276
10739W        W31019   7.511   2.187   3.953  0.0279 -0.0575 -0.2542
10740W        W31020  16.681  12.144  15.457 -0.3173 -0.3564  0.2118
10741W        W31021  12.278  11.354   1.085 -0.0971 -0.2401  0.0929
10742W        W31022   2.794   5.741   2.159 -0.0348 -0.0629 -0.3038
10743W        W31023   9.239  13.187  16.193  0.0590  0.1886  0.1404
10744W        W31024   3.232   0.539  15.274 -0.1531  0.0903 -0.3553
10745W        W31025  15.882   7.304   3.746 -0.0785  0.2205  0.1433
10746W        W31026   8.249  16.972  13.101 -0.0629  0.3519 -0.4456
10747W        W31027   1.069  15.421   2.538 -0.0628  0.3477 -0.0930
10748W        W31028  13.780   5.067  14.026 -0.3746  0.1748  0.0795
10749W        W31029  10.092  17.246   0.686 -0.0738  0.0217 -0.0819
10750W        W31030   6.208   8.922   2.216  0.5612 -0.1005  0.0744
10751W        W31031   2.367   8.865  14.641 -0.0900 -0.2031  0.0644
10752W        W31032   9.462   6.743  15.288 -0.2699  0.3903 -0.0518
10753W        W31033  15.086  14.546   0.463  0.0166 -0.0502 -0.0221
10754W        W31034   4.857   2.785   2.537 -0.0186  0.0114 -0.1389
10755W        W31035  15.539   0.017   0.229  0.1595  0.1820 -0.1791
10756W        W31036   2.675   7.125  14.463 -0.0314 -0.2640  0.0621
10757W        W31037  14.944  15.300   3.239 -0.0792 -0.0301 -0.0930
10758W        W31038  16.687   3.623   0.742  0.2305 -0.0547 -0.2198
10759W        W31039  11.356   6.191  16.675  0.2074 -0.1625 -0.1442
10760W        W31040   0.716  10.757   2.129 -0.0285 -0.1070  0.0024
10761W        W31041   1.834   3.042   0.226 -0.1392  0.1512  0.4554
10762W        W31042   1.211  15.512  12.934 -0.2534  0.0715 -0.1434
10763W        W31043   5.499  13.775   4.278  0.0574 -0.1027  0.2724
10764W        W31044   2.804  14.161  13.296  0.0594 -0.0568  0.1155
10765W        W31045   8.357   7.583   1.032  0.1967  0.1416 -0.1123
10766W        W31046   5.678  15.525  10.901 -0.0968  0.0398 -0.1445
10767W        W31047   7.238  17.662  14.951  0.4942 -0.0972 -0.2501
10768W        W31048   3.275   8.858   1.795  0.4377  0.0276  0.1066
10769W        W31049  15.424   6.687  12.200 -0.1792 -0.4059  0.3442
10770W        W31050   6.590   1.029   4.823 -0.2403 -0.0036  0.0733
10771W        W31051  13.640  16.679   1.532 -0.0376  0.1310  0.1523
10772W        W31052   8.404   5.573   0.906 -0.1774 -0.2244  0.0532
10773W        W31053  12.044   6.910  12.410  0.3000  0.1462  0.0967
10774W        W31054   1.689   6.488   3.038 -0.1287 -0.5246  0.1057
10775W        W31055   2.880   5.304  14.584 -0.1775 -0.5078 -0.1252
10776W        W31056   7.402   8.683  12.774 -0.2253 -0.0252  0.1651
10777W        W31057  16.689   1.214  12.199  0.1195 -0.0044 -0.1540
10778W        W31058  15.284   1.774   4.415 -0.0666  0.0631  0.1346
10779W        W31059   6.658   6.441   1.588 -0.0792  0.1454  0.3510
10780W        W31060   8.046   0.187   3.084 -0.1813 -0.0879  0.0427
10781W        W31061  10.725   2.364   0.393 -0.1430 -0.0773 -0.0805
10782W        W31062   7.327  17.831  15.575 -0.0566 -0.0480 -0.0986
10783W        W31063   1.951   9.200  13.541  0.1457  0.0387 -0.0278
10784W        W31064  16.314  14.936  15.323  0.0359 -0.0170  0.0398
10785W        W31065   3.607   0.436  16.439  0.0342 -0.0586  0.2478
10786W        W31066  12.912   5.248  14.651  0.1502  0.1432  0.0817
10787W        W31067  11.030  15.509   1.361 -0.2712 -0.1360 -0.0518
10788W        W31068   4.328   5.048   0.338 -0.0893  0.4713 -0.2860
10789W        W31069   8.416   2.729  14.013  0.2284 -0.1597  0.1482
10790W        W31070   2.845   3.634  13.851 -0.0003  0.1053 -0.1911
10791W        W31071  14.305   3.817  10.355  0.2031 -0.0493  0.0287
10792W        W31072   9.126   9.711  16.352 -0.1234  0.3218  0.0168
10793W        W31073   6.979  14.553   0.005  0.2018  0.0198 -0.0897
10794W        W31074  13.707   6.565  15.643 -0.1065 -0.1955  0.2798
10795W        W31075  13.674   4.848  15.203  0.2028  0.1321 -0.0474
10796W        W31076   4.616  16.378   1.947 -0.1337  0.1310 -0.1506
10797W        W31077   3.002   6.168   5.050 -0.1228  0.3422  0.0249
10798W        W31078   8.247  11.387  15.091 -0.2975  0.2099  0.0574
10799W        W31079   1.648   1.670  12.097  0.3792 -0.1143 -0.1159
10800W        W31080   2.928   4.577  12.526 -0.1085 -0.2100 -0.1731
10801W        W31081   3.872   9.024  15.287 -0.0136 -0.1744  0.0690
10802W        W31082  17.126   8.081   0.154  0.1300 -0.0750  0.1655
10803W        W31083   5.478  10.928  15.502  0.1880  0.2343  0.0981
10804W        W31084  14.672  14.728   3.158  0.1233  0.0973 -0.0101
10805W        W31085   4.479   1.795   4.242 -0.1010  0.2464 -0.0717
10806W        W31086  11.015  11.937   1.159 -0.0578  0.4128  0.0587
10807W        W31087  14.397  17.172  16.053  0.1078  0.0098 -0.2248
10808W        W31088  11.129  14.608  14.639 -0.4345  0.2585  0.1126
10809W        W31089   2.926   8.700   2.150 -0.3006  0.0441  0.2832
10810W        W31090  16.976  11.607  14.474 -0.2222 -0.2070  0.0598
10811W        W31091   1.217  16.356  15.394 -0.1135  0.0255 -0.0257
10812W        W31092   3.655   5.576   3.179  0.1345 -0.1894  0.2719
10813W        W31093   0.790   6.739   3.326  0.0856 -0.0480  0.0276
10814W        W31094  16.727  12.712  14.895 -0.1426  0.0917  0.2411
10815W        W31095   6.983   6.571   5.023 -0.1060  0.1493  0.1151
10816W        W31096  15.456   0.600  14.969  0.1534  0.0938 -0.2583
10817W        W31097   4.577   6.114  16.403  0.1039  0.2310  0.0026
10818W        W31098   8.872   3.801  15.108  0.0898 -0.3508 -0.0768
10819W        W31099  17.926   7.084   2.247  0.1652 -0.2611  0.1882
10820W        W31100   7.398  16.624   3.375  0.1214 -0.0873  0.0809
10821W        W31101   6.820  14.865  13.149  0.2338  0.0668 -0.1918
10822W        W31102  11.070   2.131  14.173 -0.4846  0.3365 -0.0865
10823W        W31103   8.337  10.603   0.518 -0.0024 -0.0118  0.0156
10824W        W31104   9.694  10.621  16.311 -0.3377 -0.1101  0.1666
10825W        W31105   6.195   7.458  13.354  0.3031  0.4192 -0.2324
10826W        W31106   9.422  13.000   5.263 -0.1629  0.2104  0.2479
10827W        W31107  16.327   4.680   3.622  0.2766  0.1309  0.1924
10828W        W31108   0.549   7.238   1.006  0.1930  0.2211  0.0361
10829W        W31109  10.943   4.044  15.822 -0.0525 -0.1832  0.0606
10830W        W31110   8.907   2.462  12.991  0.0041  0.1992 -0.3788
10831W        W31111   4.474  10.722  15.051 -0.1486  0.0778 -0.1631
10832W        W31112  10.173   0.326  13.536 -0.3211  0.0622  0.3710
10833W        W31113  14.750   1.593  12.176 -0.1017  0.1006  0.0959
10834W        W31114   6.480   9.153   0.152 -0.0662  0.1693 -0.2779
10835W        W31115   6.706  10.262   2.630 -0.1611  0.2484  0.2557
10836W        W31116   0.809  11.694  16.181  0.1478  0.2334  0.2220
10837W        W31117  14.385   5.792  13.091 -0.0764  0.0577  0.3211
10838W        W31118  11.392  14.311   1.940 -0.3252  0.3782  0.2134
10839W        W31119  15.039   6.910  14.214  0.0701  0.1673  0.1688
10840W        W31120  15.567  16.346  14.518 -0.2685 -0.0122 -0.1147
10841W        W31121  15.201   1.990  13.870 -0.0592  0.3021 -0.0569
10842W        W31122  16.814  11.446   3.719  0.1421  0.0676 -0.1387
10843W        W31123   1.601  11.731  13.744 -0.1117  0.1767  0.0173
10844W        W31124   5.167  13.311   2.955 -0.0591  0.1581 -0.3261
10845W        W31125  15.526  17.152  13.756 -0.1774 -0.0421  0.2757
10846W        W31126   3.981   5.544   3.590 -0.0340  0.0898 -0.1049
10847W        W31127  14.666   9.281   0.945 -0.2190  0.0403 -0.2187
10848W        W31128  16.720   7.931  14.622  0.2424 -0.2981 -0.0045
10849W        W31129  14.454   9.449  13.872  0.1233 -0.0057  0.2770
10850W        W31130  11.280   2.855   3.451 -0.3572  0.0030  0.1786
10851W        W31131   7.420  10.451  16.691  0.1503  0.1263  0.0390
10852W        W31132  13.551   5.700   4.699 -0.1015 -0.2257 -0.1099
10853W        W31133  13.499  17.937  14.268  0.0532  0.0062 -0.0354
10854W        W31134   4.294   8.866  14.071 -0.1896  0.0586  0.3023
10855W        W31135   6.989  17.727   1.085  0.0960  0.4082 -0.1307
10856W        W31136   9.957   8.995  12.624 -0.0585 -0.3413 -0.1469
10857W        W31137  17.059  10.458   2.615  0.2109 -0.0654 -0.2994
10858W        W31138  11.053  16.947   1.033  0.0586  0.1832 -0.1139
10859W        W31139   7.435   7.083  16.095  0.1078  0.1728  0.1241
10860W        W31140   7.555  13.409   1.006  0.3030  0.1174  0.0091
10861W        W31141   0.985  10.650   0.217  0.2068  0.2620  0.0613
10862W        W31142  12.954  12.011  13.174 -0.3309  0.0724 -0.0992
10863W        W31143   8.105   5.899  13.538 -0.5085 -0.1899 -0.0856
10864W        W31144   6.536  11.586   0.463  0.3308 -0.2754 -0.0032
10865W        W31145   0.999   5.227  15.288  0.1941 -0.0909 -0.1311
10866W        W31146  17.931   0.978  15.442 -0.0558  0.0297  0.3845
10867W        W31147   3.237  14.842  15.478  0.1432  0.2373  0.0148
10868W        W31148  12.149   0.565   4.586 -0.2286 -0.2406  0.0769
10869W        W31149   2.766   4.776   0.914  0.0877  0.2311 -0.3529
10870W        W31150  12.037  11.723  15.802  0.2304 -0.1783 -0.0152
10871W        W31151   6.316  11.014   4.862  0.1082 -0.1722 -0.1948
10872W        W31152  11.764  10.175   0.157 -0.0754  0.0511  0.1501
10873W        W31153   6.947   6.226   3.214  0.2249  0.1038  0.0198
10874W        W31154   0.929  14.642  13.500  0.2784 -0.0305 -0.0673
10875W        W31155  12.863   5.335  12.046 -0.3764 -0.2737  0.0249
10876W        W31156  15.021   7.944  13.897  0.2185  0.0755 -0.0406
10877W        W31157   8.210   8.203   2.127 -0.2192  0.0351 -0.0036
10878W        W31158  14.516  15.154   2.011  0.2087  0.1612 -0.0008
10879W        W31159  14.880   2.458  14.512 -0.1242 -0.0081 -0.1718
10880W        W31160   3.121  11.994   1.732 -0.2216  0.1531 -0.4789
10881W        W31161   0.561   4.780  15.911 -0.0898  0.0252  0.1567
10882W        W31162   5.937  15.129  12.862 -0.1315  0.2855  0.1906
10883W        W31163  13.042   4.262  13.908 -0.2890 -0.0050  0.2035
10884W        W31164   8.874   1.209   4.402 -0.0013 -0.3370  0.0598
10885W        W31165  15.790   4.687  15.278  0.0431  0.0739  0.1591
10886W        W31166   4.551  17.551  12.848 -0.2196 -0.2395 -0.1011
10887W        W31167   9.926  14.528  15.394  0.0507 -0.0489  0.0414
10888W        W31168   8.502  16.667  12.764  0.0318  0.3658  0.1274
10889W        W31169   7.115  10.754  15.867  0.3853 -0.1724  0.0770
10890W        W31170   8.053  17.474   0.074  0.2797 -0.0088  0.0351
10891W        W31171  12.634  11.440  14.688  0.2302  0.0598 -0.1294
10892W        W31172   2.953   3.205   2.479 -0.0077  0.1701 -0.0772
10893W        W31173   3.824   0.087   3.561  0.1286 -0.0300  0.0385
10894W        W31174  12.741  10.572  14.339 -0.1331  0.0794 -0.0274
10895W        W31175  17.882   6.501  13.911  0.1004  0.0173 -0.1693
10896W        W31176   3.870   7.718  16.273 -0.0447  0.1375  0.0350
10897W        W31177   0.104  16.787   2.354  0.0146 -0.0732  0.1777
10898W        W31178   9.533  15.964  16.244  0.0699  0.1449  0.1994
10899W        W31179   9.661  15.224   3.239  0.2849  0.0946  0.5077
10900W        W31180  13.074   5.873   4.527 -0.0729  0.0105  0.0165
10901W        W31181   5.455   5.775   2.801 -0.0654 -0.4658 -0.0094
10902W        W31182  16.062   5.641   0.167  0.1792  0.3417 -0.2785
10903W        W31183   1.430  14.888   1.819  0.3665 -0.0646  0.3956
10904W        W31184  11.202   1.875   1.418 -0.0812  0.0075  0.1628
10905W        W31185   2.497   1.321  14.323  0.0060 -0.1110  0.0413
10906W        W31186   1.656   0.040   1.381 -0.0479 -0.4155  0.3128
10907W        W31187  13.774   7.522  15.341 -0.0738  0.1067  0.2763
10908W        W31188  11.152  13.069  15.629  0.1796 -0.1121 -0.1990
10909W        W31189   5.767   1.070   4.324  0.0422 -0.0467  0.0509
10910W        W31190  15.534  17.287   1.006  0.1408  0.0288 -0.1232
10911W        W31191  16.608   6.234  12.585 -0.0472  0.3184 -0.0394
10912W        W31192  14.458   3.303  12.359  0.0464 -0.3422  0.2211
10913W        W31193  15.577  14.161  13.861 -0.0014 -0.3222  0.1707
10914W        W31194   3.533  17.977   2.582 -0.1599 -0.0061  0.0131
10915W        W31195   9.086  15.831   5.780  0.0777 -0.0181 -0.2031
10916W        W31196   7.589   4.116   3.517 -0.3611 -0.0955 -0.3080
10917W        W31197  12.057  10.648   3.928  0.0847  0.0804  0.0337
10918W        W31198   9.449  16.439   3.006 -0.2742 -0.2155  0.3762
10919W        W31199  16.118  12.207  12.622 -0.3024  0.0214 -0.3118
10920W        W31200   3.622  17.754  13.300 -0.0269 -0.2847  0.0507
10921W        W31201  17.916   4.360  15.099  0.0437 -0.1302  0.0563
10922W        W31202  14.506  12.780   1.190  0.0636 -0.0865  0.5239
10923W        W31203   5.814  13.528   4.702 -0.1895 -0.2214 -0.0955
10924W        W31204  13.533  11.228  13.586 -0.2732 -0.2163 -0.1655
10925W        W31205   3.886  13.964  14.102 -0.1426  0.1782  0.0078
10926W        W31206  14.509   8.299   3.108 -0.2914  0.1779 -0.1014
10927W        W31207   6.676   7.123   0.160  0.2949 -0.1557 -0.1298
10928W        W31208  14.172  15.581   4.891 -0.0981  0.1881  0.0949
10929W        W31209  11.946  15.126  13.715  0.0104 -0.1401 -0.0732
10930W        W31210  17.817  10.788   2.882  0.0749 -0.1051 -0.0573
10931W        W31211  11.821   0.997  15.099  0.0136 -0.1183  0.3464
10932W        W31212   6.221   4.418  13.105  0.1497  0.0679  0.0951
10933W        W31213   2.169   9.490  14.069 -0.1607  0.1112 -0.1095
10934W        W31214   2.592   0.051  13.490  0.1531  0.0949 -0.2900
10935W        W31215  11.192   2.364   0.606 -0.2288  0.2671 -0.1343
10936W        W31216   0.585  10.418  15.832 -0.3606 -0.0094  0.3266
10937W        W31217   0.764  14.591   3.110  0.0637  0.0781 -0.3354
10938W        W31218  15.631  10.163  16.190  0.2188  0.1549  0.1678
10939W        W31219  11.733  10.863  12.062 -0.2043 -0.0334  0.0875
10940W        W31220  12.329   2.042  16.630  0.1103  0.1301  0.1079
10941W        W31221   5.434   7.744   2.837  0.0959  0.0769 -0.0441
10942W        W31222   6.192   8.114  12.138 -0.0334 -0.0674 -0.0227
10943W        W31223  13.542   6.727  16.221  0.2719  0.1728  0.3250
10944W        W31224   0.152  14.878   1.422 -0.1360  0.1767 -0.3265
10945W        W31225  15.219  12.823  16.121  0.1175  0.3699 -0.4659
10946W        W31226   2.907   3.463  14.360 -0.0696 -0.1377 -0.1645
10947W        W31227  16.967  12.506  13.100  0.0869  0.2228 -0.0518
10948W        W31228  16.138   2.388  16.024  0.2768  0.1025 -0.2357
10949W        W31229  11.316   2.548  13.905  0.0122 -0.0176  0.0124
10950W        W31230  11.674   0.969  12.862 -0.1950  0.1565  0.0904
10951W        W31231   5.919  16.912   1.614 -0.2712  0.1545 -0.0585
10952W        W31232  13.487  14.969   3.826  0.0225  0.1816  0.0123
10953W        W31233   3.290   4.498   4.115 -0.2494  0.1644 -0.0545
10954W        W31234  11.029   2.654  14.808 -0.3262 -0.1172 -0.2179
10955W        W31235  16.864  15.956  13.403  0.0378 -0.1383  0.0750
10956W        W31236   6.334   9.095  12.174  0.0808 -0.4822 -0.0469
10957W        W31237   7.574  10.714   3.608 -0.2118  0.1638 -0.1252
10958W        W31238  11.976  11.248   0.236  0.5426 -0.0465  0.2197
10959W        W31239  10.271   5.437   1.925 -0.0334 -0.1601 -0.1577
10960W        W31240   5.433  10.521   1.868 -0.0561  0.1959  0.1363
10961W        W31241  14.631   8.755   1.492 -0.0791  0.0063 -0.2977
10962W        W31242   7.944  15.289  15.490  0.0431 -0.0061 -0.1057
10963W        W31243  11.073   4.498  16.595  0.2061  0.1910 -0.2060
10964W        W31244   5.270   5.269   3.088 -0.0503  0.1548 -0.0960
10965W        W31245   8.295  14.550  16.001 -0.0230 -0.0782 -0.1106
10966W        W31246   5.725  10.778   2.694 -0.1672  0.1206  0.2118
10967W        W31247  11.551   5.293  14.468 -0.5389  0.1944 -0.0676
10968W        W31248   1.622  15.629  13.928 -0.1930 -0.2236 -0.0605
10969W        W31249   8.153   7.417  11.751 -0.3948 -0.0313 -0.0507
10970W        W31250  12.061   5.110   4.187  0.1613 -0.0784 -0.1369
10971W        W31251  10.826  11.970  14.116 -0.1015  0.2706 -0.1083
10972W        W31252  17.201  11.543  13.764  0.3001  0.0253  0.0416
10973W        W31253  15.393   7.604   0.178 -0.1307  0.0446  0.2778
10974W        W31254  15.899  14.007  12.244 -0.0399 -0.2677  0.0181
10975W        W31255   3.820  16.432   4.755  0.1555 -0.0144  0.0570
10976W        W31256   7.480  10.897   0.572 -0.2550 -0.1130  0.2179
10977W        W31257  16.093  17.733  15.216  0.2687 -0.1055 -0.1247
10978W        W31258   8.903  13.887  13.339 -0.2602 -0.0259 -0.2682
10979W        W31259   2.513  11.680  12.710  0.0047 -0.2691  0.1809
10980W        W31260  13.563   2.358  13.376  0.1635 -0.2942 -0.1631
10981W        W31261  15.648  11.317  12.196 -0.0330 -0.5615 -0.0734
10982W        W31262  15.733   5.316  14.558  0.1972  0.1071  0.0114
10983W        W31263   2.128  17.878   4.728 -0.0974  0.4694 -0.0657
10984W        W31264  11.639   5.755  15.120 -0.0826 -0.0612 -0.0113
10985W        W31265   1.151   2.404  13.739  0.0616  0.1200  0.2334
10986W        W31266   7.856  14.250  14.604 -0.0084 -0.0102 -0.2478
10987W        W31267   2.501   7.747  15.502  0.1698 -0.0864  0.0198
10988W        W31268   8.346  14.002  13.387  0.3721  0.2655 -0.0334
10989W        W31269   7.828   7.639  15.908 -0.1654 -0.0145 -0.1134
10990W        W31270  16.391  17.311   4.260  0.1748  0.1497 -0.1546
10991W        W31271   0.485  15.381  15.687 -0.2004 -0.0202 -0.2533
10992W        W31272   3.119   9.840  15.152  0.0065  0.1305  0.3345
10993W        W31273   1.298   8.851  15.312  0.1926  0.0627 -0.0592
10994W        W31274  12.004  17.594  16.561 -0.3897 -0.0093  0.3594
10995W        W31275  16.234   9.124   0.519  0.1145  0.0086 -0.2361
10996W        W31276   5.461   0.644   2.672  0.0273 -0.0583 -0.0926
10997W        W31277  10.963  11.345   2.360 -0.2236 -0.2591 -0.0751
10998W        W31278  12.948   4.711  13.086 -0.2924 -0.2445 -0.0114
10999W        W31279   1.592  10.348   4.109 -0.3693  0.2335  0.2421
11000W        W31280   4.241  15.821   0.724  0.0355 -0.1676  0.2900
11001W        W31281   6.857   4.633   3.641  0.1719 -0.2679  0.0459
11002W        W31282  14.346  15.379  12.615  0.2838 -0.1281 -0.0537
11003W        W31283  15.221  16.691   3.866 -0.1431 -0.1848  0.2688
11004W        W31284   9.070   9.369   2.955  0.2776  0.0066  0.1861
11005W        W31285   4.599   6.423   2.821 -0.1957 -0.0992 -0.0462
11006W        W31286   5.281   1.457  12.656 -0.1413  0.0417 -0.0297
11007W        W31287   2.172  15.930   4.497  0.2413 -0.1418 -0.3931
11008W        W31288   3.573   5.748  13.390  0.2531 -0.2489  0.2121
11009W        W31289   9.182   5.557  13.573  0.1929 -0.1197 -0.3019
11010W        W31290   3.799   2.627  14.059  0.0090 -0.0920 -0.2870
11011W        W31291   5.050  12.792  12.362  0.0625 -0.1223 -0.3871
11012W        W31292  17.597   8.342   2.333  0.0027 -0.1499  0.1254
11013W        W31293  13.225   0.419   0.038  0.1462 -0.2982  0.0276
11014W        W31294  11.957  13.099  14.275 -0.2642 -0.2648 -0.2355
11015W        W31295   4.698  17.949  12.072  0.0742 -0.1911  0.2897
11016W        W31296  16.148  11.323   2.932 -0.1716  0.4719  0.4314
11017W        W31297   4.240   2.547  14.197 -0.0089  0.1639 -0.0205
11018W        W31298   6.366   4.697  14.810 -0.1509  0.0576 -0.2113
11019W        W31299  12.519   3.479   2.180  0.0636  0.0396  0.1697
11020W        W31300   4.118   0.546   2.065  0.0078 -0.0424  0.1084
11021W        W31301  16.207  16.270  14.110  0.1697  0.0222  0.0633
11022W        W31302   3.070  15.958   3.809 -0.0011  0.1138  0.0023
11023W        W31303   3.467   4.519  12.998  0.1020 -0.0055  0.0833
11024W        W31304   1.510  15.776   1.280 -0.1788  0.2194 -0.0502
11025W        W31305  13.908  11.325   2.241  0.0817  0.0783 -0.1378
11026W        W31306   2.241  16.823  16.046  0.1988 -0.1777  0.1557
11027W        W31307   6.766   9.531   0.060  0.1231  0.0179  0.0911
11028W        W31308   6.045   4.048  12.384 -0.1985 -0.2881  0.1161
11029W        W31309   2.179   4.777  12.128  0.0833  0.1711 -0.1324
11030W        W31310   0.806   5.948  12.578 -0.3579 -0.0308  0.0716
11031W        W31311   6.219   0.801  15.620  0.1133 -0.0071  0.0583
11032W        W31312   6.199   7.727   0.895  0.1766 -0.0900  0.2417
11033W        W31313  13.985  13.117  13.588 -0.2090  0.2346 -0.0857
11034W        W31314   9.418  12.504   2.886 -0.0846 -0.0401  0.1749
11035W        W31315   7.984  15.705  15.703 -0.2200  0.4038 -0.1826
11036W        W31316   9.272  15.732  13.440  0.3699 -0.2604 -0.0153
11037W        W31317   3.565  12.851   4.200 -0.7335 -0.1680  0.0022
11038W        W31318  10.783   8.832   2.133 -0.1121 -0.2008 -0.1039
11039W        W31319   4.805  17.431   3.715  0.0590 -0.0234  0.0355
11040W        W31320   7.050   5.896  11.201 -0.0565 -0.0951 -0.1539
11041W        W31321   4.878   2.354   3.409  0.5499 -0.5220  0.0474
11042W        W31322  15.313   7.789   2.083  0.4518 -0.0583 -0.0858
11043W        W31323   4.637   3.640   4.860  0.1723  0.2420 -0.1274
11044W        W31324  15.076  10.097  13.301  0.2065  0.3065 -0.3024
11045W        W31325  12.784  10.837   1.867  0.1475 -0.2516  0.0461
11046W        W31326   1.642  13.843   5.240 -0.0761 -0.0284 -0.3223
11047W        W31327  13.873  12.251   4.575 -0.1049 -0.2184  0.0490
11048W        W31328  17.807   5.225  12.776 -0.0827 -0.0182 -0.1252
11049W        W31329  11.828  17.349   2.476  0.6711  0.1121 -0.1896
11050W        W31330  12.572  13.133   2.712  0.0712  0.2772 -0.5535
11051W        W31331   1.294  14.253  13.212 -0.1457  0.0909 -0.0956
11052W        W31332  14.848   0.900   0.286 -0.0348 -0.0473 -0.1240
11053W        W31333   6.743   7.328  12.392  0.1297  0.1243  0.0338
11054W        W31334   2.677   7.354   1.287  0.2857  0.0506 -0.3885
11055W        W31335  17.726  12.561  13.672 -0.0491  0.2357 -0.5083
11056W        W31336  12.929  16.706  14.146  0.1002  0.1443 -0.1527
11057W        W31337   9.873   4.281   1.761 -0.1068 -0.0136  0.3257
11058W        W31338  17.122   0.194  15.801  0.0272 -0.1093 -0.0336
11059W        W31339   8.611   8.164  13.985  0.4097 -0.3670 -0.1601
11060W        W31340   7.618   7.525  12.996  0.1104  0.0144 -0.0689
11061W        W31341   4.447   9.129   0.738  0.0975 -0.0762  0.0481
11062W        W31342  11.603   3.382   4.020  0.1109 -0.2625 -0.0527
11063W        W31343   5.618  10.311  12.053  0.1743  0.2753  0.1084
11064W        W31344   8.094  10.435   2.344  0.0235  0.0209 -0.0922
11065W        W31345   5.772  12.723   2.696 -0.0722  0.0169 -0.4135
11066W        W31346   6.973   3.005  13.717  0.1038 -0.0721  0.0072
11067W        W31347   6.253   2.734  15.416  0.2090  0.0060  0.0819
11068W        W31348   8.629   4.191  16.473 -0.1395  0.1820  0.2618
11069W        W31349   8.945  12.317  13.221  0.0056  0.1244 -0.3255
11070W        W31350  11.283   3.093  12.667 -0.1925 -0.1683 -0.2733
11071W        W31351   6.385  17.534  16.142 -0.2870 -0.3521 -0.1030
11072W        W31352  15.775   2.794   4.516 -0.0903 -0.0284 -0.0247
11073W        W31353   3.289   6.734   1.457  0.3269  0.0146 -0.1764
11074W        W31354   1.613   4.684   1.790  0.2064  0.3736 -0.0873
11075W        W31355  16.623   6.167   0.553  0.1512 -0.3568 -0.0661
11076W        W31356   9.083   0.920  13.091 -0.0564  0.0799  0.1077
11077W        W31357  15.643   9.521   2.347  0.3713  0.2360 -0.0255
11078W        W31358   8.652  14.895   5.124  0.0867 -0.1438 -0.2420
11079W        W31359   3.831   0.300   2.855 -0.0771 -0.1432  0.1058
11080W        W31360   9.893   1.686  16.077  0.2323 -0.2598  0.1032
11081W        W31361   7.096   7.607  14.347  0.0888  0.1414 -0.0684
11082W        W31362   7.860   4.772   3.172 -0.0526 -0.1148  0.1272
11083W        W31363  15.418   2.258   1.271 -0.1228  0.1608  0.2716
11084W        W31364  14.395   7.211   0.763  0.1749 -0.1620 -0.2106
11085W        W31365  13.770  11.492   3.998 -0.0091 -0.1798 -0.1740
11086W        W31366  17.232   0.820  14.637  0.1655  0.3212 -0.0482
11087W        W31367  14.587  14.026  12.540  0.0019  0.0454  0.0055
11088W        W31368   4.722   9.216   3.404  0.0279 -0.1254 -0.2915
11089W        W31369   5.724  13.364   1.281  0.1190  0.2149  0.1027
11090W        W31370   9.196  10.407   1.531 -0.1654  0.0342  0.0577
11091W        W31371  10.864  14.274   4.519 -0.0762 -0.3511 -0.3198
11092W        W31372   1.482   9.510   1.168  0.1016 -0.2014  0.3276
11093W        W31373   9.169   1.656   1.242  0.2834 -0.3584  0.2994
11094W        W31374  13.570   4.858   3.146 -0.1653 -0.0748  0.0780
11095W        W31375  13.920   7.918  14.588 -0.0112 -0.0741 -0.2536
11096W        W31376   7.439   8.937   0.686  0.1703  0.1284  0.0049
11097W        W31377  15.509  17.789  14.241 -0.3280  0.0752 -0.0623
11098W        W31378  15.255  17.522  14.662  0.1393 -0.1151 -0.0335
11099W        W31379   0.560   4.867   3.868 -0.3007 -0.0165 -0.0964
11100W        W31380  15.437  12.308   0.275 -0.0911  0.0641 -0.0453
11101W        W31381   8.364   5.710   2.693  0.2318  0.0700  0.1091
11102W        W31382  16.769  10.997  12.037  0.0064 -0.2898 -0.1486
11103W        W31383   2.031   4.232   1.812 -0.2155 -0.2960  0.3352
11104W        W31384   8.580  11.354   2.448 -0.3188 -0.0036  0.1125
11105W        W31385   3.893   7.511   1.254  0.2268 -0.0025  0.2538
11106W        W31386  10.413   8.201   4.099  0.2039  0.3888  0.2078
11107W        W31387   3.409   6.888   4.576 -0.1633 -0.0667  0.0774
11108W        W31388  10.779   7.771   2.535  0.0955 -0.0726  0.2631
11109W        W31389   3.591   9.727  16.470  0.0929  0.3611  0.0549
11110W        W31390   8.561   2.727  13.192  0.1472 -0.0365  0.0373
11111W        W31391  11.838   2.975  15.358 -0.0722 -0.4599  0.1214
11112W        W31392   2.999  10.105  12.112  0.5714  0.2773  0.0026
11113W        W31393   6.322   4.945  15.700  0.1016 -0.0727  0.2873
11114W        W31394   0.076  14.047   4.239 -0.0770  0.2870 -0.2310
11115W        W31395  11.306  14.443   5.844 -0.2150 -0.0814 -0.0010
11116W        W31396   4.272  16.122   1.547  0.0700 -0.0416 -0.2248
11117W        W31397   4.847   8.275   4.439  0.0728 -0.1965  0.2284
11118W        W31398  12.938  14.792   0.737 -0.2294  0.0390  0.2693
11119W        W31399   7.868   8.707   1.385 -0.2193 -0.1826  0.0964
11120W        W31400   4.823  17.941  11.056  0.1389  0.1935  0.1141
11121W        W31401   1.928  10.795   5.056 -0.0202 -0.2031  0.1801
11122W        W31402   6.668   0.955  16.108 -0.0926 -0.1458  0.1763
11123W        W31403   5.409   4.545   1.998  0.0281 -0.2296 -0.2969
11124W        W31404   1.883  10.955  12.190 -0.1223  0.2028  0.1531
11125W        W31405   0.964  17.758  12.157 -0.0493  0.1526 -0.0431
11126W        W31406  10.165   3.846   0.271 -0.2969  0.3328 -0.1425
11127W        W31407  17.181  12.309  15.627 -0.0799  0.0421 -0.2650
11128W        W31408   4.558  10.479   1.873  0.1638 -0.0184 -0.1205
11129W        W31409  10.995   3.462  16.267  0.1387  0.2184  0.2704
11130W        W31410   0.716  15.264   2.928 -0.2196  0.1733 -0.1042
11131W        W31411   0.381  12.028  13.170 -0.2604 -0.1379 -0.0816
11132W        W31412  10.962   0.870  13.203  0.0115 -0.3452  0.0213
11133W        W31413   7.706   3.394  15.017 -0.2529 -0.4426 -0.2173
11134W        W31414   1.332  14.382   1.980 -0.0239 -0.1776 -0.0448
11135W        W31415   0.251   8.955  12.687  0.0146 -0.1847  0.4622
11136W        W31416   7.486   5.707  15.265 -0.1546 -0.0429 -0.2796
11137W        W31417   4.265   9.793   4.366  0.0496 -0.0159 -0.0323
11138W        W31418   6.936  14.831   4.352  0.0555 -0.1626 -0.2727
11139W        W31419  14.628   7.225  13.836  0.0453 -0.3522 -0.1319
11140W        W31420  13.437  11.732   4.756  0.2150 -0.0597 -0.0177
11141W        W31421  15.853   0.635   1.129  0.1200 -0.4192 -0.0805
11142W        W31422   6.808  13.532  16.574  0.0363 -0.3390  0.2531
11143W        W31423  15.111  12.543   4.105  0.0048  0.3235  0.0184
11144W        W31424   1.173   3.472  15.066  0.2610  0.1121 -0.1470
11145W        W31425  16.545  13.875  14.009  0.0690 -0.0495  0.0763
11146W        W31426  14.237  17.446  16.492 -0.2227  0.0978  0.1281
11147W        W31427   5.409   0.681  13.620 -0.1802  0.0547 -0.0958
11148W        W31428   9.196  10.559   3.465 -0.0083 -0.1577 -0.0364
11149W        W31429   0.303  12.763  12.332 -0.2135  0.1401  0.2179
11150W        W31430  10.672   8.035   3.366 -0.1756  0.1517 -0.2533
11151W        W31431  16.122   3.091   4.296 -0.2127 -0.0172 -0.0962
11152W        W31432  11.446  15.679  15.279 -0.0886 -0.0513  0.1903
11153W        W31433   1.299  10.893  13.375 -0.2699 -0.1813 -0.0082
11154W        W31434   8.200   4.437   4.498 -0.1571  0.0555  0.0489
11155W        W31435  10.354   1.877  11.976  0.2634  0.0447 -0.0146
11156W        W31436   9.365   0.117   3.651  0.0463  0.2681 -0.1276
11157W        W31437  12.323  17.595   2.462  0.0699 -0.3212 -0.2452
11158W        W31438   3.210   8.762   1.351 -0.0470  0.0009  0.1648
11159W        W31439   3.935   4.270  14.206 -0.2174 -0.2426  0.0168
11160W        W31440   4.841  15.314   1.395 -0.0116 -0.0914 -0.0659
11161W        W31441   4.785   8.546   2.632 -0.3638 -0.2575 -0.2252
11162W        W31442   7.615   1.493  13.681 -0.2250 -0.2271  0.0780
11163W        W31443   2.637   5.029   2.692  0.2111  0.0140  0.0142
11164W        W31444  12.384   8.174   2.928 -0.1812 -0.1411 -0.3604
11165W        W31445  10.255  12.434  16.575 -0.1438  0.5422 -0.0088
11166W        W31446   5.489   1.051   0.173 -0.0731 -0.1244 -0.3307
11167W        W31447  16.172  16.750  13.839 -0.1316  0.0458 -0.1535
11168W        W31448  16.413  10.437  14.207  0.1381 -0.0710 -0.0632
11169W        W31449   2.481   8.951   3.455  0.3082  0.0662 -0.1023
11170W        W31450   8.260   5.841   0.001  0.2503 -0.3340  0.3900
11171W        W31451  14.322   9.486   4.047 -0.0179 -0.2441  0.0834
11172W        W31452  13.026   0.366  12.806  0.0140 -0.1867  0.1430
11173W        W31453  16.878  15.345   0.058  0.0916 -0.0124 -0.0637
11174W        W31454  13.675  17.121  15.419 -0.5152 -0.1698 -0.2368
11175W        W31455  14.730   9.336  16.688  0.1149  0.0235  0.0107
11176W        W31456  12.548   3.558   3.753 -0.1083  0.2027  0.1569
11177W        W31457   0.085  13.287   2.055 -0.0297  0.1398 -0.2615
11178W        W31458   5.127  10.605  13.801 -0.0764  0.1724  0.2897
11179W        W31459  17.460   1.965  16.671 -0.1370  0.1072 -0.0769
11180W        W31460   6.114   9.787   0.691 -0.1136 -0.0336 -0.0226
11181W        W31461   9.448   3.529  15.728 -0.2238 -0.1519 -0.3150
11182W        W31462   6.308   2.631  13.947 -0.0297 -0.1711  0.2813
11183W        W31463   9.458   2.399   0.760 -0.0291  0.2410 -0.1661
11184W        W31464   7.041  15.744  12.811  0.0358 -0.0380 -0.1013
11185W        W31465   7.147   8.564   4.637 -0.2198  0.3042  0.0144
11186W        W31466   4.505  10.052   0.880  0.2319  0.2604 -0.0465
11187W        W31467   1.098  13.397  16.506  0.0967 -0.0541 -0.0481
11188W        W31468  17.217  14.323   1.526 -0.0040 -0.2671 -0.0706
11189W        W31469   8.188  15.327  13.364 -0.0170 -0.3511 -0.1859
11190W        W31470   6.647  11.876   4.525 -0.3385 -0.1043 -0.1604
11191W        W31471   8.480  13.248   4.375 -0.0758  0.0351 -0.2725
11192W        W31472   0.049  10.038   2.761 -0.1012 -0.2636  0.0306
11193W        W31473   4.003  15.033  13.053  0.0201 -0.0214  0.0572
11194W        W31474   4.377  13.020  16.058  0.1268 -0.3246 -0.1396
11195W        W31475   4.125  17.065   0.702 -0.0162  0.0182  0.1711
11196W        W31476   4.368   0.737   3.146  0.1254  0.0431  0.1632
11197W        W31477   8.232  12.919  14.846  0.0050 -0.0197  0.0189
11198W        W31478   9.399  13.352   0.731  0.0494  0.1867  0.1667
11199W        W31479  16.101  15.549  12.788  0.3512 -0.0845  0.1750
11200W        W31480  12.204  17.935  12.255 -0.4379 -0.2201 -0.0674
11201W        W31481   9.969  11.092  13.393  0.2920 -0.4767  0.1624
11202W        W31482   5.603   9.098  16.367 -0.1641 -0.1308  0.1801
11203W        W31483  12.258   3.304  12.979 -0.0045  0.0276 -0.1510
11204W        W31484  13.890   3.012   0.454  0.1451  0.0493 -0.0941
11205W        W31485  15.976  12.671  15.814  0.0252 -0.0586 -0.2934
11206W        W31486   9.538   6.927   1.885 -0.4574 -0.1095 -0.0603
11207W        W31487  17.525  15.038   4.834 -0.0436 -0.3635 -0.0223
11208W        W31488  10.949   4.101  13.815 -0.0265  0.1782  0.1897
11209W        W31489  10.334  11.778   3.593  0.0137  0.0948  0.3293
11210W        W31490  10.314  12.960  13.780  0.3000 -0.1526 -0.0403
11211W        W31491  10.145  15.404   0.425 -0.4855 -0.1067 -0.1439
11212W        W31492   4.520  13.445   4.167 -0.0498 -0.1204  0.2004
11213W        W31493  17.523  17.711  12.187 -0.0482 -0.1691  0.0115
11214W        W31494  14.701  14.306   4.443  0.2650 -0.0663 -0.1263
11215W        W31495   4.090   6.316   4.035  0.0641 -0.1239 -0.1519
11216W        W31496  13.274  14.724  16.041  0.1039 -0.1901  0.2933
11217W        W31497  11.705  11.070  15.950 -0.1902 -0.3594  0.0772
11218W        W31498   0.810   0.447  15.336  0.1268  0.2568 -0.0164
11219W        W31499  15.022   0.861   1.428  0.3134  0.3391 -0.0138
11220W        W31500  12.180   6.689   2.078 -0.0263  0.1393  0.1796
11221W        W31501   6.310  16.797  12.372  0.0530 -0.0304 -0.0246
11222W        W31502   3.607   4.698  15.077 -0.1442 -0.2735 -0.0789
11223W        W31503   3.126   8.119   0.559 -0.0874  0.0086  0.1724
11224W        W31504   4.023   1.059   2.010  0.0844  0.0235  0.3998
11225W        W31505   2.856  14.622   2.843 -0.0572 -0.1507  0.1176
11226W        W31506  10.684   4.049   1.569 -0.0054  0.0349 -0.0853
11227W        W31507   6.056   1.014  14.285 -0.0311 -0.0611  0.2137
11228W        W31508  12.181  14.196  12.650  0.1378 -0.1897 -0.2677
11229W        W31509   4.491  15.577  15.329 -0.2657 -0.0084 -0.0712
11230W        W31510  14.151   1.234  13.017 -0.0185 -0.0046  0.1656
11231W        W31511   5.839   6.451   3.388 -0.0556 -0.0903  0.0266
11232W        W31512   3.725   2.444  12.276 -0.1611  0.0152 -0.1357
11233W        W31513   7.276  15.720   5.679  0.0390  0.0620  0.0837
11234W        W31514   9.472   5.803  12.280 -0.1699  0.2363  0.0810
11235W        W31515  14.023  14.369  14.696 -0.0909  0.1796 -0.1479
11236W        W31516  16.309   8.212   3.165  0.0421  0.1965 -0.1541
11237W        W31517   0.061  14.013  16.329  0.0889 -0.0644  0.0852
11238W        W31518  11.060   7.086  14.844 -0.2251 -0.2724 -0.0723
11239W        W31519  10.374   0.862   3.477  0.3331 -0.1873  0.0091
11240W        W31520   8.149  15.963   3.202 -0.0969 -0.0075  0.3703
11241W        W31521   4.236  10.530  15.506  0.1147 -0.1431 -0.0103
11242W        W31522   0.963  10.741  15.919  0.0136  0.0884 -0.2222
11243W        W31523  11.127   4.314  10.808 -0.0604 -0.1794  0.1687
11244W        W31524   4.927   6.493   5.068  0.3717  0.0670  0.1163
11245W        W31525  16.726   9.680   0.946 -0.1084  0.1706 -0.0041
11246W        W31526   5.831   3.905  12.788 -0.0822  0.1910 -0.0661
11247W        W31527  12.698  12.747   1.900 -0.0652 -0.1159  0.4296
11248W        W31528   8.168  16.849   1.220  0.0142 -0.2507  0.2366
11249W        W31529   9.621  10.906  15.620  0.0794 -0.1900  0.1750
11250W        W31530  15.802   3.990  12.444  0.3926 -0.0559  0.1087
11251W        W31531  11.669  13.864  16.393 -0.0427 -0.0475  0.1255
11252W        W31532   8.659   1.518   1.949  0.2743 -0.1015 -0.0046
11253W        W31533   3.871  15.408  11.173 -0.0293 -0.0126  0.0443
11254W        W31534   2.748  13.320   4.603  0.5007 -0.1405 -0.0152
11255W        W31535  13.029  10.523   4.442 -0.0142  0.2053 -0.0285
11256W        W31536  13.212   6.637  15.780  0.2208 -0.0896 -0.3626
11257W        W31537   3.576  13.555  15.949 -0.1390  0.0143  0.1651
11258W        W31538   6.141   9.575   4.037  0.0443 -0.0347  0.1542
11259W        W31539   1.033  16.301   3.251  0.0329  0.2380 -0.4792
11260W        W31540   4.338  14.600   1.388  0.1061  0.0380 -0.0681
11261W        W31541   9.428   1.075  12.713 -0.1414  0.2958 -0.0209
11262W        W31542   2.848   9.517   6.457  0.0347 -0.2012 -0.1107
11263W        W31543  13.997  15.418  13.301 -0.0608 -0.2586  0.1001
11264W        W31544  15.091  15.146   1.922  0.0906 -0.1569  0.1007
11265W        W31545  12.888   8.893   0.164  0.0652 -0.0524 -0.1756
11266W        W31546   7.312  15.834  16.586  0.0664  0.1191 -0.1379
11267W        W31547   6.738   9.787   2.971  0.1708  0.1708  0.2939
11268W        W31548   6.978   6.291  14.123 -0.1413  0.0879 -0.0828
11269W        W31549  12.677   3.383  13.829  0.1197  0.2542  0.0020
11270W        W31550   1.808  15.376   2.492  0.0160 -0.0330  0.1958
11271W        W31551   3.369   6.047  15.368  0.2506  0.0084 -0.2427
11272W        W31552   9.818   8.963  12.119  0.1043 -0.1103  0.1429
11273W        W31553   5.755  13.001   4.861  0.0047  0.0348 -0.1827
11274W        W31554   9.241  11.235   3.049 -0.0716  0.0220  0.0911
11275W        W31555   1.563  15.599  16.479 -0.0942  0.2111 -0.1737
11276W        W31556   6.776   3.464  15.460 -0.0208  0.2523 -0.2141
11277W        W31557   7.667  16.240  12.883 -0.2506 -0.2995 -0.2937
11278W        W31558   7.835   6.347   2.265  0.0676  0.2734  0.0224
11279W        W31559   2.705   4.247   3.148  0.2439  0.0250 -0.1338
11280W        W31560   7.956  14.500  12.816  0.0868 -0.0511  0.0339
11281W        W31561   8.275   5.429  15.890 -0.1514 -0.1641 -0.2532
11282W        W31562   6.206   8.133  16.217 -0.0392  0.1433 -0.0642
11283W        W31563   7.733  15.434   4.489 -0.0469  0.2637  0.1727
11284W        W31564   1.882   1.753  16.557 -0.0124 -0.1171  0.1391
11285W        W31565  14.280   6.134  15.613  0.0791  0.1234  0.1111
11286W        W31566  11.580   9.703   2.992 -0.0551  0.0763 -0.2747
11287W        W31567   1.945  14.361   4.569 -0.3565  0.2755 -0.0106
11288W        W31568   8.726  13.202  16.055 -0.3317  0.2611 -0.4967
11289W        W31569  13.736  14.802  12.878  0.2456 -0.2754  0.1061
11290W        W31570   0.024  13.091   0.584 -0.0029 -0.3463 -0.2852
11291W        W31571  14.972  17.835  14.984 -0.1782 -0.3835 -0.0579
11292W        W31572  17.643   9.738   0.635  0.0786 -0.0324  0.2015
11293W        W31573   4.617   4.204  14.972 -0.1054  0.3228  0.0228
11294W        W31574  12.815  16.439  16.071 -0.1971  0.1330 -0.0716
11295W        W31575  11.209   7.205   1.158 -0.2119 -0.0759  0.1156
11296W        W31576   1.122   1.240   2.467  0.4130  0.2234  0.0345
11297W        W31577   4.567   0.463   3.703  0.0520  0.1454  0.2295
11298W        W31578  17.077  10.469   1.039  0.1378 -0.5461  0.2114
11299W        W31579  12.167  17.245   1.601  0.2920  0.2570 -0.1132
11300W        W31580  15.165   1.886   2.852  0.1919 -0.0200  0.0089
11301W        W31581   1.504   9.368  15.104  0.0396  0.2537  0.1477
11302W        W31582  12.127   0.354   4.154  0.1488 -0.1510  0.2728
11303W        W31583  12.290   5.218   1.439  0.0536  0.0662 -0.1415
11304W        W31584  17.359   8.622   2.728  0.0728 -0.0075 -0.0894
11305W        W31585   0.088  16.168  15.425  0.2930 -0.0068 -0.0812
11306W        W31586  11.396   4.160   4.674 -0.0702 -0.2255  0.0157
11307W        W31587   8.939   2.974   4.065 -0.0828 -0.0522  0.1917
11308W        W31588   6.765  12.637  14.354  0.1549 -0.1993  0.2116
11309W        W31589   6.088  14.323  16.171 -0.3779 -0.0226 -0.0303
11310W        W31590   5.936   3.115  15.569  0.1293  0.0850 -0.0719
11311W        W31591   7.687   4.906  13.897  0.0913  0.2014 -0.2329
11312W        W31592   2.039   4.045   4.855  0.0892  0.3698  0.0166
11313W        W31593  16.540   8.624   1.747 -0.1087 -0.2409  0.2935
11314W        W31594  10.650  13.765   4.227 -0.1257  0.1004  0.1430
11315W        W31595  17.426  13.237   0.799  0.1882 -0.1333 -0.0871
11316W        W31596  15.566  15.502   3.599 -0.1803 -0.0685 -0.0944
11317W        W31597  10.300  16.306   4.601  0.2846 -0.1004  0.1436
11318W        W31598   1.756  13.123  14.265  0.0238 -0.1634 -0.0945
11319W        W31599  11.233   0.685  15.768  0.0141  0.0269 -0.2114
11320W        W31600  13.328  11.414  15.222  0.0555  0.0073 -0.2200
11321W        W31601   6.613  14.362   3.917  0.0890 -0.1762  0.1985
11322W        W31602   7.313  10.550   1.857  0.0621 -0.0216 -0.0228
11323W        W31603  14.393   9.282   5.556  0.3064 -0.0593  0.1155
11324W        W31604   0.090   7.040  13.957  0.1917 -0.0783  0.1825
11325W        W31605   9.724  10.543   3.760 -0.2126 -0.3321 -0.2590
11326W        W31606   0.246   6.769   4.089  0.2964 -0.1108  0.1388
11327W        W31607   3.061  11.779  12.793  0.1371 -0.2522 -0.0566
11328W        W31608   1.855  14.855   3.252 -0.2429 -0.3864  0.0691
11329W        W31609  17.975   8.190  16.338  0.2357 -0.0077 -0.0562
11330W        W31610   1.639   4.989  12.273 -0.0396  0.0958  0.1594
11331W        W31611   6.003  16.374   1.602  0.3392 -0.2051  0.0763
11332W        W31612   0.358  14.418  15.373  0.0480 -0.0724 -0.1754
11333W        W31613  11.137  11.648  15.376 -0.0069  0.0696  0.3959
11334W        W31614   9.636  12.657  13.190  0.0583  0.0088 -0.0221
11335W        W31615   8.003   6.297  15.867  0.0839 -0.0632  0.0673
11336W        W31616   2.466  15.624  16.436 -0.1087  0.3248 -0.0223
11337W        W31617   6.022  16.760  15.745  0.3462 -0.0543  0.1325
11338W        W31618   9.283   8.415   2.396  0.2458  0.0656 -0.0470
11339W        W31619   0.366   1.774   2.888 -0.0476  0.1011  0.1262
11340W        W31620  10.502  13.985   2.786 -0.1760 -0.0664  0.1477
11341W        W31621   4.992   4.416  16.350  0.0154 -0.2537  0.3148
11342W        W31622   5.590   2.941   0.385  0.2147  0.0535  0.0509
11343W        W31623   9.190  15.056   0.055 -0.1906  0.0007  0.1572
11344W        W31624   0.321   7.762   3.958  0.3216 -0.0437 -0.4215
11345W        W31625  13.033  12.696   2.778  0.0000  0.1284 -0.1302
11346W        W31626   9.235  10.881   1.375  0.0575 -0.1031 -0.1028
11347W        W31627  17.838   0.285  16.522  0.4468  0.0122 -0.1252
11348W        W31628  16.971  12.341   0.871  0.1205  0.0528 -0.0017
11349W        W31629  17.532   6.568  15.624  0.0766  0.1715  0.0362
11350W        W31630   9.893   2.655   0.571 -0.0791  0.0681  0.0097
11351W        W31631  12.660  15.774  12.662 -0.0042 -0.3539  0.0153
11352W        W31632   8.942   9.850   3.619 -0.2655 -0.2173  0.1115
11353W        W31633  17.807   1.200   2.801  0.0737  0.0309 -0.1346
11354W        W31634  10.269  11.021  16.092 -0.2373  0.3725  0.2088
11355W        W31635  16.190  10.927  16.077 -0.1080  0.2343  0.0729
11356W        W31636   2.861   9.175  12.021  0.0167  0.0249  0.1290
11357W        W31637   2.993   3.176   3.862  0.1726 -0.3198  0.1729
11358W        W31638  16.553  10.935  12.516  0.3386 -0.4041  0.1811
11359W        W31639  14.186  15.225   1.548  0.0951  0.1775 -0.0001
11360W        W31640  17.287  17.848  14.204  0.3637  0.2386 -0.1972
11361W        W31641   3.230  15.900   1.727 -0.0707 -0.0578 -0.1557
11362W        W31642   8.066   1.807   1.060  0.0569  0.2438  0.1962
11363W        W31643  12.655   5.119   1.066 -0.0212 -0.0128 -0.1340
11364W        W31644  17.796   5.063  13.318  0.0916  0.1773  0.2933
11365W        W31645  10.535  12.114   0.365  0.0288  0.1765 -0.0778
11366W        W31646   4.529  15.039  15.490 -0.0321  0.0908 -0.1762
11367W        W31647  13.599  16.511  12.693 -0.1727  0.1676 -0.0734
11368W        W31648   5.539  13.493  15.738 -0.1928 -0.0814 -0.1412
11369W        W31649  13.100  17.931   3.339 -0.3609  0.0865 -0.1978
11370W        W31650  14.827  11.382  13.348  0.3760  0.0940 -0.0787
11371W        W31651  16.744   5.927  14.632 -0.0155 -0.3374 -0.0457
11372W        W31652   7.166   4.955   4.386 -0.0052  0.0621 -0.2920
11373W        W31653   7.337   3.526   1.425 -0.1254  0.0122  0.2639
11374W        W31654  17.227   5.604  14.459  0.1290 -0.1390 -0.0778
11375W        W31655  15.930  13.956   2.930 -0.1037  0.3274  0.2018
11376W        W31656  11.357  17.893   1.663  0.0962 -0.1634 -0.0891
11377W        W31657  17.957   5.678   2.931 -0.1192  0.2461 -0.0336
11378W        W31658   2.671  13.580   0.102 -0.3179 -0.2277 -0.0137
11379W        W31659  12.849   9.695   4.477  0.0192 -0.0937  0.0784
11380W        W31660  13.241  14.240   3.385  0.3154  0.0341 -0.0182
11381W        W31661  15.437  16.839  14.467  0.3868  0.0894  0.1487
11382W        W31662  14.455  17.886  13.395  0.2364  0.0172  0.0472
11383W        W31663  10.661  17.729  14.578 -0.2157 -0.3004 -0.1335
11384W        W31664   5.092  14.896  13.234 -0.2585  0.0086 -0.0429
11385W        W31665   2.191  16.267  15.050  0.0180 -0.0439 -0.0580
11386W        W31666  17.633   9.280   0.371  0.0317 -0.0225  0.0082
11387W        W31667  16.095   7.511  12.323  0.3225  0.0955 -0.1244
11388W        W31668  15.652   7.010   0.056  0.2549 -0.0166  0.0734
11389W        W31669  11.660  17.261  16.503 -0.1031  0.0352  0.2824
11390W        W31670  16.378   4.602   2.433 -0.1099  0.2872 -0.1155
11391W        W31671   6.624   6.863  12.221 -0.2495 -0.0382  0.0563
11392W        W31672   4.201   7.140  15.743  0.0163  0.3325  0.3090
11393W        W31673  10.321   4.041  14.303  0.0752 -0.0092  0.2790
11394W        W31674   8.913   5.050   4.023  0.2027  0.0262 -0.0686
11395W        W31675   2.395   3.335  12.170  0.3592  0.0575 -0.0133
11396W        W31676   1.039   1.238   3.995 -0.1842  0.1025 -0.1172
11397W        W31677   8.905   7.751   2.203  0.0079 -0.2209  0.4714
11398W        W31678  15.576  16.634   1.535 -0.2969 -0.0522  0.4430
11399W        W31679   8.505  11.982  13.183 -0.1035  0.3166 -0.1467
11400W        W31680   6.590   2.796  12.902  0.4958  0.1113  0.1361
11401W        W31681  13.954   9.031   1.750 -0.1719 -0.1024 -0.0602
11402W        W31682   8.865  15.707  14.534 -0.0017  0.0548 -0.2308
11403W        W31683   9.504   9.345   4.223  0.1128  0.1032  0.2176
11404W        W31684   4.307  16.203  12.272 -0.0300 -0.1806 -0.1906
11405W        W31685   7.086   7.670   2.953 -0.2150 -0.3020  0.2234
11406W        W31686   2.871   1.951   4.811 -0.2487 -0.0173 -0.1659
11407W        W31687   8.840   3.241   1.176 -0.0559  0.1673  0.1061
11408W        W31688  15.912   1.482  12.421  0.3766  0.1292 -0.4653
11409W        W31689   6.865   4.481   2.825 -0.2872 -0.3003 -0.1295
11410W        W31690  16.749   0.250  13.100 -0.1703  0.3117 -0.0105
11411W        W31691   1.343  17.444   0.429 -0.0019  0.1441 -0.2304
11412W        W31692   2.045   4.457   0.370 -0.0041 -0.0797 -0.3443
11413W        W31693  11.381   4.575   0.886 -0.2154 -0.0180 -0.2405
11414W        W31694  17.566   4.722   4.003 -0.3013 -0.2086 -0.3574
11415W        W31695   5.875  10.012  13.744 -0.2236  0.0749 -0.1189
11416W        W31696   7.224  12.124  15.890  0.2817 -0.1794  0.1537
11417W        W31697   1.460  11.612   2.788  0.0313  0.5090  0.0348
11418W        W31698   4.584   6.786   1.142  0.3376  0.0639  0.2688
11419W        W31699   6.801   2.501  14.207 -0.2108  0.2506 -0.1990
11420W        W31700  11.610   2.685   2.619 -0.1524  0.2119  0.1132
11421W        W31701   8.027   9.551  14.386  0.0845 -0.0541  0.1110
11422W        W31702   1.096  10.440   2.322  0.2828  0.2767 -0.0799
11423W        W31703  17.515  10.349   0.079 -0.0582  0.1035  0.1952
11424W        W31704  10.132   7.726   2.399 -0.0972  0.0012 -0.1136
11425W        W31705   2.469  15.929  12.637  0.2554 -0.2933  0.1135
11426W        W31706   5.597  11.901   4.001  0.1614 -0.1417 -0.2540
11427W        W31707   9.641   1.890   3.811 -0.3028 -0.0545 -0.1373
11428W        W31708   2.447  13.375   2.567  0.1538 -0.1317  0.0222
11429W        W31709   0.356  16.960   4.207 -0.0841  0.2277  0.1983
11430W        W31710   9.709   3.902  12.269  0.0906  0.3301  0.3571
11431W        W31711   1.569  17.267  15.028  0.0055 -0.3747  0.1715
11432W        W31712   0.274   1.822  16.576 -0.1343 -0.2346  0.0630
11433W        W31713   6.746   5.469  13.869 -0.0370 -0.0282  0.1101
11434W        W31714  10.727   1.568  10.732 -0.1302  0.1352 -0.1930
11435W        W31715   2.915   1.921   3.647 -0.1350 -0.0228  0.1343
11436W        W31716   6.126   6.935   0.266 -0.3388  0.1444  0.2629
11437W        W31717  12.838   5.240  11.278 -0.2008 -0.3265  0.0810
11438W        W31718  10.400   7.194  12.107 -0.1484 -0.1721 -0.3482
11439W        W31719   4.570  16.618   0.603  0.3038  0.0328  0.0799
11440W        W31720   6.189   1.711   2.830 -0.1969  0.1384 -0.0383
11441W        W31721  13.530  11.349   1.926 -0.0464  0.0642  0.1007
11442W        W31722   7.273  14.705  12.170  0.1344  0.4277  0.0483
11443W        W31723  15.535   6.934   2.476  0.4813 -0.2837 -0.1202
11444W        W31724   1.282   5.820  16.029 -0.2339 -0.0589 -0.1090
11445W        W31725  13.556  14.590  12.357  0.1220  0.3737  0.0107
11446W        W31726   1.232   3.885  13.736  0.2861  0.1756  0.1744
11447W        W31727   2.587   7.037   0.903 -0.0866 -0.1842 -0.1057
11448W        W31728  16.716   2.427  16.089  0.0286 -0.3127  0.0604
11449W        W31729  13.773  12.756  13.959 -0.0236  0.0706  0.1118
11450W        W31730   7.724  13.336   1.704  0.3154 -0.2277  0.2236
11451W        W31731  11.840  14.660  12.718 -0.1853 -0.1552 -0.3635
11452W        W31732   3.444   4.273   4.909 -0.0730 -0.0188  0.1980
11453W        W31733  15.156   8.720  15.511  0.1001  0.0392 -0.0442
11454W        W31734   2.663   0.684  16.522 -0.3630 -0.0755 -0.2053
11455W        W31735  10.390  11.813  14.535 -0.2566 -0.3313  0.0805
11456W        W31736   3.659  17.266   3.303  0.1568 -0.0318 -0.4349
11457W        W31737  16.277  12.000  15.142 -0.0290 -0.1398 -0.1611
11458W        W31738  14.372   5.163  15.425  0.3218  0.2420 -0.2033
11459W        W31739   1.044  15.352  15.689 -0.0202 -0.0883 -0.1413
11460W        W31740  17.627  12.830  12.952  0.0315 -0.4167 -0.1492
11461W        W31741  17.298   0.212  13.409 -0.2465 -0.0612  0.0742
11462W        W31742  11.162  13.879  16.306  0.1202  0.0830  0.3350
11463W        W31743   5.672  10.493   0.147  0.0285 -0.2882 -0.1741
11464W        W31744  15.616  16.870   2.989  0.0978  0.0335  0.0659
11465W        W31745  16.181  10.623   3.482 -0.3177 -0.0921 -0.0063
11466W        W31746  11.343   0.002  13.193 -0.1619 -0.2972  0.2289
11467W        W31747   9.294  10.610  14.692 -0.0674 -0.0783  0.3148
11468W        W31748  11.471   8.210  14.735 -0.1540 -0.3519 -0.1908
11469W        W31749   1.904   0.064  14.887  0.1581  0.2200  0.1962
11470W        W31750   2.502  13.566   2.107 -0.0004 -0.2282 -0.0820
11471W        W31751   5.876  15.953   0.273  0.1097 -0.2316  0.0306
11472W        W31752   9.180   4.995   4.422 -0.0430 -0.1109 -0.0307
11473W        W31753   6.788   9.202   2.226 -0.1143  0.0210 -0.0390
11474W        W31754   5.034   7.756   2.543 -0.0020 -0.1947 -0.2126
11475W        W31755  13.170  17.489   3.059  0.1259  0.2316 -0.2048
11476W        W31756   7.738  14.019   0.488 -0.0964 -0.1119  0.2549
11477W        W31757   3.680  17.384   4.587  0.3541 -0.0377  0.0417
11478W        W31758   9.713   9.811  12.060 -0.1468  0.1351  0.2294
11479W        W31759   1.080  15.732   1.606 -0.0036  0.0775  0.1276
11480W        W31760  16.537  17.990  15.019  0.1961 -0.0701  0.1366
11481W        W31761  13.536   1.456  13.025  0.0961  0.0083  0.0097
11482W        W31762  14.891  16.838  12.789  0.0869 -0.3423  0.1612
11483W        W31763   1.991   6.246  12.797 -0.0587  0.3450 -0.0159
11484W        W31764  10.850   7.019  12.354  0.2484 -0.0685  0.0485
11485W        W31765  14.121   4.208  12.311  0.2878 -0.0925  0.1672
11486W        W31766   2.814  16.014  16.168  0.0535 -0.2829 -0.2414
11487W        W31767   5.910  13.901  14.365  0.0406  0.1636  0.0593
11488W        W31768   4.466  12.676   1.552  0.0884  0.1493  0.1050
11489W        W31769  11.990  12.430  12.251  0.1450  0.0380  0.1418
11490W        W31770  16.123   7.864  16.073  0.2902  0.3303  0.1262
11491W        W31771   0.896   8.471  13.872 -0.0189 -0.0922 -0.2298
11492W        W31772   3.404  11.961   2.160  0.2156  0.2424  0.1389
11493W        W31773   6.349   4.719  14.218 -0.0392 -0.0188  0.0045
11494W        W31774  16.761   4.305  13.745  0.2695  0.0579  0.0547
11495W        W31775  14.053  13.930   0.972 -0.1166  0.0650 -0.0190
11496W        W31776   8.649  13.758   2.436 -0.0003  0.1874 -0.0010
11497W        W31777   0.869  13.331  13.885  0.1046  0.0359  0.1108
11498W        W31778   5.017   0.725  14.563 -0.1279 -0.1669  0.1536
11499W        W31779  17.592  10.716   1.114  0.0591 -0.0371 -0.3139
11500W        W31780   4.241   9.932  12.765 -0.1289  0.1727  0.0658
11501W        W31781   2.418  14.861  14.639 -0.2191  0.1861  0.0118
11502W        W31782   6.099  11.627   0.896  0.2997 -0.0299  0.1049
11503W        W31783   3.306   0.063   3.732 -0.0411 -0.4624 -0.3673
11504W        W31784  15.202  12.702   0.565  0.0324  0.1571  0.1947
11505W        W31785  11.429   9.626  12.939 -0.2963  0.2797 -0.1830
11506W        W31786  11.704   8.099  13.271  0.0140 -0.1086 -0.0635
11507W        W31787   4.168   0.380  14.310  0.1222 -0.0608  0.0300
11508W        W31788   4.219  13.173   2.893  0.1437 -0.0105 -0.0308
11509W        W31789   9.984   0.488  14.441 -0.0208 -0.1588 -0.0828
11510W        W31790   5.296  12.003  13.667  0.1089 -0.4758 -0.0889
11511W        W31791   1.217   1.868  13.707 -0.0652  0.1637 -0.1368
11512W        W31792   6.471   1.822  14.370 -0.3488 -0.1535 -0.0957
11513W        W31793  15.941   8.561   3.182 -0.0522 -0.0734 -0.0617
11514W        W31794   8.098   1.354   4.298 -0.1211 -0.1412 -0.0213
11515W        W31795   9.302   7.976   5.129  0.0392  0.0049 -0.1312
11516W        W31796   7.671  16.403   2.599  0.0815  0.0658 -0.0286
11517W        W31797  16.960  14.103   3.808  0.1477  0.0833  0.1143
11518W        W31798   9.235   0.378  16.063 -0.2489 -0.2352  0.1029
11519W        W31799   5.422   8.519  12.185 -0.2036 -0.0920  0.1339
11520W        W31800   7.755   7.702   4.439 -0.0224 -0.0174  0.1283
11521W        W31801  16.128   8.263  13.286 -0.0307  0.2309 -0.1982
11522W        W31802   2.158   8.586   4.039 -0.2699  0.0740  0.1036
11523W        W31803   9.429   3.699   3.169  0.1111  0.0936  0.1765
11524W        W31804   5.218   2.410   1.016  0.0202  0.1920 -0.0148
11525W        W31805   0.015   6.375   3.144  0.4044 -0.3181 -0.1670
11526W        W31806   1.028   2.328  16.668 -0.0572 -0.0821  0.0490
11527W        W31807  12.002   8.797   1.022  0.3769 -0.0800  0.1216
11528W        W31808  10.562   5.128   3.166  0.2547 -0.0040  0.3568
11529W        W31809  11.397   6.253   0.878  0.1424  0.1758 -0.1509
11530W        W31810   4.734   6.437  12.379  0.0895  0.2163 -0.0667
11531W        W31811  10.762   7.634   2.987  0.0014 -0.0867 -0.1004
11532W        W31812   0.359  10.034   5.396 -0.0546  0.0722  0.0121
11533W        W31813   9.378   8.576   0.948  0.0724  0.2847  0.0933
11534W        W31814  16.711   9.171  14.933  0.3429 -0.0378 -0.1938
11535W        W31815  13.125  13.664  13.925 -0.2492 -0.0433  0.2686
11536W        W31816   8.654  14.289   2.456  0.1688  0.2804 -0.1634
11537W        W31817  14.639  11.087  15.269 -0.0588  0.0702  0.0783
11538W        W31818   4.404  15.838  14.125  0.2404 -0.2978 -0.1616
11539W        W31819   9.258  15.895  14.312  0.3247 -0.0670 -0.2086
11540W        W31820  16.733  13.631  13.492 -0.1327 -0.3268  0.1175
11541W        W31821   9.393   9.875  14.858 -0.2248 -0.0897 -0.0978
11542W        W31822   9.908   5.018  15.409  0.1326 -0.0302  0.3352
11543W        W31823  16.640  13.222   2.025  0.3802 -0.0322 -0.2643
11544W        W31824  13.117   9.094   0.637  0.0783  0.0684  0.0580
11545W        W31825   9.514   4.790  10.110  0.0905 -0.1472 -0.4120
11546W        W31826   9.426  11.295  14.310  0.2172 -0.3277 -0.0792
11547W        W31827  12.933   6.563   3.023  0.0428 -0.2216  0.1195
11548W        W31828   3.613   6.125  13.111  0.2006  0.2448  0.1386
11549W        W31829  12.035   8.185   1.695  0.2981 -0.1494  0.1412
11550W        W31830  14.886  13.076  15.874 -0.1273 -0.0975  0.1207
11551W        W31831  11.835   1.417  12.633 -0.0315  0.2474  0.2852
11552W        W31832  10.694   0.872   4.443 -0.1243  0.0244  0.1182
11553W        W31833   9.625   5.724  16.398  0.0213 -0.1298 -0.2272
11554W        W31834  16.814   2.095  14.315  0.0650  0.2572 -0.0562
11555W        W31835  14.305  11.473   2.464  0.0952  0.0415 -0.0659
11556W        W31836  12.753   5.786   3.063 -0.1059 -0.2502  0.0532
11557W        W31837   0.530  14.882   4.695  0.3311 -0.1590  0.0451
11558W        W31838   5.945  15.189   2.012 -0.2541 -0.0779 -0.0741
11559W        W31839  15.464   6.741  13.901  0.1727  0.3802 -0.2059
11560W        W31840   1.221   9.724   0.148 -0.1733 -0.1365 -0.0765
11561W        W31841   7.091   3.509  13.808  0.0160 -0.0808  0.2118
11562W        W31842   9.089  11.489   4.266  0.1871  0.1075  0.2649
11563W        W31843   9.601  14.192   0.473  0.3088 -0.2479 -0.2765
11564W        W31844   5.519   9.764   0.854  0.0362  0.1141 -0.0540
11565W        W31845  15.804   9.371   0.641 -0.0137  0.0197 -0.1043
11566W        W31846   4.260   4.142  15.961 -0.0106 -0.1943  0.4498
11567W        W31847   0.299   5.319   4.038  0.1423  0.2467  0.0308
11568W        W31848  14.906  12.116   3.866  0.0288 -0.0356 -0.2850
11569W        W31849   8.539   8.728   4.203 -0.4113  0.0423  0.2211
11570W        W31850   0.167   3.117  12.149  0.0576 -0.0078 -0.1867
11571W        W31851  10.941   2.424  11.413  0.0889  0.0903  0.0405
11572W        W31852   7.792  10.256   1.977 -0.0316  0.0238 -0.0227
11573W        W31853  17.111  13.406   4.379  0.0026  0.5189 -0.0937
11574W        W31854   7.601  13.423   2.890 -0.0268 -0.1422 -0.0311
11575W        W31855  16.664   2.975  13.607  0.0921 -0.0786 -0.2639
11576W        W31856  12.309  16.949   0.715  0.3926 -0.1983  0.0876
11577W        W31857   4.794   9.502   2.448  0.3454 -0.1057 -0.2130
11578W        W31858  15.444   8.167  14.234  0.1782 -0.0806  0.0130
11579W        W31859   8.302  15.540   3.702  0.3115  0.2920 -0.1904
11580W        W31860  16.214  14.645   1.667 -0.2233 -0.0245 -0.0338
11581W        W31861  10.188  14.138  16.363 -0.1366  0.1297  0.1851
11582W        W31862   3.952  12.577   4.402 -0.1147  0.1399  0.0135
11583W        W31863  15.220   2.260  15.398 -0.0728 -0.0874  0.0958
11584W        W31864   6.594  11.704   2.699 -0.1231  0.0469  0.1281
11585W        W31865  12.596   7.698   2.462  0.1836  0.0419 -0.1860
11586W        W31866  13.960   9.928   1.722 -0.1105  0.1532 -0.0742
11587W        W31867  14.429   9.047  12.309  0.0643 -0.2697  0.3626
11588W        W31868  10.139   9.139   4.091  0.3880 -0.2276  0.1831
11589W        W31869   2.108   4.979   2.717 -0.2897 -0.1147 -0.1053
11590W        W31870   4.133   2.942   0.498 -0.0230  0.2251  0.0885
11591W        W31871  17.352  10.226   0.607  0.0522  0.1005 -0.0518
11592W        W31872  16.470   5.742   0.443 -0.0021  0.2535  0.1810
11593W        W31873   3.588  10.110   1.054  0.3294 -0.4109 -0.0501
11594W        W31874   0.634  14.109  12.684  0.0197 -0.0377  0.0041
11595W        W31875   7.105  10.846  16.382  0.0370  0.2991  0.2460
11596W        W31876   1.982  11.974   4.469  0.1789  0.0441  0.1143
11597W        W31877  13.283  14.021  13.530 -0.1565 -0.0596  0.1713
11598W        W31878  16.207   8.378  15.413 -0.1189 -0.0379  0.3899
11599W        W31879   3.219   2.535  12.060 -0.0106  0.1039 -0.3336
11600W        W31880   5.941  13.907  15.825  0.2098  0.2242 -0.4976
11601W        W31881  10.817  10.102   3.992  0.0178 -0.1850  0.0762
11602W        W31882   4.463  15.474   3.197  0.0189  0.2849 -0.0145
11603W        W31883   3.119   3.095   1.191  0.0817  0.0920 -0.2290
11604W        W31884  15.318  11.004  14.420  0.0162  0.2367  0.2167
11605W        W31885   0.650   2.506  15.367  0.2812  0.0967 -0.0056
11606W        W31886   1.840   0.120   0.925 -0.1386  0.0504 -0.1107
11607W        W31887   2.762   1.115  12.564 -0.1533 -0.3595  0.0688
11608W        W31888  11.231  12.283  13.921 -0.0085  0.1306  0.0852
11609W        W31889  17.594   6.510  12.308  0.0640  0.1421  0.1190
11610W        W31890   0.678  10.844  13.554 -0.2243  0.1586  0.1459
11611W        W31891  16.198  10.823   3.939 -0.0272 -0.1913 -0.0974
11612W        W31892   8.418   2.515   2.951  0.0929 -0.2703  0.2135
11613W        W31893  13.086  14.572  12.188  0.0633  0.5228 -0.1101
11614W        W31894   3.676  13.224  16.405 -0.1660 -0.0240 -0.0538
11615W        W31895   8.387  17.827   1.762 -0.0548 -0.2518  0.0788
11616W        W31896   5.960   1.538   4.424  0.1751  0.1761 -0.0212
11617W        W31897  12.747  13.801  15.545  0.1508 -0.2125 -0.0279
11618W        W31898  17.189   1.364   1.213 -0.1165 -0.1609 -0.2519
11619W        W31899   8.949   6.293  14.605  0.0916  0.0921 -0.2605
11620W        W31900   0.644  14.867  14.732 -0.0343 -0.2372  0.0762
11621W        W31901  11.241  17.474  13.840  0.1247  0.1544  0.1061
11622W        W31902  15.523  12.089  16.520 -0.1938  0.1107 -0.1496
11623W        W31903   1.842  15.911  15.259  0.2164  0.0629 -0.0814
11624W        W31904   9.406   8.497  14.009  0.0617 -0.2200 -0.3271
11625W        W31905   9.760   6.369  15.139 -0.2359 -0.1905 -0.0262
11626W        W31906   3.144  13.826   4.495  0.0842  0.1586 -0.1999
11627W        W31907   7.407  12.746  13.575  0.1051  0.2195 -0.1087
11628W        W31908   3.547  13.601   3.691  0.0990  0.2136 -0.1292
11629W        W31909   5.124   8.811  15.714 -0.0492  0.0015  0.1136
11630W        W31910   7.192  17.633  14.427  0.0917  0.1270 -0.1474
11631W        W31911  17.936   8.892   3.194 -0.2514  0.0770 -0.0385
11632W        W31912   5.558  11.146  12.761  0.2735  0.0367  0.4559
11633W        W31913   7.102   1.053   2.815  0.2108  0.0878  0.1178
11634W        W31914   4.372   1.363  13.600  0.0256  0.0070  0.1297
11635W        W31915  13.832   2.025  15.563 -0.0279 -0.3627  0.0372
11636W        W31916  14.216   0.026   2.293  0.1116  0.0340  0.3783
11637W        W31917   2.340   2.823  15.162  0.0320 -0.0213  0.1039
11638W        W31918  17.187   3.669   0.694 -0.2051 -0.0030 -0.1557
11639W        W31919  16.822   8.370   4.005  0.2202 -0.0140  0.1645
11640W        W31920   6.001   5.476   2.630 -0.3071 -0.0065 -0.1870
11641W        W31921  12.803  15.377   0.411  0.1357  0.2241  0.2880
11642W        W31922   9.958   3.632   2.576 -0.1051 -0.1875 -0.2767
11643W        W31923  17.348  12.438  14.443 -0.2087 -0.0110 -0.1497
11644W        W31924   3.060   7.205   1.580 -0.1396  0.3890  0.1752
11645W        W31925   2.425   9.375  13.650 -0.0770 -0.1512 -0.0711
11646W        W31926   3.463   1.953   2.728  0.1222  0.0845  0.2715
11647W        W31927   0.473   9.785  11.220  0.1633 -0.1322 -0.2176
11648W        W31928   7.322  17.024   2.700 -0.0524 -0.0584  0.0877
11649W        W31929  11.914  11.762  12.811 -0.0598  0.3723  0.0863
11650W        W31930   1.047  10.605   4.016 -0.0047  0.0579  0.2901
11651W        W31931  13.127  14.957  12.901  0.1277  0.1582 -0.0235
11652W        W31932   6.032   8.939   0.298 -0.1846 -0.2164 -0.0930
11653W        W31933   7.477  12.808   2.366 -0.0741 -0.2329 -0.1229
11654W        W31934   6.309  13.741   3.047 -0.0975 -0.0727 -0.0917
11655W        W31935   8.711   2.003  11.417  0.0395  0.1232 -0.0954
11656W        W31936   0.484   9.882  13.099 -0.2094  0.0620  0.0207
11657W        W31937  17.474   6.573   2.334  0.0005  0.0123 -0.1219
11658W        W31938   2.069  16.308  12.740  0.1373  0.2732  0.0908
11659W        W31939   6.815   5.830  15.847 -0.0687  0.0483  0.1807
11660W        W31940   4.350  16.577  16.427  0.0176 -0.1915  0.1996
11661W        W31941  12.455  14.958  13.908 -0.0112 -0.0607  0.0700
11662W        W31942  12.337   3.913   2.801  0.0669  0.3908 -0.1327
11663W        W31943   8.058   1.719  13.370 -0.0081  0.3259  0.2624
11664W        W31944  11.971   4.054   4.544  0.1782 -0.1368 -0.2383
11665W        W31945  12.439   2.552  15.339 -0.3288 -0.0981  0.0453
11666W        W31946   0.780   2.086  13.973  0.1712 -0.0463 -0.0177
11667W        W31947   1.130   1.818   0.274 -0.1271  0.1057 -0.1702
11668W        W31948  15.148  13.011   4.358  0.4069 -0.1302  0.0200
11669W        W31949   0.801   1.420  11.971 -0.2789  0.3281 -0.0368
11670W        W31950  14.578   6.184   3.658 -0.1436  0.0189 -0.0243
11671W        W31951  12.305   3.879  12.286  0.1674  0.0942 -0.3444
11672W        W31952   0.030  13.350  14.300  0.1076  0.1261 -0.1125
11673W        W31953  14.161  14.431  12.435 -0.0068 -0.1215  0.0934
11674W        W31954  12.022   7.940   0.407 -0.0152  0.1658  0.0541
11675W        W31955   3.367  17.748   4.132  0.2740  0.0111  0.2101
11676W        W31956   4.216   5.631  15.185  0.2314 -0.1116  0.0861
11677W        W31957  10.734  16.910  12.668 -0.0509 -0.0267  0.2535
11678W        W31958   0.212   0.783   2.097 -0.0629 -0.2655  0.1900
11679W        W31959  11.696   0.086  16.297 -0.1545  0.0183  0.1490
11680W        W31960   1.622   6.455  13.057 -0.1090  0.0446  0.0875
11681W        W31961  10.932  16.981  14.949  0.0520  0.0624 -0.0405
11682W        W31962   5.342  12.278   1.595  0.1204 -0.1586 -0.1666
11683W        W31963  14.230  13.484   3.111 -0.3954  0.0632 -0.0775
11684W        W31964  16.028   4.604   5.055  0.1525  0.0645  0.0474
11685W        W31965   7.414   8.072  12.954 -0.0374 -0.1812  0.2267
11686W        W31966  15.642  12.586  14.798 -0.2200  0.2671 -0.1375
11687W        W31967   1.718   3.508   2.657 -0.2011  0.0923 -0.2338
11688W        W31968   6.864   4.025  15.326  0.0135  0.3936  0.2615
11689W        W31969   9.493   6.766   4.871 -0.1389 -0.4257  0.0476
11690W        W31970  14.589  11.099   1.186 -0.0856 -0.0068 -0.2734
11691W        W31971   1.186  11.433   4.277 -0.0606 -0.1481  0.2810
11692W        W31972   7.467  13.923  14.608  0.2404 -0.0538 -0.0613
11693W        W31973   1.597  14.478   3.926  0.1391  0.1308 -0.2917
11694W        W31974  17.675   7.241  14.148 -0.0214 -0.1841 -0.0499
11695W        W31975  10.666   4.998   3.654 -0.0843 -0.0121 -0.0843
11696W        W31976  13.605  16.430   0.934  0.1417 -0.1705 -0.0192
11697W        W31977  11.803   5.901   4.195 -0.1642 -0.4062 -0.0615
11698W        W31978   7.959   6.213  13.971 -0.1082  0.0995 -0.3518
11699W        W31979  12.610   7.761  14.208  0.1650  0.2792  0.1959
11700W        W31980   5.757   2.104   0.561  0.2138 -0.0247 -0.0872
11701W        W31981  11.265  10.298  15.238  0.0796  0.3093 -0.1141
11702W        W31982   4.488   2.410  15.270 -0.1095 -0.3010  0.1771
11703W        W31983  14.537  13.889  14.158 -0.0098  0.0301  0.0621
11704W        W31984   9.106   9.103   4.361  0.2475 -0.1863 -0.0970
11705W        W31985   8.758  13.649   1.736 -0.3545 -0.4268  0.1552
11706W        W31986  14.970   0.194  15.645  0.0758  0.0111  0.0174
11707W        W31987  12.455  15.154   4.014 -0.0026 -0.3416  0.1383
11708W        W31988   4.542   8.836   4.187  0.3095 -0.0403  0.1124
11709W        W31989  12.786   5.244  16.227  0.1408 -0.2955 -0.2356
11710W        W31990   7.885   5.237   3.025 -0.2256 -0.1061 -0.0865
11711W        W31991  11.676   9.360   4.462 -0.0813 -0.0642  0.0300
11712W        W31992   3.778  12.909  15.318 -0.1245  0.2761 -0.0225
11713W        W31993   5.516  15.548  13.390 -0.1549  0.1308 -0.3965
11714W        W31994  14.413   1.563  14.162  0.0294  0.1774  0.0066
11715W        W31995  12.486   7.778  13.619 -0.0640  0.2654 -0.0178
11716W        W31996   2.527   6.611   5.033  0.1678  0.1705  0.0273
11717W        W31997   2.013  14.157  12.167  0.0236  0.4128 -0.0380
11718W        W31998  16.336  10.171   2.246 -0.1457  0.2487 -0.0991
11719W        W31999  14.042  16.857  16.162  0.1363 -0.0959 -0.1744
11720W        W32000  13.131   9.694  15.271  0.2224 -0.0827 -0.2406
11721W        W32001   6.741  16.048   0.533 -0.0030 -0.2883 -0.3137
11722W        W32002   0.131   8.769   0.962 -0.0993  0.1117  0.4105
11723W        W32003   5.572   4.280  14.725  0.1906 -0.0840 -0.1438
11724W        W32004   6.195   3.148  14.035  0.1299  0.2141 -0.0198
11725W        W32005   3.012  13.903  12.304  0.3875  0.0793  0.0860
11726W        W32006   2.375   7.049  12.490 -0.5910 -0.0283 -0.2814
11727W        W32007  14.313  10.937  16.133  0.0964  0.3921  0.0276
11728W        W32008  14.690   3.401   2.732  0.1206  0.1725 -0.4557
11729W        W32009  11.472   8.263   2.503  0.3880 -0.0050 -0.2099
11730W        W32010  13.192   0.171   2.470 -0.0630  0.0068  0.0657
11731W        W32011  16.300   2.780  13.848 -0.0804  0.1281 -0.2729
11732W        W32012   4.473  16.071   3.814  0.2741 -0.2362 -0.2578
11733W        W32013  10.364  15.714   1.697  0.1139 -0.0023  0.0491
11734W        W32014   9.742  14.724   0.592  0.1486  0.2941  0.1577
11735W        W32015   6.792   9.298   1.456 -0.0371  0.0240 -0.0494
11736W        W32016  16.967   2.366  15.379 -0.3710 -0.1568  0.2983
11737W        W32017  11.214  15.936   0.497 -0.0790  0.0017 -0.0827
11738W        W32018   7.856   4.395  15.845 -0.0388 -0.1284  0.1897
11739W        W32019  12.843   6.173   0.401 -0.0755  0.1165  0.0640
11740W        W32020   6.615   5.893   2.996  0.1941  0.0718 -0.1672
11741W        W32021  12.552   2.539   2.475 -0.0612 -0.2921  0.1778
11742W        W32022  12.059   1.274   3.133 -0.0988 -0.0731  0.0091
11743W        W32023   6.455   3.817  14.569  0.1814 -0.0556  0.0899
11744W        W32024   2.630   2.125   1.877 -0.1136 -0.1951  0.0793
11745W        W32025   3.115  12.946  13.880  0.1822  0.0863  0.1063
11746W        W32026  13.726  11.159  16.640  0.0686  0.1056  0.1577
11747W        W32027   8.550   1.200  11.686  0.0213  0.1354 -0.0284
11748W        W32028   1.141  11.521   5.108 -0.0567  0.0563  0.0879
11749W        W32029  13.445   3.146  12.230 -0.0861  0.3826 -0.1707
11750W        W32030   6.016   4.939   2.649 -0.0381 -0.2646 -0.1208
11751W        W32031  10.126  11.416  16.526 -0.3313  0.3929 -0.0212
11752W        W32032  16.337   2.857  16.015 -0.0459  0.2926 -0.4343
11753W        W32033  14.215  17.270  13.903  0.1360  0.3397  0.4352
11754W        W32034   7.522   9.912   1.657 -0.0508 -0.0521 -0.0540
11755W        W32035  17.492   5.816  14.065 -0.1165 -0.1040 -0.0350
11756W        W32036  14.566  14.091   4.865 -0.2652  0.1913  0.0213
11757W        W32037   5.907  14.188   2.230  0.1621 -0.4984 -0.1846
11758W        W32038   7.686  16.223   3.210  0.0903  0.3570 -0.1279
11759W        W32039   6.950   9.014   4.497  0.1072 -0.0739 -0.1030
11760W        W32040  15.926   5.066   4.330 -0.1747 -0.3037 -0.1293
11761W        W32041  17.544  11.192   2.053 -0.0484 -0.1987 -0.0404
11762W        W32042  11.532   8.597   3.820 -0.1313  0.2772  0.0811
11763W        W32043   7.070  11.638   1.526 -0.2355 -0.1473 -0.2153
11764W        W32044   2.790   1.154  15.141  0.2630 -0.0738 -0.2159
11765W        W32045   0.624  16.751   4.797 -0.2077  0.0608 -0.0654
11766W        W32046   7.969   7.236   0.739  0.3704 -0.0558  0.0130
11767W        W32047   6.380  14.782   3.635 -0.0588  0.0938 -0.1487
11768W        W32048   2.818   8.408   0.196 -0.0942 -0.1164 -0.2756
11769W        W32049   4.475  17.457   0.134  0.0120  0.1871  0.0944
11770W        W32050  10.316   3.777   1.803 -0.2167  0.0020  0.1751
11771W        W32051   7.253   7.103  13.693  0.4733 -0.3026  0.1023
11772W        W32052  13.961  10.388  12.999 -0.2920  0.2852  0.3118
11773W        W32053  12.591  13.996  15.125 -0.1923 -0.2948 -0.1421
11774W        W32054  11.471   8.669   3.272  0.3482 -0.0808  0.1400
11775W        W32055   3.763  17.077  12.405  0.1304 -0.2040 -0.1389
11776W        W32056  14.616  16.440  15.544 -0.0727  0.0974  0.0303
11777W        W32057   7.400   2.881   2.101 -0.3553 -0.2000 -0.1974
11778W        W32058  17.104   5.435   3.384 -0.1995 -0.2466  0.0201
11779W        W32059   3.950   6.772   1.390 -0.3044 -0.0322 -0.0989
11780W        W32060  10.098   8.787  14.177 -0.2252 -0.0228 -0.1204
11781W        W32061   1.606  17.823   4.020  0.1157 -0.0884 -0.3334
11782W        W32062  10.643  13.930   4.778  0.1553  0.0191  0.0963
11783W        W32063  11.409   9.887  15.952 -0.0746 -0.0220 -0.1226
11784W        W32064   7.561  11.711   1.760 -0.1866 -0.0898  0.0573
11785W        W32065   5.947   7.885   1.322  0.3584 -0.0205  0.1198
11786W        W32066   4.201  17.059  14.102 -0.1017 -0.0698 -0.2486
11787W        W32067  14.700   3.961   3.457 -0.3561  0.0329  0.0964
11788W        W32068  16.159   7.184   1.456 -0.1446  0.0759  0.3116
11789W        W32069   0.290  16.342   4.449  0.2887  0.3642  0.2813
11790W        W32070   3.402  14.960   1.507 -0.2510  0.0934  0.2723
11791W        W32071  14.003   5.878  15.220 -0.0356 -0.0560  0.1912
11792W        W32072  16.158   6.283   0.324  0.0571 -0.0059 -0.2212
11793W        W32073   8.198   9.448   3.389 -0.2717  0.2125  0.0025
11794W        W32074  12.120   6.716   0.082 -0.1337 -0.0863 -0.1063
11795W        W32075   7.019  17.505  13.728  0.1633 -0.3190 -0.0728
11796W        W32076   0.024  10.251   5.062 -0.0914  0.4787 -0.1293
11797W        W32077  15.108   7.060   4.290 -0.0799 -0.4304 -0.0091
11798W        W32078   1.305  13.789   1.334  0.1481  0.1855  0.1018
11799W        W32079  15.007  11.906   3.380 -0.1891  0.2148 -0.1147
11800W        W32080   8.324  14.919  14.397 -0.0411  0.0535  0.1470
11801W        W32081  10.724  15.242  13.940 -0.0781 -0.3339  0.0356
11802W        W32082   3.637   5.152   2.918  0.0083 -0.2447 -0.0726
11803W        W32083   1.612   3.767   4.713 -0.1089 -0.1570 -0.3355
11804W        W32084  12.700   3.398  15.509 -0.3447 -0.0372 -0.0804
11805W        W32085  17.640   3.281   3.014  0.1858  0.0484 -0.4833
11806W        W32086   2.551  16.336  12.033  0.1379 -0.1213 -0.0004
11807W        W32087   2.004  12.812   3.337 -0.0603  0.0089  0.1219
11808W        W32088   3.220   5.745  14.624  0.0279  0.1705  0.1154
11809W        W32089   8.115   3.634  13.083 -0.1554  0.1479 -0.3427
11810W        W32090  13.891   9.623  12.691  0.4295  0.1429 -0.0497
11811W        W32091  13.448   3.044   4.678 -0.4370  0.1004 -0.0123
11812W        W32092   7.048  11.710   2.830 -0.2128  0.1451 -0.0618
11813W        W32093   7.557  16.078   4.264 -0.0609 -0.1143  0.0880
11814W        W32094  14.639   5.901  12.624 -0.1277 -0.1087 -0.5715
11815W        W32095  10.203   8.671  16.056 -0.0118 -0.0519 -0.1309
11816W        W32096   5.321  17.534  16.501 -0.0848 -0.0555 -0.0166
11817W        W32097  17.362  11.080   4.573  0.2030  0.0018  0.0473
11818W        W32098   1.712   6.954  13.178  0.3479  0.4077  0.0051
11819W        W32099   8.596   7.872   1.832  0.1441 -0.1870  0.1020
11820W        W32100   2.119   5.612  15.056 -0.0083 -0.1418 -0.4850
11821W        W32101   2.800   4.640   4.197 -0.0082 -0.1837 -0.1985
11822W        W32102   2.675  16.220  13.512  0.0048  0.3807  0.1308
11823W        W32103  14.528   9.726   3.067  0.4812  0.2765  0.0595
11824W        W32104   2.444   2.458   4.294 -0.2485  0.1064  0.2035
11825W        W32105  16.972   3.550  15.168 -0.0883 -0.0182  0.0963
11826W        W32106  11.282   3.140  16.690  0.0253 -0.4060  0.0603
11827W        W32107  16.588   3.176   4.501 -0.5489 -0.1375 -0.0213
11828W        W32108   6.762   0.698   0.340  0.0176  0.1106 -0.1511
11829W        W32109   8.270   1.358  14.412  0.1965  0.2990 -0.1008
11830W        W32110   9.832  16.973  16.331  0.2151  0.0900  0.0165
11831W        W32111  11.936   0.474   1.585  0.1676  0.0936 -0.0037
11832W        W32112  11.730   0.361  14.227 -0.0411 -0.0209  0.1942
11833W        W32113   1.745  10.964  14.933 -0.0509 -0.1081 -0.1352
11834W        W32114   4.343   7.762   0.956 -0.0021 -0.2237  0.1751
11835W        W32115  10.959  15.900  12.240 -0.0474  0.1107 -0.1329
11836W        W32116   6.019   5.751  15.194 -0.1739  0.0903  0.1622
11837W        W32117   1.480  14.677  16.566 -0.1479  0.2342  0.0603
11838W        W32118   0.818   7.269   2.747  0.1777  0.1618 -0.2704
11839W        W32119   7.646   1.207   3.625 -0.1102 -0.0701 -0.3925
11840W        W32120   7.235   5.705   1.051  0.0617 -0.1321 -0.1405
11841W        W32121   2.283  14.319  13.315  0.0954  0.4255  0.1780
11842W        W32122   6.635   6.268   3.842 -0.1462  0.0523 -0.2570
11843W        W32123  12.938  13.792  16.469 -0.4063  0.0974 -0.0579
11844W        W32124  12.035   6.041  13.995  0.0183  0.4378  0.0804
11845W        W32125   8.719  10.689   1.145  0.0344 -0.1030 -0.1705
11846W        W32126  16.900   5.915   3.630  0.0876  0.3621  0.1772
11847W        W32127   0.696  16.120   2.858  0.1031 -0.0961 -0.1050
11848W        W32128  12.681  10.857  13.603 -0.2776 -0.1727 -0.0346
11849W        W32129   4.653   6.751  14.339  0.0872  0.1509 -0.3240
11850W        W32130   8.826   2.466  11.448 -0.3607  0.1438 -0.0769
11851W        W32131  14.740  11.536   2.649  0.0801 -0.1600 -0.2594
11852W        W32132   4.413   9.970  15.342 -0.1689 -0.2699 -0.1540
11853W        W32133   0.471  13.551  14.157  0.1149  0.0987 -0.0996
11854W        W32134  16.159   2.690   0.309 -0.1805 -0.0207  0.1232
11855W        W32135  15.321   5.900   2.244  0.1280  0.0744  0.3640
11856W        W32136  13.451   5.333  15.026  0.0241 -0.0784 -0.0715
11857W        W32137   4.545  10.014   4.007 -0.1932 -0.0424 -0.0795
11858W        W32138  14.228   2.845  13.885  0.1446 -0.0287  0.2313
11859W        W32139   9.821   3.120   0.380 -0.2018 -0.0309  0.0088
11860W        W32140   2.993  12.788   1.936  0.0116 -0.0249  0.1809
11861W        W32141   7.026   1.229   4.651  0.3043 -0.2965 -0.1615
11862W        W32142  14.667  11.289   0.289  0.2885 -0.1531  0.0798
11863W        W32143   9.394  16.778  15.198  0.1127 -0.2751  0.1670
11864W        W32144  17.483  13.534  12.271  0.0256 -0.2608 -0.0119
11865W        W32145   5.419   7.046  12.901  0.2954  0.1585 -0.1727
11866W        W32146  15.231   4.580   1.723 -0.3222 -0.3932  0.2652
11867W        W32147   3.688   6.536  12.234  0.1465 -0.2879  0.2047
11868W        W32148  15.474  17.696   3.084 -0.0502  0.3878  0.0383
11869W        W32149  11.459  17.187   4.679 -0.0037  0.1280  0.2271
11870W        W32150  13.897   3.223  12.490 -0.0717  0.1839  0.1209
11871W        W32151  16.297  14.084   3.210  0.0104 -0.1253  0.0293
11872W        W32152   7.121   4.718   0.916  0.1054  0.2125 -0.2437
11873W        W32153   2.347   8.881   2.556  0.0513 -0.2302  0.3019
11874W        W32154   4.772   8.881   0.348 -0.0578  0.0562 -0.0594
11875W        W32155   1.983   2.914   0.832  0.0094 -0.3097 -0.2057
11876W        W32156   8.507  10.224   0.173 -0.1666  0.0488  0.0526
11877W        W32157   1.573  11.188  12.481 -0.0370 -0.1219 -0.0477
11878W        W32158  16.600   2.619  15.090 -0.0074  0.2541 -0.3813
11879W        W32159   6.429  14.484   2.354  0.2777  0.4949 -0.1360
11880W        W32160  17.208   2.158  15.811  0.1545  0.1361 -0.0794
11881W        W32161  13.147  14.315  16.421  0.1121 -0.0462 -0.1192
11882W        W32162  15.984   0.520   4.793  0.0294 -0.0347  0.0257
11883W        W32163   8.600  10.203  13.178 -0.2133 -0.0324  0.2192
11884W        W32164  17.806   1.735   0.156 -0.0891  0.0034 -0.0562
11885W        W32165   1.890  17.116  14.638 -0.0608 -0.1605 -0.3065
11886W        W32166  14.872  16.104   1.184  0.2107  0.0072 -0.0466
11887W        W32167  16.346  17.388   2.495 -0.2001  0.1492 -0.0938
11888W        W32168  13.279   5.060   4.032  0.1311  0.2865 -0.0372
11889W        W32169  15.698  11.000  16.370  0.0343  0.3271  0.1310
11890W        W32170   9.039  17.113   0.853 -0.2914  0.1851  0.0129
11891W        W32171  11.810   5.940  12.702  0.0008 -0.2131  0.1891
11892W        W32172   5.865  16.182   3.026  0.2490  0.1532  0.1681
11893W        W32173   5.159  14.212   1.399 -0.5033 -0.2684 -0.2296
11894W        W32174   8.415  16.772   3.948  0.0370  0.0745 -0.1613
11895W        W32175   8.322   4.344  15.183  0.0596  0.1422  0.2011
11896W        W32176   4.445  14.917   4.533  0.2082 -0.0895  0.0137
11897W        W32177   5.522   0.743  14.609 -0.1088  0.3662 -0.1852
11898W        W32178  16.457  15.358   4.666 -0.2304 -0.4194 -0.3324
11899W        W32179   2.824  11.521  14.662  0.0624 -0.2325 -0.2094
11900W        W32180   1.586  16.736   1.496  0.1519  0.0414 -0.1164
11901W        W32181  13.043   7.066   0.705 -0.1067  0.1686 -0.1549
11902W        W32182  10.201  13.623  14.239  0.1213  0.0678  0.4241
11903W        W32183   2.211  14.422   0.779  0.0309  0.1691 -0.4926
11904W        W32184   5.296  17.418   4.090 -0.1064 -0.1414  0.0486
11905W        W32185   7.507  13.170   4.113 -0.4109 -0.5138 -0.4039
11906W        W32186   4.469   2.862   3.877  0.2197  0.0037 -0.1460
11907W        W32187   4.466   9.347   4.224  0.1047 -0.2495  0.0945
11908W        W32188  10.783   5.483   3.439  0.1821  0.1932  0.1899
11909W        W32189  12.616   7.244   5.324 -0.1335 -0.0020  0.0257
11910W        W32190  10.571   8.260  15.276 -0.0197 -0.0449  0.0460
11911W        W32191   6.247   1.298   3.090  0.0027 -0.0855  0.2200
11912W        W32192   3.082  17.373  12.774 -0.3089  0.0424 -0.0554
11913W        W32193  14.337  12.788   2.306 -0.1360 -0.2292 -0.0811
11914W        W32194   0.170  13.251  14.833 -0.0989 -0.1083 -0.2435
11915W        W32195  10.466  10.719   2.730 -0.0698  0.2327  0.1007
11916W        W32196  15.707   0.946  13.669  0.3683  0.1249  0.0844
11917W        W32197   3.284   3.229  14.677 -0.0586  0.1530  0.1823
11918W        W32198  17.530   5.585  12.699 -0.3384 -0.2957 -0.0924
11919W        W32199  12.231  14.601   1.850 -0.0679  0.0779  0.1066
11920W        W32200  12.416   4.229  16.116  0.0157 -0.0671 -0.1547
11921W        W32201  13.970   4.274   1.765  0.2184 -0.1396  0.0382
11922W        W32202  10.471   5.301  14.652 -0.3427 -0.0662  0.3523
11923W        W32203   5.201   8.521  13.537 -0.2724 -0.0894 -0.1042
11924W        W32204   2.088   8.596  14.967 -0.0932 -0.1851  0.0509
11925W        W32205  12.864  16.429   1.387 -0.2197  0.1199  0.2433
11926W        W32206  14.657   6.485  15.757 -0.1901 -0.1745  0.0526
11927W        W32207   2.595   9.712   2.965  0.1141 -0.1805  0.0012
11928W        W32208   2.759  15.144  15.609  0.3297 -0.3119  0.1202
11929W        W32209  11.712   7.025  14.403 -0.0901 -0.2156  0.0527
11930W        W32210   5.889   2.525  12.909 -0.0828  0.0009  0.0058
11931W        W32211   0.960  11.815   2.647 -0.1312 -0.1229  0.1327
11932W        W32212  11.293   4.844   2.262  0.0257 -0.2497  0.1536
11933W        W32213  12.471   0.564  14.588  0.0746 -0.1729 -0.3098
11934W        W32214   3.786  17.440   0.821  0.0132 -0.0473 -0.4174
11935W        W32215   9.706   0.618  13.537  0.1714 -0.0034 -0.1819
11936W        W32216   0.886  13.640  15.620  0.0617 -0.0721 -0.0265
11937W        W32217  12.680   3.863  11.089 -0.0938  0.2324 -0.0637
11938W        W32218   3.922   8.094  15.841  0.3656 -0.1316 -0.2675
11939W        W32219   1.063  12.076  14.822 -0.1142 -0.3267  0.1043
11940W        W32220  17.821  12.238   4.865  0.0317  0.4485  0.2599
11941W        W32221  17.334  12.128   4.069  0.0776  0.2114  0.1178
11942W        W32222   6.165   5.288  16.603 -0.0640 -0.0189  0.1299
11943W        W32223   1.873  14.782   4.252 -0.1453  0.5171 -0.1184
11944W        W32224   4.357  12.267   3.678  0.0520  0.1174  0.1571
11945W        W32225  11.839  17.568   4.621 -0.0841 -0.0050  0.2833
11946W        W32226   9.297   5.579  11.807 -0.0926 -0.0329 -0.4748
11947W        W32227   5.534   0.129   3.616  0.0932  0.0174 -0.2105
11948W        W32228   3.452  11.448  15.357 -0.1139 -0.2750 -0.1481
11949W        W32229  13.599   8.816  12.381  0.2098  0.2490 -0.2860
11950W        W32230  11.451   8.664   1.014 -0.0896 -0.1464 -0.2507
11951W        W32231  15.975   8.395  12.807  0.1243  0.1147 -0.0822
11952W        W32232  11.537   7.270  13.482  0.1185 -0.0981  0.4014
11953W        W32233   6.977   8.687   0.828  0.1207  0.3399  0.1543
11954W        W32234   3.626   0.518   3.301 -0.2509  0.0981  0.0958
11955W        W32235  16.315   4.381   4.412 -0.2947 -0.1272  0.2775
11956W        W32236   0.266  16.277   3.079  0.1742 -0.2639 -0.0096
11957W        W32237   5.637  12.501   0.126  0.0778 -0.0673  0.1265
11958W        W32238   2.450  15.501  13.113  0.0411  0.1529  0.1046
11959W        W32239   3.835  11.194  12.437 -0.1837  0.1477  0.3155
11960W        W32240   8.629  16.581  14.663  0.1963 -0.1959  0.0088
11961W        W32241   4.292   6.532   4.392 -0.5239  0.2266 -0.0201
11962W        W32242   3.165  14.578  15.085 -0.3968 -0.1535  0.1339
11963W        W32243   1.136  16.880   3.168 -0.3002  0.3151  0.1520
11964W        W32244  11.942   2.889  13.140 -0.1843 -0.0750  0.0580
11965W        W32245   0.842   9.429  12.812  0.1104  0.2725  0.3525
11966W        W32246   7.748   0.131  11.703 -0.0220 -0.1713 -0.0262
11967W        W32247  11.498   3.103   1.003  0.1285 -0.1142 -0.0272
11968W        W32248   2.415   9.706  14.899  0.2104  0.0071  0.0080
11969W        W32249  16.258   9.721  12.339  0.0715 -0.1673 -0.3691
11970W        W32250  15.628  15.035   3.398 -0.0846 -0.4587 -0.0769
11971W        W32251   1.792   7.811   2.137 -0.1739 -0.2923 -0.4124
11972W        W32252   4.041   9.418   4.643 -0.0019 -0.1598 -0.0493
11973W        W32253  16.338  17.268   1.262  0.1987  0.0526 -0.1946
11974W        W32254  10.630  17.410  15.053  0.0919 -0.2888  0.0873
11975W        W32255  16.912   0.930   4.813 -0.0525 -0.0062 -0.2339
11976W        W32256   7.047   9.774  11.921  0.0287 -0.1634 -0.0627
11977W        W32257  16.332  17.915  12.519 -0.0787 -0.2050 -0.1422
11978W        W32258  15.838  11.329   0.052  0.1707 -0.0516  0.3215
11979W        W32259   2.121  12.232  12.394 -0.0695 -0.0132 -0.3978
11980W        W32260   1.154  14.818  16.243 -0.1065 -0.2813  0.3099
11981W        W32261   6.718   6.681  14.624  0.0669 -0.0127  0.0973
11982W        W32262   1.407   5.062   4.734  0.1714  0.2448 -0.1625
11983W        W32263  16.939   3.741  12.025  0.2329  0.1929  0.1435
11984W        W32264  16.912  14.485  14.784 -0.0526  0.0911 -0.0067
11985W        W32265   1.503   2.506  16.411  0.0965  0.0455  0.0058
11986W        W32266   1.083  12.011   3.551 -0.0116  0.1951  0.1509
11987W        W32267   5.143  11.283  15.451  0.2238  0.2275  0.2361
11988W        W32268   6.249  11.793   4.218 -0.0005  0.3419  0.1750
11989W        W32269  12.479  11.874  15.620 -0.2686 -0.1193  0.0242
11990W        W32270   7.445  11.739  15.579 -0.2094 -0.0684 -0.0418
11991W        W32271   7.768  16.307   4.788 -0.0087 -0.2242  0.0019
11992W        W32272   6.454  12.767   4.458  0.3401  0.2657  0.0089
11993W        W32273   0.690   4.392   0.055  0.0805 -0.0956  0.0514
11994W        W32274   8.495  15.915  15.795 -0.1007  0.1490 -0.2951
11995W        W32275  10.034  11.358   0.730 -0.0405 -0.0014  0.0731
11996W        W32276   4.578   7.265   1.765  0.0773 -0.0492 -0.1380
11997W        W32277   8.813   6.839   4.680  0.0212 -0.2280 -0.3953
11998W        W32278  11.029   0.798  16.191 -0.1003  0.0265 -0.0635
11999W        W32279   3.591  10.580   0.098  0.0266  0.0537 -0.0467
12000W        W32280   8.405   6.910   4.363  0.0652 -0.0461 -0.2319
12001W        W32281  17.190   5.634  15.399  0.1019 -0.1945  0.0072
12002W        W32282   3.113  10.131   3.575 -0.1064  0.0253 -0.0740
12003W        W32283  10.626  15.525  13.189 -0.1791 -0.1920  0.0772
12004W        W32284  10.228  13.956   1.969  0.1191  0.2444 -0.5860
12005W        W32285  17.509  14.559   1.857 -0.1094  0.0935 -0.1033
12006W        W32286  15.547   4.669   2.581  0.0771 -0.3348  0.2890
12007W        W32287  10.062   1.700   4.006  0.1838  0.2018 -0.0100
12008W        W32288   8.619   0.175   4.471 -0.3028 -0.3841  0.2488
12009W        W32289   8.921  11.567   0.123  0.1333 -0.0000 -0.2273
12010W        W32290   3.989  16.459  13.381 -0.2519 -0.1423 -0.0727
12011W        W32291  10.931  17.308   0.431 -0.2117 -0.0228  0.0598
12012W        W32292  13.038  12.398  13.555  0.3037 -0.1405  0.4057
12013W        W32293  11.082   9.273   1.842 -0.0616  0.1047 -0.1753
12014W        W32294  15.090  14.511  13.878  0.0717  0.1151  0.0802
12015W        W32295  13.128   7.493   2.126  0.0765  0.4286  0.0234
12016W        W32296   6.825  14.457   4.844  0.0682  0.1599 -0.1445
12017W        W32297   0.118   6.672  13.379 -0.1866  0.0229  0.2929
12018W        W32298  12.879  14.541   2.442 -0.1763 -0.1140 -0.2777
12019W        W32299  10.312  17.192  13.589  0.1704  0.0053 -0.4068
12020W        W32300  12.517   0.438  12.595 -0.1706 -0.0514  0.0806
12021W        W32301  12.811  15.235  13.330  0.1429 -0.2401  0.0529
12022W        W32302   9.576  16.648  16.666  0.2717 -0.2392  0.0741
12023W        W32303   4.787   9.830   1.987  0.2534  0.1391  0.3422
12024W        W32304   1.717  13.727  13.778 -0.1910  0.1984  0.4490
12025W        W32305   8.696   7.681   4.759 -0.1011 -0.1102  0.2100
12026W        W32306   3.655   6.267   0.059 -0.0437 -0.1954 -0.1344
12027W        W32307   1.953   5.104   3.237  0.3341  0.0504  0.0821
12028W        W32308  15.067   8.128   0.303  0.1311  0.0878 -0.0571
12029W        W32309   4.099  17.203   4.284  0.2148  0.0635 -0.0681
12030W        W32310   7.031  12.694  15.495 -0.0910  0.1507 -0.1143
12031W        W32311  12.662   6.788   3.946 -0.1616  0.1711 -0.4149
12032W        W32312   3.427  16.028  14.173 -0.2951 -0.3103  0.1854
12033W        W32313  17.977   9.737  13.760 -0.2779  0.1533  0.0490
12034W        W32314   1.620   5.569  14.073  0.1052 -0.0351 -0.1551
12035W        W32315   9.983  14.593  12.546 -0.2805  0.0705 -0.0314
12036W        W32316   9.684   9.925   2.738  0.1045 -0.0594  0.1871
12037W        W32317   1.563   5.066   2.886  0.0300  0.0663 -0.0156
12038W        W32318  14.553   2.794  16.640 -0.1384  0.0329  0.1651
12039W        W32319  12.262  13.867   0.399  0.0285 -0.0644  0.2206
12040W        W32320   0.497   7.400  15.297 -0.2241  0.1277  0.0013
12041W        W32321   2.226   6.465   2.776  0.0765  0.1873 -0.1034
12042W        W32322   0.507  16.495   3.478  0.0965 -0.2173  0.3802
12043W        W32323   0.828  12.829   1.676 -0.0216  0.1279 -0.0928
12044W        W32324   3.901  12.379  13.632 -0.2241  0.0739  0.0728
12045W        W32325   3.227  15.778   3.345 -0.0499  0.2051  0.5137
12046W        W32326   6.200  12.070  15.638 -0.1915 -0.0362 -0.0969
12047W        W32327  15.845  16.656  14.177 -0.1175  0.0711 -0.1388
12048W        W32328   8.039   8.960   3.392 -0.3163 -0.2800 -0.0324
12049W        W32329  12.782  11.423  16.333 -0.0371 -0.1878  0.1590
12050W        W32330   1.159  17.787   2.333 -0.2077  0.2403 -0.1865
12051W        W32331   9.518   5.327  15.503  0.0059 -0.3662  0.1512
12052W        W32332  11.920   9.749  14.608  0.2448  0.0064  0.0429
12053W        W32333   7.148  11.624   3.323  0.0733 -0.1382 -0.0557
12054W        W32334   7.817   7.204   1.647  0.1898 -0.0588 -0.2292
12055W        W32335  15.308   0.753  11.793  0.1486 -0.0344 -0.0914
12056W        W32336  12.035   8.485   3.216  0.1625  0.0071  0.0686
12057W        W32337  17.167   2.313  12.906 -0.1714  0.2002  0.1485
12058W        W32338   7.962   8.767   0.843  0.2372 -0.0097 -0.2467
12059W        W32339   7.093   4.149  13.708 -0.3847 -0.1936 -0.3013
12060W        W32340   4.667  16.893  14.745 -0.0687 -0.3775  0.3645
12061W        W32341  17.870  17.110   4.206 -0.1055 -0.0254  0.0062
12062W        W32342  15.887  10.188  13.425  0.1609 -0.1746 -0.1257
12063W        W32343  12.797   4.536  15.789  0.0699  0.2694 -0.0520
12064W        W32344  11.697  12.372   3.342 -0.1160  0.0277  0.0279
12065W        W32345  14.813  10.912  13.228 -0.3660 -0.2397  0.1767
12066W        W32346   3.226  17.100   1.357 -0.2120 -0.0008 -0.1694
12067W        W32347  16.097   6.094  13.615  0.0475  0.0833 -0.3347
12068W        W32348   9.597   4.555  14.562 -0.1736 -0.0628  0.4724
12069W        W32349  17.003  13.885  14.141 -0.2915 -0.0655 -0.0175
12070W        W32350   8.761  10.655  15.350 -0.0898  0.1913  0.1211
12071W        W32351   7.341  14.011  12.725 -0.0461  0.2801 -0.0933
12072W        W32352   6.449   0.043  15.225  0.1323  0.1714 -0.1910
12073W        W32353  10.004   3.537  11.957 -0.0707  0.0435  0.3127
12074W        W32354  13.535   1.704  13.666  0.3668  0.0127 -0.1424
12075W        W32355  11.844   0.917   1.754 -0.0307  0.1372 -0.1626
12076W        W32356  12.640   2.295  13.964 -0.1705 -0.0016 -0.0328
12077W        W32357   4.572  15.996   3.020 -0.0248 -0.1518  0.1038
12078W        W32358   6.337  16.894   0.716 -0.1048 -0.0150 -0.2306
12079W        W32359  14.030   1.632   1.202 -0.0156  0.0836  0.1156
12080W        W32360   0.627   1.134  12.742  0.2002  0.0776  0.1435
12081W        W32361   4.345   6.995   2.211 -0.0701 -0.1854  0.1557
12082W        W32362  13.220  12.477  15.409  0.2196 -0.2881 -0.2300
12083W        W32363  10.975  17.867  14.952 -0.2261 -0.2986  0.0172
12084W        W32364   1.403   2.613  14.125  0.0031  0.1893 -0.0930
12085W        W32365   4.217   7.696  14.420 -0.0045 -0.1162  0.0137
12086W        W32366   2.240   7.971  16.381 -0.2163 -0.0112 -0.2743
12087W        W32367   4.654  16.705  13.441  0.2183 -0.0138  0.2226
12088W        W32368  14.918  12.167  15.516  0.2400  0.0028 -0.0402
12089W        W32369   6.062  16.664  13.273  0.1835 -0.1396 -0.1257
12090W        W32370   9.209  16.243   2.469  0.0498 -0.1022 -0.1064
12091W        W32371  16.929   8.537  12.216 -0.1650 -0.0205  0.1253
12092W        W32372  10.415   7.961  16.602 -0.4334  0.0922  0.1819
12093W        W32373  12.734   7.544   4.093  0.0650 -0.1065  0.0015
12094W        W32374   4.675   9.071  15.766  0.2463  0.0129  0.1041
12095W        W32375  12.656   8.830   1.430  0.0487  0.0414 -0.1118
12096W        W32376  12.889  16.847  16.332 -0.1032 -0.1565  0.1897
12097W        W32377   2.769   2.851   0.354 -0.2298  0.0875  0.0785
12098W        W32378   5.903  13.030   1.984 -0.0083  0.0897 -0.1508
12099W        W32379   6.751  11.308  12.102 -0.0924 -0.0525  0.0780
12100W        W32380   5.401   8.785   1.145  0.3106 -0.0115  0.0238
12101W        W32381  13.987   3.609   3.246  0.4459  0.4030 -0.1274
12102W        W32382  16.852   6.433   2.529  0.0355  0.0759  0.2276
12103W        W32383   3.632   9.855  15.056 -0.2787  0.1045 -0.0645
12104W        W32384   5.691   0.260   3.167 -0.0480 -0.1179  0.2503
12105W        W32385  16.261  10.202  12.110  0.0520 -0.0001  0.1184
12106W        W32386   2.223   3.851  15.445  0.1212 -0.1469 -0.1729
12107W        W32387   6.798   0.262   0.757  0.0702  0.1488 -0.2939
12108W        W32388  15.498  10.786  15.017  0.0422 -0.0792  0.0238
12109W        W32389  10.516   1.529   0.204 -0.2038  0.3733  0.3862
12110W        W32390  14.164  12.405  12.431 -0.0702 -0.0060 -0.0768
12111W        W32391   2.279  16.526   0.348  0.1894 -0.2349 -0.0006
12112W        W32392   3.942   0.484  14.726 -0.0151  0.0303 -0.1528
12113W        W32393  13.474   9.847   2.958  0.1492  0.1309 -0.1069
12114W        W32394   9.791  17.772  14.229 -0.0492 -0.1152 -0.1272
12115W        W32395  16.529   7.209   0.172 -0.0201  0.0524  0.1469
12116W        W32396   9.772   9.749   1.794  0.1469 -0.2958  0.2557
12117W        W32397  16.258  16.508  16.362 -0.2675  0.0161  0.0004
12118W        W32398   5.541   5.214   3.510 -0.1313  0.0707 -0.0647
12119W        W32399   4.618   2.718  16.419  0.3813  0.0846  0.0461
12120W        W32400  13.148  15.133   3.022 -0.0078  0.0005 -0.1292
12121W        W32401  16.663   4.826   1.232 -0.0545  0.0808 -0.0601
12122W        W32402   5.741  10.177  14.193 -0.0550  0.2056 -0.2016
12123W        W32403  17.193   4.600   3.495 -0.1691 -0.0397 -0.0368
12124W        W32404  17.947   3.791  14.275  0.3381  0.0030 -0.1606
12125W        W32405   3.403  11.622  16.509 -0.2998  0.0503  0.0111
12126W        W32406  13.224   8.063  16.471  0.1136 -0.0581  0.0518
12127W        W32407  10.049   7.199   2.931  0.4780  0.4097  0.0212
12128W        W32408  13.096   6.801  16.414 -0.1425 -0.0649  0.0410
12129W        W32409   3.426   6.285   4.723 -0.2070  0.1837  0.1524
12130W        W32410  12.909  11.144  15.009 -0.1513 -0.1395 -0.2585
12131W        W32411   8.752  10.004  14.939 -0.3237 -0.2214 -0.1037
12132W        W32412   6.701  12.782   1.517 -0.1083 -0.0100  0.1559
12133W        W32413  14.787   6.264   4.554 -0.2939  0.1819  0.1031
12134W        W32414  14.216   3.601  16.317  0.0711  0.1174 -0.0101
12135W        W32415   6.357   2.442  14.969 -0.1359 -0.1209 -0.0221
12136W        W32416  14.340  14.870   3.488  0.0828 -0.4788  0.0286
12137W        W32417  10.525   2.531   1.942  0.5212 -0.0257 -0.0193
12138W        W32418   7.133  11.484   1.037 -0.0648 -0.2403 -0.0991
12139W        W32419  15.519  12.628   3.356  0.0712 -0.2189  0.0276
12140W        W32420  14.647  14.283  16.347  0.2271  0.0630 -0.0426
12141W        W32421   3.723   5.689  15.520 -0.1075 -0.0665 -0.0733
12142W        W32422   2.579   6.065   4.748 -0.1092 -0.1615 -0.0002
12143W        W32423   1.283   8.575  15.711 -0.1452 -0.0608 -0.1629
12144W        W32424  14.600  16.398   3.073  0.0545 -0.2594 -0.2668
12145W        W32425  14.701   9.721   0.339  0.2221 -0.0269  0.1120
12146W        W32426   6.836  11.016   4.180 -0.0117 -0.5463 -0.1162
12147W        W32427   7.197  13.892  15.050 -0.2839  0.0844 -0.1956
12148W        W32428   1.878   9.301  14.445 -0.1216  0.2326  0.3111
12149W        W32429  17.135   8.336   2.221 -0.0528 -0.0404  0.3764
12150W        W32430   7.813  17.265  13.300 -0.0925  0.0015 -0.2078
12151W        W32431  11.992   7.590  12.765 -0.2316 -0.0790  0.0815
12152W        W32432  14.546  12.210   3.533  0.0583  0.3212  0.0610
12153W        W32433  16.101  14.435   2.087 -0.2891  0.0883 -0.1204
12154W        W32434  17.809  12.834  16.300 -0.0123 -0.1447 -0.3264
12155W        W32435  15.905   1.013  14.113 -0.1981  0.1530  0.1925
12156W        W32436   4.590  17.587  14.049  0.0851  0.1419 -0.2396
12157W        W32437   3.884  11.192   2.208 -0.0610  0.1853 -0.1270
12158W        W32438   4.814  14.048   0.080  0.1295 -0.1555 -0.0709
12159W        W32439  12.033   4.216   0.352  0.0079 -0.1158 -0.1337
12160W        W32440  16.747  12.786  16.313 -0.0257  0.4087 -0.3367
12161W        W32441  16.697   5.870  16.141  0.1779  0.2168 -0.0503
12162W        W32442  11.444  13.840  13.793  0.0127 -0.0570  0.2170
12163W        W32443  17.224   7.572   4.787 -0.0814  0.2536 -0.3607
12164W        W32444   1.516   4.915   3.417 -0.0231  0.2577  0.2585
12165W        W32445  16.881   8.426  14.986  0.0830  0.2014 -0.2740
12166W        W32446   6.770   2.762  16.365  0.1278  0.1171  0.2290
12167W        W32447  15.321   8.305   1.549  0.1706 -0.2590  0.2931
12168W        W32448   0.278   5.187  13.577  0.0047 -0.0387  0.4067
12169W        W32449  14.871  13.754  14.510  0.2958 -0.0124  0.0426
12170W        W32450   0.268   4.680  14.430  0.4079 -0.1332  0.1087
12171W        W32451   3.220   0.540  13.656  0.0137  0.1837  0.2071
12172W        W32452  15.992   2.229   1.627  0.1182  0.0476  0.1023
12173W        W32453  10.021   6.033  15.631  0.1140 -0.1302  0.2790
12174W        W32454   6.845  16.275  13.386  0.2459  0.2464 -0.0324
12175W        W32455  14.783   5.317  15.881  0.1263  0.2395 -0.2331
12176W        W32456   1.829   1.373  14.343 -0.1437  0.1260  0.1081
12177W        W32457   9.357  16.982   2.777  0.2338 -0.1503 -0.2280
12178W        W32458  15.723   0.463   4.157  0.3230  0.1068  0.0805
12179W        W32459   3.527   8.923  14.784  0.1531 -0.0258 -0.3218
12180W        W32460   6.525   5.013   4.534 -0.0100  0.0462  0.0306
12181W        W32461   6.210   5.406  12.628 -0.2824  0.1294  0.0623
12182W        W32462  17.643   3.774   2.921 -0.3263 -0.0409  0.1970
12183W        W32463  10.913  11.647  16.434  0.0826  0.1647 -0.0893
12184W        W32464   7.942  12.404  14.275 -0.1483 -0.1006  0.0901
12185W        W32465   7.595  11.173  14.200  0.0053 -0.2406 -0.2607
12186W        W32466   4.932  10.346   1.089 -0.1734 -0.0865  0.2862
12187W        W32467  17.679  13.793   0.551  0.3843 -0.1148 -0.0199
12188W        W32468  13.623  12.459  14.448 -0.0633 -0.1044 -0.4128
12189W        W32469   4.677  13.093  16.517  0.1637 -0.1528  0.0736
12190W        W32470   2.060   5.873  16.319  0.0285 -0.0662 -0.2622
12191W        W32471   7.573  11.152  15.564 -0.2099 -0.0530 -0.3718
12192W        W32472   3.497   6.629   5.104  0.0496 -0.1552  0.0016
12193W        W32473   4.086  12.591  16.139 -0.1568 -0.3436 -0.0341
12194W        W32474   8.177  17.513  15.274 -0.0864  0.0190 -0.0537
12195W        W32475   1.094   6.091  11.865 -0.1324 -0.0079  0.2749
12196W        W32476   9.462  12.790  16.379  0.1348  0.0675  0.1638
12197W        W32477   4.295  13.607  14.193 -0.0747  0.0331  0.1093
12198W        W32478   6.794  17.655  13.290  0.3579 -0.2771  0.0792
12199W        W32479   9.248   6.275   4.027 -0.2926 -0.2189  0.1332
12200W        W32480  10.269  15.656  12.717  0.0688  0.1142  0.2367
12201W        W32481   3.586  14.551  16.279 -0.1325  0.2680 -0.0090
12202W        W32482  12.430   6.797  12.932  0.1983 -0.1245 -0.1606
12203W        W32483  12.653   1.296  13.093  0.0024  0.0051  0.3711
12204W        W32484  15.993  10.833   1.665 -0.0730 -0.0185 -0.1158
12205W        W32485  15.606   5.737  13.565 -0.1810  0.0691  0.0362
12206W        W32486  10.469   5.267  13.216  0.1947  0.0567  0.1072
12207W        W32487  12.104   0.177  16.686  0.1447  0.5532  0.0763
12208W        W32488  16.258   5.465  12.092 -0.2582 -0.2379  0.1752
12209W        W32489  14.433   8.641   3.991 -0.5497  0.1442  0.1188
12210W        W32490  11.516  12.177  15.007  0.1352  0.0448  0.3050
12211W        W32491  17.858  16.508  13.623 -0.1285 -0.2657 -0.2379
12212W        W32492  17.919  17.881   2.029 -0.4927 -0.2139  0.1656
12213W        W32493   7.757   4.176  16.273 -0.0957 -0.2335 -0.2090
12214W        W32494  12.594   0.420  15.427  0.1216  0.2473 -0.1770
12215W        W32495   1.398   6.296   4.806 -0.1431  0.2667 -0.4113
12216W        W32496  17.435  14.901   4.308 -0.4354 -0.1705 -0.4274
12217W        W32497   8.025   4.233  12.498 -0.1110 -0.0967  0.0595
12218W        W32498  16.187   1.240   3.796 -0.0389 -0.2050  0.3612
12219W        W32499   2.671   2.299   2.849  0.3341 -0.0782  0.0120
12220W        W32500   2.090   1.530   1.490  0.0058 -0.0336 -0.0873
12221W        W32501   1.586   9.979  12.946 -0.4786 -0.2397  0.1582
12222W        W32502   3.333   4.086   2.201 -0.0241  0.1495  0.3298
12223W        W32503  11.673   2.584  11.266  0.2359 -0.1844  0.0078
12224W        W32504   6.590   8.868   3.160  0.0480 -0.2615  0.1414
12225W        W32505   6.117  17.059   3.330  0.0858  0.1387  0.0619
12226W        W32506   7.659  12.001   2.611 -0.0892  0.2985  0.2277
12227W        W32507   8.491   4.660   2.712 -0.1027 -0.0177 -0.1683
12228W        W32508  13.316   1.497   3.959  0.0248 -0.0452  0.2419
12229W        W32509   3.850  11.420  14.435  0.3510  0.0585 -0.1182
12230W        W32510  12.644  13.435   0.126  0.2084  0.0874  0.0022
12231W        W32511  13.327  15.086  12.455  0.0711  0.0554 -0.1015
12232W        W32512  17.183   8.932  15.114  0.4107 -0.5264  0.2386
12233W        W32513   0.773   7.833  12.731  0.2211  0.0093 -0.1279
12234W        W32514  12.284   8.411  11.284 -0.0160  0.0990 -0.1022
12235W        W32515   6.297   5.437  12.085 -0.1098 -0.0117 -0.1681
12236W        W32516   6.751  17.569  14.174 -0.0319  0.1654 -0.1895
12237W        W32517   3.206  12.381   4.990  0.1284  0.0835  0.0978
12238W        W32518   6.207   7.010   2.642 -0.0529  0.0950  0.1152
12239W        W32519   0.554  14.450   0.209 -0.0872  0.1598  0.1230
12240W        W32520  11.236   0.139   0.368  0.3447  0.1849  0.0236
12241W        W32521  12.975   3.521   3.500  0.1669  0.0542 -0.1208
12242W        W32522   6.199   9.914   3.132  0.0682 -0.1969 -0.1070
12243W        W32523   0.430   4.906  16.332 -0.0834 -0.3321 -0.0170
12244W        W32524   3.658   2.243   3.144  0.0694 -0.3107  0.2137
12245W        W32525   1.655  12.660   1.185 -0.1386 -0.0346 -0.3122
12246W        W32526   5.986  14.499   4.524 -0.1693  0.1352  0.0984
12247W        W32527   2.885   5.024   3.465  0.1371 -0.1607  0.0353
12248W        W32528  12.934   0.605   4.078 -0.0806  0.1480  0.0709
12249W        W32529  10.347   6.902  15.509  0.2866 -0.1361 -0.0199
12250W        W32530  17.804   8.090  13.644  0.2364  0.1515  0.1097
12251W        W32531   0.172  13.420   3.016  0.1071 -0.4708  0.1009
12252W        W32532   3.418   4.336  15.689  0.1207  0.2084  0.1578
12253W        W32533  14.156  14.696   2.231 -0.0617 -0.0726 -0.1470
12254W        W32534   6.690  12.244  13.955  0.1057 -0.1396 -0.1101
12255W        W32535  12.972  11.699   0.036  0.0191 -0.1549  0.2190
12256W        W32536  15.304  14.115  14.734  0.2160  0.1210 -0.2842
12257W        W32537  13.869  10.968   1.917  0.1085 -0.1217  0.2774
12258W        W32538   4.947   5.901   3.226 -0.1413 -0.2682  0.2137
12259W        W32539  14.134   1.819   0.082  0.0291  0.1950 -0.3025
12260W        W32540   0.708   4.249  12.123  0.0455 -0.1771 -0.0437
12261W        W32541  11.708   9.887   1.717 -0.3121 -0.1812  0.0730
12262W        W32542  11.954   6.223   0.683  0.0327 -0.0258 -0.1443
12263W        W32543   4.993   5.989  12.274 -0.3082  0.0565  0.2038
12264W        W32544  16.030  16.923   1.392  0.0611 -0.1333 -0.0684
12265W        W32545   4.286  10.908   3.424 -0.0926  0.1114 -0.2973
12266W        W32546   3.478  14.437  14.740 -0.0412  0.1289  0.0389
12267W        W32547   1.428   6.187  15.155 -0.2782  0.3573 -0.0842
12268W        W32548   4.995   5.948   1.108  0.1019 -0.1353  0.1485
12269W        W32549   0.296  15.629   1.020 -0.1093  0.0977 -0.0382
12270W        W32550  11.374  16.820   3.000  0.1088 -0.0104  0.0258
12271W        W32551  13.579   1.853  16.642 -0.2854  0.2858 -0.2233
12272W        W32552  12.416   1.293  15.236  0.0832  0.2597  0.0314
12273W        W32553  11.536   2.643  11.770  0.0059 -0.0978  0.0738
12274W        W32554  16.755   9.589  13.849  0.0511 -0.0495  0.2402
12275W        W32555   5.970   2.119  16.055 -0.0245 -0.2143 -0.1031
12276W        W32556   0.658   6.612   1.192 -0.2062  0.0259 -0.0677
12277W        W32557  10.315   7.612   2.843 -0.1657  0.2807 -0.3232
12278W        W32558   1.529  15.785  12.117 -0.2008  0.1867  0.0495
12279W        W32559   4.544  12.776   3.617 -0.2802 -0.3881  0.1399
12280W        W32560  14.484  17.203   4.320  0.1366 -0.1265  0.2027
12281W        W32561  15.440   3.878   2.735 -0.3461 -0.2041  0.0618
12282W        W32562   5.940  10.041   3.535 -0.1298  0.2098 -0.2479
12283W        W32563  17.758  17.910   1.550  0.1069 -0.0133  0.2502
12284W        W32564   7.448   6.411  12.409  0.0566 -0.0443 -0.0307
12285W        W32565   3.887  14.070  13.006 -0.0479  0.0656  0.1447
12286W        W32566   8.359   5.853  13.983  0.2628 -0.1433 -0.0903
12287W        W32567   0.557   8.210  15.224 -0.0503  0.1194  0.0078
12288W        W32568   4.636  16.685  11.594  0.1796  0.2018  0.1229
12289W        W32569  16.721   2.889   0.870  0.1473 -0.0991  0.0836
12290W        W32570   5.744  17.784   3.946 -0.1021 -0.1449 -0.0809
12291W        W32571   9.346   1.838  12.823 -0.2212  0.0557 -0.0663
12292W        W32572   5.613   8.634  13.113  0.1518 -0.0096  0.1750
12293W        W32573  10.181   3.193  13.339 -0.2180  0.2800  0.2717
12294W        W32574   9.340   7.591  15.768  0.0094  0.3058  0.3864
12295W        W32575   3.734   7.621  13.221  0.0475 -0.1664 -0.1987
12296W        W32576  10.410   8.365   0.802  0.0184 -0.0230 -0.0842
12297W        W32577   9.094   3.341  12.366 -0.0615  0.0101 -0.1399
12298W        W32578  16.984  17.704   1.978  0.2898  0.1017  0.3507
12299W        W32579  14.697   5.633   3.471 -0.2954  0.2613  0.1688
12300W        W32580   1.414   4.980   0.501  0.1123 -0.2542  0.0934
12301W        W32581   0.302  12.999   2.615 -0.0757 -0.0568  0.0270
12302W        W32582   0.857   2.848  12.565  0.2116 -0.0933 -0.3160
12303W        W32583   7.764   0.484  14.889 -0.2616 -0.0300  0.0970
12304W        W32584  17.006   6.825   2.826  0.6733 -0.2355 -0.2099
12305W        W32585  11.560  14.723  14.335  0.1485 -0.2114 -0.2837
12306W        W32586   1.901   9.562   0.148 -0.1626  0.1201  0.0552
12307W        W32587   4.842   8.186  13.664 -0.1569 -0.2733 -0.1585
12308W        W32588   0.383  14.816  12.275 -0.2084  0.1120  0.1517
12309W        W32589  13.136   1.784   2.057 -0.0291 -0.2208  0.1958
12310W        W32590   4.156  15.286   0.859  0.0497  0.2517 -0.0504
12311W        W32591  13.317  16.311   1.302  0.0464 -0.0263  0.3176
12312W        W32592   7.962   9.528  14.941  0.1597 -0.2771 -0.2415
12313W        W32593  13.689   0.706   3.575 -0.0651  0.1996 -0.3520
12314W        W32594   1.363  10.877   5.080 -0.2191  0.1111  0.1453
12315W        W32595   6.335  10.487  14.740 -0.0632 -0.0010 -0.0690
12316W        W32596   2.974   3.597  16.302 -0.0614  0.1315 -0.3308
12317W        W32597   0.625   7.193   3.228  0.1800  0.2246 -0.1537
12318W        W32598   7.894   0.927  12.382 -0.0865 -0.0899 -0.3351
12319W        W32599  16.476  15.945   1.868 -0.1751  0.2325 -0.1969
12320W        W32600  15.256   8.678   1.222 -0.3200 -0.1549  0.0604
12321W        W32601  12.087   3.381   3.804 -0.2522 -0.1228 -0.2027
12322W        W32602   7.649  11.330   4.800 -0.2001 -0.0372 -0.5439
12323W        W32603  15.955   4.074  13.096  0.2992  0.2219 -0.1097
12324W        W32604   8.712  11.814  14.159 -0.2015  0.0326 -0.0287
12325W        W32605  12.571   0.859   3.727  0.2868  0.0324  0.1232
12326W        W32606   4.924  15.816  16.462  0.0743 -0.0551 -0.0894
12327W        W32607   9.741   8.938   3.003 -0.1039 -0.1608  0.1087
12328W        W32608   6.818   7.002  12.900 -0.3833  0.3887 -0.2115
12329W        W32609   9.127  10.258   0.457 -0.0123  0.0008  0.3109
12330W        W32610  10.297   7.502  13.723 -0.0607 -0.1106 -0.2384
12331W        W32611   1.722  10.476  12.141 -0.0340 -0.3871  0.1003
12332W        W32612   4.401   1.250   0.243  0.1744 -0.3356  0.1642
12333W        W32613  14.184  16.098   1.722 -0.1662 -0.1535  0.1517
12334W        W32614   6.249   3.259   3.857 -0.1104 -0.0923 -0.2271
12335W        W32615   6.148   4.927  13.854 -0.0177 -0.1495  0.0806
12336W        W32616   3.085  11.472   4.966  0.0867  0.0765  0.0755
12337W        W32617  15.489  12.670  13.029  0.0999  0.0035  0.0711
12338W        W32618   3.394  14.888   3.665  0.2443  0.4433 -0.0176
12339W        W32619   0.569   7.680  14.867  0.3225 -0.0702  0.1883
12340W        W32620   9.392  15.515  14.952  0.0731  0.0187  0.3903
12341W        W32621  11.583  12.470  13.627 -0.0030 -0.2960  0.1088
12342W        W32622  12.014   4.578  16.408  0.0494 -0.2880 -0.1463
12343W        W32623   5.660   6.857   1.952  0.2924 -0.0213 -0.2876
12344W        W32624  17.649  17.324   4.729  0.0943  0.4258 -0.0030
12345W        W32625  13.526  14.519   1.503 -0.1606  0.2704  0.4405
12346W        W32626  11.874  16.916  12.681 -0.0168  0.1606  0.1589
12347W        W32627  17.758   2.759  14.827 -0.0056  0.0250 -0.0319
12348W        W32628  11.467   6.213   4.040  0.0147  0.0313  0.0553
12349W        W32629  15.141   3.304   2.964  0.1654 -0.2510 -0.1050
12350W        W32630   1.914  14.554  12.476  0.2856  0.0531  0.1210
12351W        W32631  10.674  15.657   4.243 -0.0819 -0.0807 -0.0598
12352W        W32632   7.685   2.976  14.223 -0.1017  0.0418 -0.0494
12353W        W32633  15.407  13.380   4.699 -0.0480 -0.3230 -0.1025
12354W        W32634   0.307   2.532   4.063  0.2130 -0.1227 -0.4669
12355W        W32635   9.343   5.780  13.982  0.3365  0.3725 -0.1461
12356W        W32636   9.315   7.538  13.759 -0.2203 -0.0724 -0.0472
12357W        W32637  17.207   4.581  14.443 -0.2538  0.2676  0.0460
12358W        W32638  12.607   1.779  15.403  0.1988  0.1564 -0.1495
12359W        W32639   9.650   9.099   0.086 -0.0748 -0.2184 -0.1336
12360W        W32640   3.111   5.789   3.322  0.1955 -0.2212 -0.1919
12361W        W32641  10.156   8.370  16.557  0.3600 -0.0673  0.0639
12362W        W32642   1.878  13.574  12.750  0.1002  0.0761 -0.3518
12363W        W32643   8.007  13.496  16.492  0.2071 -0.1234 -0.2201
12364W        W32644   3.761  11.136   2.705  0.0240 -0.0868  0.0203
12365W        W32645  13.633  14.569   4.077  0.1295 -0.3110  0.2665
12366W        W32646   6.354  12.811  14.741  0.0350  0.3782 -0.0383
12367W        W32647  16.796   8.704   3.657  0.0541  0.3504  0.2526
12368W        W32648  10.773   8.382  13.469  0.0499 -0.0697  0.1581
12369W        W32649  13.544   0.906  16.547  0.0238 -0.1693  0.1864
12370W        W32650  13.429   9.821  12.462  0.1136 -0.2511  0.1552
12371W        W32651   5.199  15.278  12.604  0.0546 -0.0500 -0.1935
12372W        W32652   4.461   5.213   2.953 -0.0388  0.4211 -0.0029
12373W        W32653   7.327   5.221  15.606 -0.1906 -0.2587  0.0318
12374W        W32654   4.435  11.272  12.811  0.7991  0.2949 -0.0637
12375W        W32655   2.028  13.534   1.263 -0.2604 -0.0597  0.1046
12376W        W32656   5.312  15.135   4.973  0.0054  0.1005 -0.2457
12377W        W32657  14.476  15.159  16.350 -0.1184  0.0882  0.0353
12378W        W32658  15.153  14.980   0.127  0.0971  0.2347 -0.0685
12379W        W32659   4.880  11.472   2.016  0.3083  0.0895  0.1360
12380W        W32660  13.420   6.746  15.258  0.0666  0.0869 -0.1853
12381W        W32661   0.064   1.387   4.097  0.3745 -0.4432 -0.2715
12382W        W32662   6.914  13.036  12.792  0.0123 -0.2856 -0.0161
12383W        W32663  12.581   5.354   2.426 -0.2945 -0.2475 -0.0982
12384W        W32664  15.452  13.853   2.326 -0.1293 -0.2614  0.3219
12385W        W32665  11.842  16.929   2.860  0.0086  0.1204  0.0283
12386W        W32666  16.154   0.863  12.540 -0.3129 -0.1467  0.0426
12387W        W32667   7.038   8.027   4.549  0.1899 -0.2402 -0.0637
12388W        W32668   0.973  15.966  12.919  0.2528  0.1202  0.0553
12389W        W32669  17.497  16.717   1.393 -0.2225 -0.2160  0.0675
12390W        W32670  15.789   4.524   3.562 -0.0674  0.0545  0.2028
12391W        W32671  17.703  17.360  12.578  0.0444  0.0347 -0.2071
12392W        W32672   0.738   3.317  14.868 -0.1164 -0.0072 -0.2576
12393W        W32673   4.099   0.030   1.912 -0.1645  0.1891  0.0417
12394W        W32674   3.034  15.662   4.818 -0.0963  0.0724  0.1620
12395W        W32675   6.138  13.374   1.623  0.0146  0.1867  0.1868
12396W        W32676  16.978   7.438  13.741 -0.0174 -0.0626  0.1790
12397W        W32677  10.247   0.396   0.674 -0.1518  0.0147  0.2166
12398W        W32678  13.805  17.071   3.830 -0.0183  0.1043 -0.1397
12399W        W32679  13.837  13.813   2.254  0.0904 -0.0146 -0.2800
12400W        W32680  17.820   2.432   4.168 -0.0092 -0.0272 -0.2106
12401W        W32681   5.170  13.023  12.859  0.1308 -0.1356  0.1555
12402W        W32682   5.351  10.269   3.334 -0.2511  0.3301 -0.1452
12403W        W32683  13.919  16.627   3.683  0.2020 -0.0168  0.2184
12404W        W32684   6.365   4.743   0.657 -0.0015  0.0914 -0.3432
12405W        W32685   3.262  10.245   0.712 -0.1582  0.4223 -0.0621
12406W        W32686   0.095  15.597   2.365  0.2112 -0.0325  0.2532
12407W        W32687   2.441  12.047   1.460  0.0515  0.1632  0.1480
12408W        W32688  11.372   1.273  14.434  0.1960  0.0696 -0.1574
12409W        W32689   3.537  12.450   2.195 -0.2434  0.3405 -0.3428
12410W        W32690   1.290  16.209  13.161 -0.1635  0.2169 -0.0028
12411W        W32691  15.315  11.802   3.825 -0.1261 -0.3702  0.0969
12412W        W32692  10.019  10.811  12.975  0.0040 -0.0629  0.0343
12413W        W32693   4.130  15.772   1.898  0.0186  0.4294  0.1053
12414W        W32694   1.576  16.312   2.432  0.0199  0.0503  0.0195
12415W        W32695  12.942   9.530   2.396  0.2991  0.2757 -0.4472
12416W        W32696   5.013  12.430   1.257 -0.0188 -0.0181 -0.2030
12417W        W32697  11.600   6.725  16.669 -0.0214  0.4845 -0.1891
12418W        W32698  12.188   6.918  15.729 -0.1027 -0.0796  0.1088
12419W        W32699   3.574   9.868  15.981 -0.0993 -0.0756  0.1341
12420W        W32700   0.618  11.188   3.177 -0.0374 -0.2040  0.0205
12421W        W32701   3.487  10.722  14.777 -0.2054 -0.3550 -0.0871
12422W        W32702   5.947   7.926   2.655  0.3161 -0.1753  0.2664
12423W        W32703   5.925   4.881   1.713 -0.0525 -0.0075 -0.1843
12424W        W32704  11.836  11.046   1.736  0.0255 -0.1113  0.0360
12425W        W32705   4.922  17.208   3.198 -0.2075  0.1934  0.0760
12426W        W32706   0.748   7.007  14.956  0.0434 -0.1424  0.2279
12427W        W32707   0.094   9.763   4.815  0.1210 -0.3483 -0.1316
12428W        W32708  11.286  13.417   3.131  0.4315 -0.0553 -0.3734
12429W        W32709  12.886   3.408  16.154  0.1351  0.0496  0.1455
12430W        W32710   9.998   6.609  16.467 -0.3329 -0.1092 -0.1990
12431W        W32711  11.781   6.983   2.352 -0.3141 -0.2717  0.1015
12432W        W32712  12.790   2.531  12.143  0.1172  0.1774 -0.1019
12433W        W32713   5.355  11.088   1.261 -0.1951  0.0091  0.0825
12434W        W32714   6.164  17.075   4.632 -0.1125  0.2899 -0.1802
12435W        W32715  14.766   8.461   4.477  0.0022  0.0378 -0.0079
12436W        W32716   1.753  13.771   0.001 -0.0641  0.1157  0.0552
12437W        W32717   8.770   0.773  11.714  0.1731 -0.4187  0.1056
12438W        W32718   6.417  13.286  14.599 -0.1846 -0.1584 -0.3103
12439W        W32719  16.846  10.040  12.846 -0.0434  0.0931 -0.1226
12440W        W32720   5.897  13.168  14.531  0.1220  0.0911  0.0864
12441W        W32721  11.208   3.754   4.012  0.0014 -0.0471  0.0057
12442W        W32722   8.303  16.011   2.323 -0.0622  0.0707  0.1289
12443W        W32723   4.024   7.165   1.797  0.3757  0.2441  0.1460
12444W        W32724   2.512  13.293   5.062 -0.1425  0.0067 -0.1671
12445W        W32725  17.783   5.400   1.550 -0.2768  0.3280 -0.0687
12446W        W32726   0.815   5.458  14.807 -0.1360  0.0244  0.0139
12447W        W32727  14.455  12.839   2.850 -0.1618  0.2030  0.0689
12448W        W32728   6.920   2.986   4.348 -0.1026 -0.1942  0.0480
12449W        W32729  17.002   3.003   3.211 -0.2587 -0.1982 -0.0650
12450W        W32730   2.675   3.094   1.494  0.1455  0.0633  0.4976
12451W        W32731   1.228   2.756   1.580 -0.1478  0.1634  0.0032
12452W        W32732   0.257   4.581   3.575 -0.1030  0.0787 -0.0379
12453W        W32733   4.157   2.582   2.527  0.2128  0.0296 -0.1900
12454W        W32734  16.492   6.203   3.863  0.3072 -0.3876  0.1581
12455W        W32735   2.436   8.300   5.192 -0.2770  0.0085 -0.2009
12456W        W32736   7.589   2.091  15.819 -0.0276  0.2686 -0.2982
12457W        W32737   9.733   0.645   4.412  0.1135  0.1822  0.0987
12458W        W32738  15.371  17.037  15.852  0.0155  0.1995 -0.1345
12459W        W32739   8.106   8.149  16.223 -0.1713 -0.1216  0.0529
12460W        W32740   5.997  13.595  14.755  0.1026 -0.1149  0.0091
12461W        W32741   2.272  11.802  14.138  0.1581  0.2989  0.0823
12462W        W32742  13.538  16.046   2.607 -0.2247 -0.1799 -0.0943
12463W        W32743  14.691  10.195   3.069 -0.4685 -0.0631  0.1602
12464W        W32744   6.375  12.954  12.642  0.1930  0.0754  0.2504
12465W        W32745  11.826  11.015   1.094 -0.4542  0.1348 -0.1665
12466W        W32746   2.149   9.808   5.704  0.3859  0.1781 -0.2343
12467W        W32747   5.280  12.320   4.262  0.0424  0.0170  0.0760
12468W        W32748   9.251  17.421  12.828  0.0121  0.2192 -0.3173
12469W        W32749   5.225  13.222   4.686 -0.2972  0.1376  0.2706
12470W        W32750  14.226  17.223   1.087  0.0171  0.0632 -0.0333
12471W        W32751  14.560   6.149  16.121 -0.1674  0.2136 -0.0076
12472W        W32752  15.243   7.303  16.456 -0.0131  0.3777  0.0545
12473W        W32753   8.422  10.158  13.613 -0.0852  0.1833  0.0572
12474W        W32754  13.260   6.751  11.815  0.0462 -0.2126 -0.1987
12475W        W32755  15.006   7.980   1.708 -0.1027 -0.2756 -0.3861
12476W        W32756   6.582  14.492   0.923  0.1984  0.1902 -0.1134
12477W        W32757   2.734   6.379   2.646 -0.0140 -0.0043  0.2240
12478W        W32758  13.928   7.394  15.874  0.1820 -0.2858  0.0033
12479W        W32759   7.774  14.101   4.423  0.0194 -0.0048  0.1500
12480W        W32760  17.136  11.805  12.406  0.1372 -0.1234  0.0369
12481W        W32761   0.881  13.030  12.749  0.0976  0.0026 -0.0162
12482W        W32762  16.008   2.963   1.028  0.0381 -0.1138  0.0728
12483W        W32763   2.554   6.649   4.550 -0.0749  0.2103 -0.3446
12484W        W32764  14.407  11.745  16.350 -0.1516  0.1720  0.1484
12485W        W32765  11.859   3.778  13.591  0.0056 -0.2011  0.3629
12486W        W32766   7.997   3.899   3.799  0.0164 -0.0572 -0.1522
12487W        W32767   0.736   8.547   2.993 -0.2134  0.1052  0.0459
12488W        W32768  14.841   0.122   3.068  0.1025  0.1458 -0.3887
12489W        W32769   7.883  13.792   1.260  0.0565 -0.2097 -0.2447
12490W        W32770   7.660  16.516   2.045 -0.0658 -0.0313  0.1921
12491W        W32771   1.356  16.829  15.206  0.0116  0.1162 -0.0932
12492W        W32772   2.664   3.124   0.864  0.1195 -0.0547 -0.0424
12493W        W32773   9.961  12.222   4.641  0.4145  0.1460  0.0637
12494W        W32774  11.819   9.253  15.299 -0.1307  0.1921 -0.0953
12495W        W32775   4.171   4.588  13.231 -0.0426  0.0224 -0.3423
12496W        W32776  17.600   6.278  16.297  0.1968  0.2545 -0.0658
12497W        W32777   0.165   3.401  15.596 -0.2448 -0.1548 -0.0681
12498W        W32778  15.621   4.192   2.368 -0.0731 -0.0867  0.1174
12499W        W32779   3.452   5.599  12.411 -0.1692 -0.0434 -0.0080
12500W        W32780   3.998   2.619   3.021 -0.1756 -0.1865 -0.0354
12501W        W32781   8.239   2.206   0.293 -0.0860 -0.0576 -0.2228
12502W        W32782  15.135  16.418   1.659 -0.2682 -0.2223  0.0776
12503W        W32783   3.614  14.398  13.239 -0.0435 -0.0986 -0.2361
12504W        W32784   5.854   3.603   3.782  0.0657  0.3954  0.2511
12505W        W32785   6.630   7.164  14.936  0.2756  0.1592 -0.3223
12506W        W32786  17.501   1.897  12.252  0.0456 -0.2650 -0.0136
12507W        W32787   6.039  10.694   1.670 -0.0029 -0.0785 -0.2268
12508W        W32788   3.583  16.361   0.815  0.0199  0.1916  0.2554
12509W        W32789   5.170  10.805  11.914 -0.0278 -0.3194  0.1836
12510W        W32790   2.910  17.872   3.409 -0.0058  0.0524 -0.0748
12511W        W32791   0.020   8.973   1.886  0.0409  0.0728 -0.2383
12512W        W32792  12.604  14.561  12.029 -0.1781  0.0885  0.3470
12513W        W32793   4.902  16.507   3.587  0.0229  0.2172 -0.1842
12514W        W32794   1.749  16.271  13.280 -0.1427 -0.0625  0.2341
12515W        W32795  17.657   3.619   1.975 -0.0661 -0.0951  0.1009
12516W        W32796  11.925  12.126  13.254  0.4496  0.0083 -0.1386
12517W        W32797   9.515   2.730  13.358 -0.2477 -0.2572  0.0525
12518W        W32798   8.659  11.023  12.251  0.2231  0.1894 -0.0598
12519W        W32799   7.702   8.012  16.493 -0.1028  0.0868 -0.4225
12520W        W32800   1.033  13.510   2.169 -0.3351 -0.3562 -0.1406
12521W        W32801   9.745   9.066   4.592  0.0223 -0.0751 -0.1987
12522W        W32802  11.546  14.576  14.951  0.2195 -0.2950 -0.2199
12523W        W32803  11.699   4.975  13.079  0.3925  0.3233 -0.0200
12524W        W32804   6.465  16.443  13.073 -0.0765  0.3072 -0.0667
12525W        W32805  14.930  10.364  16.635  0.0083  0.5272  0.1326
12526W        W32806  14.578   7.556  13.488 -0.1947  0.1367 -0.1573
12527W        W32807  13.891   0.613   3.126 -0.3082  0.3281 -0.0502
12528W        W32808   2.148  16.083  12.220 -0.3134 -0.2625  0.2594
12529W        W32809  17.287  11.360  14.899  0.1364 -0.1237  0.1266
12530W        W32810   4.272  13.950   4.058 -0.0112  0.3256 -0.0230
12531W        W32811   6.666   3.623   3.630 -0.3512 -0.2339 -0.1972
12532W        W32812  14.140   5.976  12.696  0.0015  0.1036  0.2314
12533W        W32813   7.926   1.892   2.195  0.0839  0.0200  0.1844
12534W        W32814  13.590   2.382  10.464 -0.1535 -0.1842 -0.2061
12535W        W32815  13.733  15.872   0.640  0.0860  0.1321 -0.0171
12536W        W32816   2.321  15.901  16.021 -0.1938 -0.1484  0.0357
12537W        W32817   6.188   2.561   2.695 -0.2051  0.4720  0.2379
12538W        W32818  17.512   4.319  16.489  0.0117 -0.0149 -0.2492
12539W        W32819   3.721   8.555  13.442 -0.2964  0.2520  0.1136
12540W        W32820   9.241   9.797   2.893  0.2621 -0.0105  0.3429
12541W        W32821   8.349   2.658  16.673 -0.3065  0.2993  0.1536
12542W        W32822  10.951   4.721   0.354 -0.2538  0.0020 -0.2370
12543W        W32823  14.024   4.712  16.010 -0.0947  0.2563 -0.2011
12544W        W32824   8.609   5.803   4.505 -0.2781  0.0967 -0.1641
12545W        W32825  17.521  12.628   5.040 -0.0505  0.0192  0.2043
12546W        W32826  15.058  13.043  14.231 -0.3570 -0.2590  0.0908
12547W        W32827   0.843   8.648   5.149  0.0740  0.3027  0.1291
12548W        W32828  16.244   9.038  14.873  0.0020  0.0943 -0.0170
12549W        W32829   8.652   6.186  11.334 -0.0817  0.0886 -0.3224
12550W        W32830  15.474   3.785  15.399  0.1617 -0.2245 -0.1009
12551W        W32831   5.616  14.301  15.818  0.0668  0.4134  0.2658
12552W        W32832  11.738   7.108  12.032 -0.1097  0.0248  0.1147
12553W        W32833   7.115   9.056   1.778  0.0683 -0.3682 -0.0902
12554W        W32834   0.842   9.883  12.163  0.0812  0.2644  0.0397
12555W        W32835   5.976  13.650   4.255 -0.1882  0.2370 -0.0290
12556W        W32836  15.788   9.424   3.664 -0.1871  0.1557  0.0714
12557W        W32837   7.621  13.872   2.583  0.0109 -0.1561  0.1094
12558W        W32838   8.887  12.725   1.385 -0.1839 -0.2679 -0.2218
12559W        W32839  16.575   1.561  15.632  0.1469  0.0661 -0.0425
12560W        W32840  15.095  10.203   3.524  0.2220  0.2940  0.0711
12561W        W32841  15.577  10.643  12.778 -0.1602  0.0768  0.0315
12562W        W32842   8.395  13.297  14.468 -0.2416 -0.0514  0.0343
12563W        W32843   1.341   1.635  13.222  0.0491  0.1303  0.0491
12564W        W32844  15.288  17.152   0.470 -0.0066  0.1523  0.2190
12565W        W32845  14.917  17.431   0.324  0.1245  0.1837 -0.2639
12566W        W32846  16.077   0.611   2.139  0.0665  0.0894  0.2260
12567W        W32847   7.157   8.127  12.553 -0.1693  0.1420  0.1514
12568W        W32848  15.502   8.938  12.417 -0.1923 -0.1838  0.1764
12569W        W32849   7.722   7.022   0.274 -0.0010  0.1779 -0.0299
12570W        W32850   3.359   6.867   3.989 -0.1339  0.0394  0.0506
12571W        W32851   0.621  17.016   3.214  0.1831 -0.0427 -0.0061
12572W        W32852  17.788   3.564   0.966 -0.2015  0.4981 -0.0588
12573W        W32853   0.991  15.841  15.669  0.2908  0.0845 -0.3247
12574W        W32854  11.345  11.165   2.625 -0.1335 -0.3156 -0.3123
12575W        W32855  13.518   5.779  15.197  0.1641 -0.0826  0.0212
12576W        W32856   4.162   1.376   4.397  0.0512  0.1938 -0.0670
12577W        W32857   3.739   6.841  13.268  0.2521 -0.1237  0.1981
12578W        W32858  15.658   2.154  15.218 -0.5000 -0.0320  0.0820
12579W        W32859  13.743   4.391   0.442 -0.0199  0.0389 -0.1589
12580W        W32860  10.172  15.032   4.045  0.1761 -0.0686  0.1048
12581W        W32861  15.862   7.939   3.751  0.3443 -0.1408  0.1020
12582W        W32862  15.732   6.273   1.805 -0.0191  0.1182  0.1766
12583W        W32863   8.784  12.226   5.885  0.0802  0.1045 -0.3160
12584W        W32864   6.264   7.081  13.991  0.1328 -0.1500  0.2350
12585W        W32865   7.562   8.229   1.338 -0.2010 -0.0194  0.2026
12586W        W32866  14.697  17.016   3.926 -0.1768 -0.0994  0.3564
12587W        W32867  15.956   3.393   2.544 -0.0946 -0.1363  0.0594
12588W        W32868  13.914  12.380  12.959  0.0006  0.1488 -0.1644
12589W        W32869   5.613   4.359   2.873 -0.0980 -0.2412  0.0039
12590W        W32870  15.621   5.144   2.524  0.0299 -0.1362 -0.1356
12591W        W32871   4.769  15.487   4.488 -0.3351 -0.0087  0.0777
12592W        W32872   6.544   4.282  12.199  0.3647  0.1729  0.0817
12593W        W32873   1.964  10.884  15.913 -0.0534  0.1909 -0.0838
12594W        W32874   0.905  13.923  14.292  0.0634 -0.1079 -0.3332
12595W        W32875   9.174   8.201  12.056 -0.0606  0.1655 -0.0715
12596W        W32876  14.007   5.982   1.416 -0.0187 -0.1561  0.1855
12597W        W32877   4.287   0.283   1.012  0.1916 -0.1068  0.0981
12598W        W32878   2.528   2.620  16.689 -0.1965 -0.2996  0.1127
12599W        W32879   1.820  10.409  15.009  0.2101  0.0759  0.1785
12600W        W32880   9.900  11.969  13.833  0.1187 -0.1643  0.1239
12601W        W32881  16.085   6.621  14.459  0.0685  0.0069 -0.1551
12602W        W32882   4.968  12.998  13.783  0.0705  0.0962 -0.3746
12603W        W32883  12.547   9.335   4.866 -0.0610 -0.2589 -0.0757
12604W        W32884  11.175  12.340   0.937 -0.2081 -0.1491 -0.2666
12605W        W32885   0.225  16.019   2.675 -0.2682 -0.1091 -0.0366
12606W        W32886  11.482   4.206   4.197 -0.0029 -0.0356 -0.1582
12607W        W32887   7.416   6.582   0.668  0.0762 -0.0023 -0.1991
12608W        W32888  12.841  11.823  14.488  0.1114 -0.4020  0.2609
12609W        W32889   3.782   2.512  16.141  0.1166  0.0823 -0.2026
12610W        W32890  14.598   2.296   4.267 -0.0368  0.5138  0.0109
12611W        W32891   4.956   8.214   2.305  0.0293  0.1831  0.0831
12612W        W32892   7.310   4.346  14.562  0.0686 -0.1963 -0.0227
12613W        W32893  10.951   0.362  13.233  0.1775  0.1196 -0.0269
12614W        W32894   0.935   6.970  14.119 -0.0684  0.0129 -0.3104
12615W        W32895  17.061   3.846   3.450 -0.3519 -0.1479  0.0778
12616W        W32896   2.622   8.826  16.219 -0.1092 -0.1025 -0.3383
12617W        W32897   1.135   4.999   3.797 -0.2815  0.1540 -0.0772
12618W        W32898   2.697  11.446   0.738  0.2028 -0.0624  0.2484
12619W        W32899   3.827   4.260  13.295  0.0188  0.0163  0.1351
12620W        W32900  12.254   1.944   1.502  0.0451  0.0977  0.1260
12621W        W32901  16.415   1.701   3.700 -0.1679  0.2952  0.3887
12622W        W32902   4.155  12.335   4.950 -0.1414  0.2774 -0.0013
12623W        W32903  13.590   7.421  12.935 -0.0966 -0.0722  0.2918
12624W        W32904   4.351   1.219   2.790  0.4248  0.1005 -0.0734
12625W        W32905   2.257  14.769   3.932  0.0929 -0.1321 -0.0853
12626W        W32906   0.866  12.179  13.031  0.0018  0.0251 -0.1667
12627W        W32907  14.377   7.010  11.931  0.1067 -0.3463  0.1558
12628W        W32908   6.397   3.359   0.561  0.3204  0.1601  0.0101
12629W        W32909  12.778  14.903   2.760 -0.1468  0.0366 -0.1756
12630W        W32910   4.095  11.932   5.273 -0.2168  0.0217  0.0478
12631W        W32911   8.122   1.165  12.801  0.1170 -0.1863 -0.0625
12632W        W32912   4.040  10.191  15.844 -0.0113  0.1476 -0.1856
12633W        W32913   3.029  17.556  15.864 -0.0993  0.2328  0.1440
12634W        W32914  10.042   3.975  15.331  0.1677 -0.3530 -0.1531
12635W        W32915  17.292  14.248  11.138  0.1198  0.0195  0.1120
12636W        W32916  11.330  10.686  12.214  0.0691 -0.1005  0.1742
12637W        W32917  17.502   3.359  12.323 -0.0102  0.1432 -0.1213
12638W        W32918   7.264  10.233  15.834 -0.1063  0.0962 -0.0976
12639W        W32919   4.300  17.567  11.816  0.0852  0.0306  0.2631
12640W        W32920   2.217  10.931  14.739  0.0685 -0.1307  0.0263
12641W        W32921  10.721   6.514  14.327  0.2124 -0.2832 -0.2556
12642W        W32922   4.753   6.205   0.543  0.0330  0.1216 -0.0839
12643W        W32923   1.632   7.952   4.587  0.0397 -0.0024 -0.0249
12644W        W32924   7.804  11.351  12.889  0.1915 -0.1023  0.0985
12645W        W32925  12.317  12.922  14.627  0.1066  0.1145 -0.6077
12646W        W32926   9.557   3.234   3.378 -0.0076 -0.1964 -0.1365
12647W        W32927   2.259  11.745   2.213  0.0214  0.1432  0.2265
12648W        W32928  14.625  13.559   1.755  0.0294  0.0465 -0.0237
12649W        W32929  17.709   7.673  14.826  0.0701 -0.0077  0.1794
12650W        W32930   6.473   9.071  16.336 -0.3275  0.0129 -0.3224
12651W        W32931  10.671   7.097  16.516  0.2161 -0.1651 -0.1564
12652W        W32932  16.710   0.461   3.949 -0.1003 -0.0753  0.0199
12653W        W32933  17.648  10.511  12.014 -0.0266 -0.0855  0.2571
12654W        W32934   3.360  11.620  14.824 -0.2690  0.3442 -0.3481
12655W        W32935  17.225   5.704   4.720 -0.1218 -0.0790 -0.1331
12656W        W32936   9.258   6.132  11.948 -0.0263  0.1946  0.0627
12657W        W32937  12.098  12.379   2.525 -0.0424 -0.1225 -0.2962
12658W        W32938   4.056  12.176   4.136 -0.0218 -0.1322  0.0066
12659W        W32939   7.546   2.143   0.108  0.2135 -0.0326  0.3485
12660W        W32940  13.261  10.939   4.573  0.0692 -0.1909  0.2109
12661W        W32941  14.494  10.227  13.412 -0.1187 -0.1693  0.2791
12662W        W32942   6.798  11.221   2.808 -0.0715  0.0637 -0.1064
12663W        W32943   7.550  13.522  14.924 -0.1056 -0.0236 -0.0818
12664W        W32944   0.648   2.266   2.271  0.0716 -0.0536  0.0424
12665W        W32945  13.857   7.843  11.912 -0.2046  0.0976 -0.0790
12666W        W32946  12.237   1.309   0.946 -0.1315 -0.0954 -0.2361
12667W        W32947  14.005  13.886   4.617  0.0578  0.2347  0.1261
12668W        W32948  15.205   5.414   2.207 -0.0278 -0.0350 -0.1708
12669W        W32949  15.137  10.233  16.131  0.0402  0.1934 -0.0485
12670W        W32950  10.650   3.305   3.773  0.0518 -0.0419  0.0269
12671W        W32951  15.785  15.695  15.596 -0.3306 -0.2617  0.4211
12672W        W32952  10.826   4.717  12.095 -0.0269  0.1517 -0.0197
12673W        W32953  15.758  14.671  12.650  0.0003  0.0823  0.2861
12674W        W32954  17.614  17.261   0.991  0.1204 -0.0605 -0.2022
12675W        W32955   3.942  15.060   3.077  0.1281  0.0425 -0.0553
12676W        W32956   5.725   3.998   0.496  0.0938 -0.0294 -0.0128
12677W        W32957   6.898   0.662  14.657 -0.0943  0.1719  0.4358
12678W        W32958  15.935   6.625   2.676 -0.0554  0.0721  0.0230
12679W        W32959   8.276   3.306  13.455 -0.1512 -0.0724 -0.1075
12680W        W32960  12.808  11.105   3.608 -0.0880 -0.2630 -0.0414
12681W        W32961  16.615   4.824  14.746 -0.0260  0.1553  0.0516
12682W        W32962  11.382  12.720   1.240  0.1442  0.2358 -0.0227
12683W        W32963  10.629   6.177  13.948 -0.0903 -0.2915  0.0294
12684W        W32964   2.269   3.568   4.403 -0.0624 -0.2760 -0.0203
12685W        W32965   6.161   4.242  13.965 -0.1382 -0.4093 -0.1626
12686W        W32966   9.100  15.595  15.991  0.2698  0.0564 -0.1812
12687W        W32967   3.096   1.717  13.915 -0.0601 -0.0047 -0.0295
12688W        W32968  13.971   4.073  16.481  0.2706 -0.2934  0.0918
12689W        W32969   1.565  16.894   3.526 -0.3798 -0.0291 -0.1479
12690W        W32970   5.058   0.568   1.216 -0.2282 -0.0275  0.1738
12691W        W32971   0.446   7.341  14.116  0.2431 -0.1112  0.0556
12692W        W32972   7.516  15.671   2.444 -0.2431  0.2916 -0.2041
12693W        W32973  16.284  15.552  15.601  0.1871 -0.1577  0.1920
12694W        W32974   9.066   2.925  11.471 -0.0640 -0.2021 -0.0525
12695W        W32975   5.976  15.323  13.386 -0.0097  0.0741  0.1807
12696W        W32976   8.818  11.189   0.987 -0.1517 -0.0745 -0.2284
12697W        W32977   3.732  13.523  14.518  0.4517 -0.0859 -0.1589
12698W        W32978  13.679   2.780  12.041 -0.0255  0.1801  0.2095
12699W        W32979  12.550  14.848   0.462  0.1571  0.0994  0.3248
12700W        W32980   9.433  12.373   4.022 -0.1631  0.0777  0.2139
12701W        W32981   1.354  11.207  15.129  0.0792  0.4317 -0.3087
12702W        W32982  11.680   6.436   3.073  0.1582 -0.0293  0.1061
12703W        W32983  17.388   9.427  15.229  0.0650  0.0201  0.1697
12704W        W32984   9.623  15.567  15.472 -0.1427 -0.2045  0.3005
12705W        W32985   1.833  14.555   2.027 -0.0883  0.0986  0.1992
12706W        W32986   5.924  16.006  13.500  0.0151  0.2179 -0.0850
12707W        W32987  11.791   1.488  14.711 -0.2169 -0.0228 -0.0475
12708W        W32988   9.075  16.936  12.759  0.1953  0.1845 -0.0788
12709W        W32989   3.673  13.236  13.156 -0.2123  0.3059  0.0837
12710W        W32990  10.111   9.798   0.047 -0.1644  0.0928  0.2333
12711W        W32991   8.493  16.652  15.136 -0.1795  0.0338  0.0689
12712W        W32992  13.269   6.641   4.680 -0.0761  0.0464  0.0718
12713W        W32993  13.688  12.718  15.360 -0.0458  0.2530  0.1386
12714W        W32994   0.227   5.523   0.740  0.2921 -0.2184  0.0683
12715W        W32995  12.540   9.693   0.118  0.1887  0.1938  0.1097
12716W        W32996   0.074  14.034  15.171 -0.1217 -0.1676 -0.2269
12717W        W32997   1.095   6.675  13.717 -0.3092 -0.0062 -0.1374
12718W        W32998  17.609  14.988   1.145  0.0137 -0.1930 -0.2092
12719W        W32999   7.108   7.363  13.297 -0.2884 -0.0969  0.0158
12720W        W33000  15.907   5.997  15.649  0.2118 -0.1134 -0.0692
12721W        W33001  10.273  12.728  15.076  0.2396  0.0234 -0.0358
12722W        W33002  10.092  14.053   0.878  0.0573  0.1921 -0.0331
12723W        W33003   0.050   2.056  14.776  0.0706 -0.1503  0.0834
12724W        W33004  15.900  13.533   4.283  0.1458  0.1865  0.0468
12725W        W33005   9.911   2.588  12.453  0.0191  0.2532 -0.1144
12726W        W33006   0.416  12.313   2.876 -0.0233 -0.4442  0.1773
12727W        W33007  17.744   7.912   2.552  0.3340  0.1756  0.0945
12728W        W33008   0.410   6.260  15.816 -0.1324  0.1389  0.0106
12729W        W33009   7.009  16.036  14.191 -0.0129  0.0667 -0.0588
12730W        W33010   8.843   9.310   0.976 -0.3602  0.0294 -0.1012
12731W        W33011  15.984   1.265   4.796 -0.0199 -0.3896 -0.0635
12732W        W33012  15.765   1.665   4.472  0.2150  0.3106 -0.0673
12733W        W33013   6.417  15.766   0.173  0.2069  0.0915 -0.2338
12734W        W33014   5.716   1.726   3.041  0.3091 -0.1650  0.2427
12735W        W33015   2.814  11.474  12.315  0.1097 -0.0644 -0.0981
12736W        W33016   4.936   3.969   4.616  0.0656  0.0118  0.1284
12737W        W33017  12.348   5.516  11.311 -0.0176  0.3311 -0.1888
12738W        W33018  10.948   9.032  14.262  0.3085  0.1214  0.0134
12739W        W33019   0.693  13.341  15.959  0.1010 -0.1976 -0.4134
12740W        W33020   8.956   1.850  12.318  0.0034 -0.1482 -0.1712
12741W        W33021   7.932   4.745  12.369 -0.0841 -0.0774 -0.0916
12742W        W33022   1.161   8.576   0.830 -0.0931  0.0653 -0.2306
12743W        W33023   7.474   5.374  13.006  0.1244  0.1039 -0.1534
12744W        W33024   8.648   7.329   2.511 -0.0048 -0.0791 -0.1098
12745W        W33025   0.839   9.854   3.850 -0.2184 -0.1538 -0.0323
12746W        W33026  16.566  15.553  16.081 -0.0507  0.0479  0.0384
12747W        W33027   5.464  17.068  15.392 -0.0573  0.0567 -0.0069
12748W        W33028   5.520   4.332   3.862 -0.1437  0.1261 -0.2696
12749W        W33029   3.873  12.235   3.651 -0.2734 -0.3214 -0.3864
12750W        W33030   1.802  12.162  15.313  0.0933 -0.1670 -0.3913
12751W        W33031   7.873  17.853   1.904  0.1656 -0.0267  0.3523
12752W        W33032   5.273   0.750  13.157 -0.1175 -0.0082  0.1180
12753W        W33033   9.085   6.178   3.140 -0.1293 -0.1279 -0.0383
12754W        W33034   3.650   5.433   0.536 -0.0505  0.0265 -0.2281
12755W        W33035  16.597   3.085   5.004  0.0735  0.0074  0.4187
12756W        W33036  17.508   0.495  16.052  0.0294  0.1982 -0.3846
12757W        W33037   4.797   1.726   0.153  0.2381 -0.1919 -0.0594
12758W        W33038  17.758  17.467   1.726  0.1600  0.1811  0.1727
12759W        W33039   0.821  16.800   0.528 -0.1181 -0.0920 -0.2114
12760W        W33040  13.421  16.018  14.167  0.1104  0.1128 -0.0492
12761W        W33041  16.184  17.223   0.312  0.3907  0.4997 -0.1975
12762W        W33042   3.442   7.316  14.893  0.0402 -0.3338 -0.4110
12763W        W33043  16.408   6.659  13.743 -0.0205 -0.0311  0.0234
12764W        W33044   4.149   6.585  12.365 -0.4674 -0.0532  0.0689
12765W        W33045   4.395   6.793   1.636 -0.1169  0.0136  0.0349
12766W        W33046   8.306   8.259   3.985  0.1707  0.0680  0.0950
12767W        W33047  17.179   8.439   4.899 -0.0990  0.4107  0.1274
12768W        W33048  11.745   2.788  12.287 -0.0650 -0.0876 -0.2333
12769W        W33049   4.289   3.138  15.329 -0.0734 -0.1083  0.0973
12770W        W33050  10.681   0.760  15.584  0.2769 -0.0968 -0.1729
12771W        W33051   1.002  15.677   2.113  0.2841 -0.3277 -0.0418
12772W        W33052  14.675  10.048  16.131  0.0881  0.1714 -0.0647
12773W        W33053  12.616  14.794  12.979  0.0490 -0.0498 -0.2402
12774W        W33054  12.639  14.309   0.570  0.1052  0.0313 -0.0260
12775W        W33055   4.868  17.564   4.352 -0.3740  0.0108 -0.0902
12776W        W33056  10.487  11.567   4.104 -0.1830 -0.0299  0.2329
12777W        W33057  16.362   7.915  12.115  0.0267  0.1520 -0.0379
12778W        W33058   0.373  15.685   4.166 -0.0495  0.1821 -0.0496
12779W        W33059   9.562   3.580  12.762  0.0419 -0.1192  0.1853
12780W        W33060  11.715  15.558  12.359 -0.3810 -0.1927 -0.1935
12781W        W33061   7.839   5.781   2.919  0.1231  0.0442  0.0275
12782W        W33062  17.569  11.221   1.430  0.2311  0.3528  0.1399
12783W        W33063   4.672   2.306   1.310 -0.0347  0.1733  0.0453
12784W        W33064   3.026  13.564   4.071 -0.1339 -0.0686 -0.0914
12785W        W33065  12.133  13.836  15.017  0.1863  0.3765 -0.0370
12786W        W33066  11.932   3.718   0.036 -0.0991  0.0229 -0.1843
12787W        W33067   7.141  10.138  16.371 -0.3282 -0.0131 -0.0817
12788W        W33068  10.838   4.097   3.338  0.3963  0.2394  0.0885
12789W        W33069  15.874  17.799   1.663 -0.2060  0.1181 -0.1066
12790W        W33070  15.149   9.574   0.140 -0.0972 -0.1750 -0.1516
12791W        W33071   3.345  14.615   2.650  0.2453  0.1394 -0.1643
12792W        W33072  11.036  17.527  16.652 -0.0999 -0.5127 -0.0400
12793W        W33073  17.975   0.234  14.988  0.1826  0.2920 -0.0367
12794W        W33074   5.891   7.863   3.673  0.0003 -0.1238  0.4277
12795W        W33075  10.922   7.470   1.972 -0.1457  0.2377 -0.3598
12796W        W33076  12.056   4.533   2.152  0.3935  0.1361 -0.3032
12797W        W33077  10.535   3.767  13.925 -0.2787 -0.4078  0.0810
12798W        W33078  12.921   6.442  13.699  0.2917 -0.0692 -0.1125
12799W        W33079   3.594   0.739  14.998 -0.1204 -0.2410  0.0941
12800W        W33080  10.651   9.065  16.487 -0.0734  0.1009  0.0230
12801W        W33081   7.153  12.029   1.843  0.1013  0.0767 -0.1966
12802W        W33082  14.031   9.645  14.067  0.0362  0.0305 -0.0376
12803W        W33083   8.523   9.066  13.683  0.0397  0.1467  0.1040
12804W        W33084   3.033   5.424   1.375 -0.0863  0.2717  0.2667
12805W        W33085   7.744   4.109  15.333  0.1214 -0.0012 -0.0597
12806W        W33086   1.499   7.754  15.047  0.2538 -0.3181  0.0791
12807W        W33087  13.179   6.571  14.225  0.1463 -0.0763  0.0204
12808W        W33088  11.002   0.639   0.334  0.0296 -0.3278  0.0289
12809W        W33089  14.531   7.744  15.287  0.2071  0.1589 -0.0343
12810W        W33090   9.451  16.341  15.482  0.1180  0.0842  0.1946
12811W        W33091  17.644   9.752   4.171 -0.1286 -0.1158  0.0934
12812W        W33092   8.751   6.168   0.966  0.2597 -0.1102  0.0892
12813W        W33093   7.463   0.790   3.753  0.0603  0.0512 -0.0258
12814W        W33094   0.617  15.119  12.703  0.1918 -0.0148  0.2899
12815W        W33095   8.079   5.133  11.791  0.0770  0.2984  0.1453
12816W        W33096   4.733   0.472  13.796 -0.2466  0.0904 -0.0037
12817W        W33097   9.675   5.535  12.824 -0.0502  0.2022  0.1035
12818W        W33098   1.101   2.580   2.461 -0.0270 -0.2628 -0.1238
12819W        W33099   9.839   1.415   1.871 -0.1063  0.0810  0.0399
12820W        W33100  12.175  15.466   1.618  0.1048 -0.2327 -0.0874
12821W        W33101   6.988  17.177  16.680 -0.2217 -0.0585  0.1019
12822W        W33102  10.384   9.823  15.919  0.0676  0.1426  0.1983
12823W        W33103   4.831   1.151  16.111  0.0964 -0.1403 -0.2420
12824W        W33104   9.018  12.242  14.462 -0.0935  0.1487  0.0559
12825W        W33105  12.144  10.090  12.813 -0.1620 -0.2154 -0.0279
12826W        W33106   1.201  10.013   2.087 -0.2319 -0.0085  0.3470
12827W        W33107  13.005   2.039  15.158  0.0082 -0.0578 -0.1651
12828W        W33108  16.501  12.589  14.308 -0.1178 -0.3304 -0.0211
12829W        W33109  11.300  13.612  12.904 -0.0390 -0.0029  0.1477
12830W        W33110  11.596   0.338  15.721 -0.1914  0.0788 -0.0734
12831W        W33111   9.795   5.467   1.673 -0.1173 -0.0231 -0.1602
12832W        W33112   6.683   8.388  16.517 -0.2314  0.0277  0.0075
12833W        W33113  12.295   0.756   0.041 -0.2216 -0.0370  0.0689
12834W        W33114  11.862  16.007  11.998 -0.1810  0.0996  0.2537
12835W        W33115   7.338  12.316   2.817 -0.1377  0.0835 -0.0890
12836W        W33116   7.380   1.141  16.650 -0.0160 -0.0673  0.0977
12837W        W33117   0.869   5.119  14.369 -0.4935 -0.1962 -0.1489
12838W        W33118  13.551   2.271   3.640 -0.0595  0.0590 -0.0462
12839W        W33119   0.861  11.165   0.934 -0.1620 -0.0051 -0.3506
12840W        W33120   8.971   8.383  15.867  0.1922 -0.0875 -0.0657
12841W        W33121  11.462  11.818  12.098 -0.1258  0.4525  0.1289
12842W        W33122   4.413   8.138  15.682 -0.3499 -0.1372 -0.1743
12843W        W33123  12.009   8.543  13.239  0.0081  0.1374 -0.3081
12844W        W33124   3.006  17.169   0.406 -0.2120  0.0391  0.1955
12845W        W33125   4.549   3.072   3.460 -0.0385  0.3375  0.3429
12846W        W33126  17.327   4.280   2.683  0.2485 -0.0167  0.0499
12847W        W33127  15.949   9.954   1.201 -0.0909 -0.0197 -0.2079
12848W        W33128   3.335  17.494  14.496  0.0082 -0.0273 -0.2300
12849W        W33129   1.918   4.916   0.321  0.1745  0.3212  0.0309
12850W        W33130   9.287  12.460   3.445 -0.2090  0.1925 -0.1542
12851W        W33131   3.018  16.914   0.983 -0.0201  0.1909  0.1339
12852W        W33132   1.748   9.669  15.422  0.0680  0.0861  0.1990
12853W        W33133   2.613   6.157   1.372 -0.0381  0.1233 -0.1018
12854W        W33134  16.864  11.154  16.354 -0.0285 -0.0060 -0.1976
12855W        W33135  14.808   2.181   0.693 -0.1222 -0.0009 -0.0982
12856W        W33136   8.934  14.325   4.005  0.0932 -0.2960 -0.0955
12857W        W33137   7.915   3.391   0.637 -0.2251 -0.2784  0.1540
12858W        W33138  14.605  10.796   2.355  0.2259  0.1524  0.0008
12859W        W33139   6.678   6.032   2.015 -0.2827  0.0494  0.2157
12860W        W33140   0.724  12.429   0.342  0.3394 -0.0472  0.0224
12861W        W33141   9.148   2.133   1.419  0.1390 -0.4631  0.1011
12862W        W33142   9.702   0.369   2.862 -0.0730 -0.0674  0.0133
12863W        W33143   7.893  13.804  15.449 -0.0071 -0.2627  0.0689
12864W        W33144  11.188  13.912  15.410 -0.2608 -0.1379 -0.1549
12865W        W33145   6.626  10.958   1.004  0.2574  0.3759 -0.3321
12866W        W33146   3.411   6.365   4.166  0.4232 -0.1642  0.4714
12867W        W33147  16.918   3.351  12.332  0.1168 -0.0165  0.2083
12868W        W33148  10.108  10.616   2.367 -0.1129  0.0781 -0.1922
12869W        W33149   2.857   7.482   2.365  0.2906 -0.1282 -0.1219
12870W        W33150   2.913  16.657  13.942 -0.1060 -0.0601  0.0333
12871W        W33151  11.365   1.776   2.490 -0.0219  0.0454 -0.1173
12872W        W33152   1.062  13.146   3.055  0.1784 -0.2104  0.0184
12873W        W33153   8.762   2.776   2.745  0.1774  0.2914 -0.0846
12874W        W33154  13.801   1.505   4.063 -0.1340  0.1317 -0.0679
12875W        W33155  17.211   1.845  12.724 -0.2237 -0.0108 -0.0510
12876W        W33156  17.964  15.476   4.961 -0.1751 -0.2479 -0.1684
12877W        W33157  15.236  11.046  13.476 -0.0961  0.2319  0.1374
12878W        W33158   7.425  13.664   1.396  0.0518  0.2628  0.2850
12879W        W33159   5.608   6.663   3.820 -0.1684 -0.1371  0.1024
12880W        W33160  15.840   8.287   0.622 -0.0441 -0.1005  0.1189
12881W        W33161  10.576  13.450   3.851 -0.3626 -0.0164 -0.1952
12882W        W33162   3.101  11.837   0.788 -0.0385 -0.1667  0.0526
12883W        W33163   3.076   9.329  13.841  0.1840  0.3798 -0.0619
12884W        W33164   2.873  17.556   0.674  0.0523 -0.2504  0.2339
12885W        W33165   4.028  17.612  16.601 -0.1142  0.0189  0.1255
12886W        W33166   6.228   6.922  15.775  0.3645 -0.2977 -0.0050
12887W        W33167   6.577   4.714   3.166  0.0187  0.1890  0.1602
12888W        W33168   7.166   2.843  14.126  0.0623  0.0251  0.0649
12889W        W33169   2.597  17.280  12.948  0.2399 -0.2291 -0.0836
12890W        W33170   1.979  14.076  14.014  0.1246 -0.1186  0.2369
12891W        W33171   9.122   5.937   0.643  0.3164  0.0803  0.2981
12892W        W33172   4.326  17.884   2.907  0.3216  0.0438  0.0126
12893W        W33173   0.106   3.968  15.862 -0.0083 -0.1191  0.4692
12894W        W33174  10.586   6.430   1.733 -0.1890  0.2072  0.0335
12895W        W33175   5.996   5.791   0.017  0.0922  0.1681  0.2260
12896W        W33176  16.115  12.880  14.934 -0.1557  0.0659  0.1826
12897W        W33177  10.716   2.316  15.610 -0.1275  0.1745  0.0952
12898W        W33178  17.712   9.796   3.142  0.0913 -0.1794  0.1893
12899W        W33179   6.001   3.612  13.675  0.0905  0.1136  0.0891
12900W        W33180   7.235  16.642   1.806 -0.2201  0.1488 -0.1379
12901W        W33181  16.472  15.830   4.439 -0.2933 -0.3189  0.1750
12902W        W33182   7.947   9.544   1.506 -0.2072 -0.0969 -0.0442
12903W        W33183   9.853   1.781  16.600 -0.2326  0.0530  0.0861
12904W        W33184   5.012   0.809  12.240 -0.1386 -0.0837 -0.1770
12905W        W33185   7.430  13.138   4.623 -0.1605 -0.2309 -0.3651
12906W        W33186  14.885  12.803   3.128 -0.4173  0.1771 -0.0171
12907W        W33187  17.007  12.429  16.587 -0.1332 -0.3826 -0.2402
12908W        W33188   3.851   1.106  14.729 -0.1152  0.2784 -0.1027
12909W        W33189   9.698  12.681   0.494 -0.1513  0.1274 -0.0249
12910W        W33190  13.718  16.735  16.597 -0.1626 -0.0010 -0.2710
12911W        W33191   4.974  17.099  15.184  0.0789  0.0443 -0.1717
12912W        W33192   7.134   0.763  15.797 -0.0820 -0.1446 -0.1635
12913W        W33193   8.688   6.509  12.827  0.0500 -0.2072 -0.2901
12914W        W33194   7.964   9.643  13.219  0.1904 -0.1408  0.1426
12915W        W33195  16.790  11.151  13.632 -0.2712 -0.2852 -0.1330
12916W        W33196   5.039  15.715  14.924 -0.1359 -0.0122 -0.2599
12917W        W33197  14.390  11.193  13.463 -0.0156  0.1720 -0.0631
12918W        W33198   7.668  14.244   1.354  0.2815  0.1007  0.0565
12919W        W33199   7.776  13.057  12.713 -0.2595  0.0903 -0.0576
12920W        W33200   6.646   1.978  15.096  0.2540  0.2001  0.0169
12921W        W33201  11.339   6.072   2.171 -0.0977  0.0216  0.0738
12922W        W33202  17.418  11.903   0.122 -0.0758  0.1399 -0.0157
12923W        W33203   4.647   3.206  13.502  0.3428  0.1114 -0.3003
12924W        W33204   3.804  12.737   4.868 -0.0502 -0.0234 -0.1261
12925W        W33205   4.920   4.859   0.204 -0.0417 -0.0607  0.0540
12926W        W33206  16.728  16.249  16.557 -0.1370  0.0576  0.2681
12927W        W33207   3.026  10.011   5.155 -0.2236 -0.1332 -0.0372
12928W        W33208   0.326   0.905  16.406  0.2393 -0.1793  0.1431
12929W        W33209  12.048   2.561   3.051 -0.0934 -0.1788 -0.2151
12930W        W33210   0.642  16.090   4.695 -0.1422  0.2126 -0.1259
12931W        W33211   3.974  13.644  13.737  0.0655 -0.3803  0.0251
12932W        W33212   8.926  14.919  15.771 -0.1040  0.0051  0.0681
12933W        W33213  16.473   9.911  14.090  0.2641 -0.0338  0.2148
12934W        W33214  14.051   5.037   1.192 -0.2976  0.0455  0.0751
12935W        W33215   2.653   7.269   1.950 -0.2555  0.0030  0.2228
12936W        W33216   7.098   1.881  12.108  0.0818  0.0272  0.2057
12937W        W33217   3.242  16.004  15.898 -0.0654  0.0242  0.1771
12938W        W33218  10.998  10.565   2.034  0.0428  0.2583 -0.0320
12939W        W33219   3.772   4.578  12.522  0.1724  0.0278 -0.2543
12940W        W33220   0.728  16.304  15.659 -0.0041 -0.1352 -0.2306
12941W        W33221   5.109  15.327   3.731 -0.0457 -0.1504  0.0647
12942W        W33222   7.712   1.913  12.463 -0.1074  0.0420 -0.0913
12943W        W33223  14.076   7.100  12.758 -0.0942  0.1501 -0.2047
12944W        W33224   2.882  14.634  12.244  0.2878  0.3397  0.0302
12945W        W33225  13.330  14.133  11.867  0.1200 -0.2504  0.2512
12946W        W33226   5.269  17.343   2.846  0.0141 -0.1232 -0.0299
12947W        W33227  10.516  17.549   0.651  0.1484 -0.1354  0.1449
12948W        W33228   2.499   2.655   1.742  0.1885 -0.1180 -0.1080
12949W        W33229   9.230  14.988  13.243 -0.0383 -0.1310 -0.0679
12950W        W33230   3.199  10.951  13.025 -0.1375  0.2944  0.1038
12951W        W33231   2.105  15.970  13.091  0.2919 -0.0555  0.0150
12952W        W33232   4.159   5.543   0.485 -0.4063  0.0313  0.2581
12953W        W33233   2.693  10.112  15.046  0.1676  0.1615  0.2169
12954W        W33234  10.861  17.213  13.637 -0.1204 -0.3754  0.2634
12955W        W33235   3.678  13.743  13.294 -0.2831  0.2834  0.1788
12956W        W33236   7.050   0.205  15.384  0.0637  0.2218 -0.1210
12957W        W33237  12.743   1.699  12.426  0.2474  0.0964  0.1764
12958W        W33238   7.663  13.969  15.086  0.0995  0.1718  0.3769
12959W        W33239   4.167  14.701   0.313 -0.1775  0.0341  0.0564
12960W        W33240  16.771   2.759   3.601  0.1747  0.0831  0.1063
12961W        W33241   5.865  13.017  12.829 -0.3112 -0.0126  0.1891
12962W        W33242  12.783  10.055   2.439  0.0544 -0.3074 -0.1525
12963W        W33243   9.741  12.882   4.077  0.4127  0.0508  0.0503
12964W        W33244   8.817   1.605  16.611 -0.1087  0.1838  0.2613
12965W        W33245  11.856  13.218   4.693  0.1390  0.0967  0.0386
12966W        W33246  15.913  12.225  13.228  0.2191 -0.2139  0.1899
12967W        W33247  14.973  11.686  12.428  0.1704  0.2597 -0.2369
12968W        W33248  11.546  11.824  13.097 -0.0216  0.1093  0.0387
12969W        W33249   2.430   0.359   4.014 -0.1624 -0.0088 -0.3220
12970W        W33250   4.095   5.884   0.843 -0.1631 -0.1903  0.1263
12971W        W33251   2.465   2.535  15.689 -0.0404 -0.2373 -0.1344
12972W        W33252   6.965  17.026   3.065  0.0194 -0.0179 -0.1905
12973W        W33253  15.853   5.957  13.192 -0.3136 -0.1583 -0.1199
12974W        W33254   8.597   9.103   4.536  0.1641 -0.0519 -0.0902
12975W        W33255   4.369  12.370   0.473  0.4591  0.0439  0.1021
12976W        W33256  16.527  15.091   3.890  0.0957  0.0723  0.1766
12977W        W33257   1.659  15.615   4.794  0.0798 -0.0481  0.1394
12978W        W33258  14.157   3.782   1.778 -0.2576  0.0239 -0.1020
12979W        W33259   1.416   9.301   0.411  0.1303 -0.1560 -0.0969
12980W        W33260  16.284   4.429   0.573  0.3306 -0.0023  0.4257
12981W        W33261  11.259   6.822  15.771 -0.3230 -0.3250  0.0172
12982W        W33262  17.487   1.376  16.100 -0.1835  0.0854 -0.0326
12983W        W33263   8.179   6.711   0.944  0.1649  0.3634 -0.1174
12984W        W33264   3.383  16.549   4.592 -0.0550 -0.2229 -0.1713
12985W        W33265  14.320  15.343   4.411 -0.1133  0.0274 -0.1421
12986W        W33266   4.587  11.057   1.866 -0.2571 -0.2390  0.1015
12987W        W33267   1.469   6.876   1.221 -0.2035  0.0435 -0.0949
12988W        W33268  13.312   5.125  13.822 -0.0712  0.0920  0.3493
12989W        W33269   8.520  17.234  14.937 -0.0205  0.2385  0.1630
12990W        W33270   3.672   3.473  16.567  0.3101  0.0102  0.1528
12991W        W33271  15.555   8.230   1.959 -0.0008  0.0025 -0.2033
12992W        W33272   5.632   0.135  14.656 -0.0134  0.1514  0.1411
12993W        W33273   6.560   6.405  13.678 -0.1010  0.2450  0.0742
12994W        W33274  10.005   2.758  13.614  0.1859 -0.3401  0.1149
12995W        W33275   8.365   6.339   0.548 -0.1604  0.0051 -0.0108
12996W        W33276  16.710   3.878   2.581  0.2306  0.0230 -0.1606
12997W        W33277  10.953   6.100   1.611 -0.3847 -0.0622 -0.2389
12998W        W33278  10.552   4.515   4.199 -0.3247  0.2025  0.0579
12999W        W33279   1.559   9.591   4.426  0.0876  0.0648  0.0019
13000W        W33280   5.498  14.119   3.302  0.0250  0.0009  0.2193
13001W        W33281   2.228  15.880  14.103  0.1257 -0.0682  0.1081
13002W        W33282   4.440  11.920   3.308  0.0516  0.4357  0.0355
13003W        W33283  10.809   6.670   4.511 -0.0659 -0.3005  0.0649
13004W        W33284   5.447   7.982   2.320  0.2567 -0.3514 -0.1593
13005W        W33285   6.918  10.456  16.670 -0.0418  0.0090  0.0022
13006W        W33286  12.457   4.826  11.259  0.2689 -0.0176 -0.1322
13007W        W33287   0.565   9.127   2.093  0.1733  0.1426 -0.0242
13008W        W33288  10.240  13.564   2.979 -0.2905  0.1074  0.1579
13009W        W33289   7.176   5.833   2.894 -0.1478  0.1537  0.0922
13010W        W33290  13.110   6.887   4.186 -0.1658  0.2900  0.0533
13011W        W33291  16.286  14.887  13.479  0.1734  0.0996 -0.2039
13012W        W33292   1.121  15.418  16.269 -0.1013  0.2241  0.3085
13013W        W33293   3.991   5.009   1.879 -0.2504 -0.2231 -0.2035
13014W        W33294   4.615   7.349   0.729  0.2530 -0.0889 -0.1766
13015W        W33295  12.056   8.395   0.311  0.0412 -0.1142 -0.3220
13016W        W33296   8.931   3.968  14.626 -0.0092  0.2751  0.4114
13017W        W33297   7.774  11.880  14.884 -0.0599  0.0912  0.2527
13018W        W33298  12.404  17.178   3.310 -0.2492 -0.2874  0.1979
13019W        W33299  14.162  11.317  16.383  0.0594  0.1046 -0.3844
13020W        W33300   1.832  15.590  14.376  0.3096 -0.0985 -0.1244
13021W        W33301  12.304   2.640  12.380 -0.1046 -0.0488  0.3706
13022W        W33302  13.359  13.914   2.235  0.3252 -0.0978 -0.3048
13023W        W33303   4.666   2.826  15.919 -0.1753  0.0145  0.0166
13024W        W33304   4.739  15.494  13.954  0.1578 -0.1850 -0.2480
13025W        W33305   9.980   4.437  16.228  0.1780  0.3330 -0.0058
13026W        W33306   5.108   6.076   1.679  0.0193  0.1788 -0.3189
13027W        W33307   2.384  15.238   1.731 -0.4381  0.0104  0.0411
13028W        W33308  13.037   7.375   4.541  0.0188  0.1055 -0.1897
13029W        W33309   4.946   6.371  14.602  0.0095 -0.1254  0.1806
13030W        W33310   6.443  12.904  16.345 -0.0264  0.2394  0.1451
13031W        W33311   0.007  14.674   1.946  0.0789  0.3513  0.0842
13032W        W33312  16.611   9.305  13.408  0.0281 -0.0333 -0.0337
13033W        W33313   3.085   8.075  15.176 -0.2276  0.1221 -0.3938
13034W        W33314  11.049   2.071  15.114 -0.1080 -0.1334  0.2375
13035W        W33315   6.830   8.695   4.102  0.0236  0.3886  0.0723
13036W        W33316   7.589  17.604   1.486  0.0478  0.1950 -0.1564
13037W        W33317   0.602   2.283   2.755 -0.0419  0.1779 -0.0024
13038W        W33318   9.632  16.079   4.125  0.2017  0.0929 -0.2043
13039W        W33319   3.931   3.487  13.898 -0.2730  0.1824 -0.0419
13040W        W33320   5.874  11.515  12.633 -0.1485  0.1510  0.0628
13041W        W33321  14.135  12.804  12.984 -0.1554 -0.0321  0.0550
13042W        W33322  16.898   5.976  15.705 -0.1983  0.1610  0.2750
13043W        W33323  14.499   5.276   1.011 -0.0017 -0.2076 -0.1365
13044W        W33324  10.363  16.503   2.090 -0.1981  0.0330  0.1960
13045W        W33325  11.836   3.865   3.998  0.0815  0.0016 -0.1829
13046W        W33326   4.900   6.884   1.627 -0.1564  0.1725 -0.0702
13047W        W33327   4.216   3.387   3.767 -0.2716 -0.0695  0.1668
13048W        W33328   2.652   2.269   5.052  0.1380  0.2189 -0.0230
13049W        W33329  11.670  12.242  15.971  0.1486 -0.0477  0.0587
13050W        W33330   8.914   7.383   3.825  0.0544 -0.1161 -0.0337
13051W        W33331  12.336   2.757  12.850  0.3070 -0.1397  0.1871
13052W        W33332  12.524  17.095  12.005 -0.1773  0.3242  0.1879
13053W        W33333   1.824  13.885   1.600  0.3576  0.0067  0.2315
13054W        W33334  10.286  10.131   0.641  0.1291 -0.3193  0.3491
13055W        W33335   2.803   3.342   3.416  0.0806  0.0549 -0.1083
13056W        W33336   6.521   7.429  12.893 -0.4677 -0.1148 -0.2924
13057W        W33337  17.020   0.256   0.277 -0.2451 -0.2338 -0.1171
13058W        W33338   9.720  11.197   2.903 -0.1834 -0.1766  0.1450
13059W        W33339   0.939   7.578   3.144  0.4375  0.1300 -0.0485
13060W        W33340  15.395   8.518  16.469  0.1016  0.0793  0.0251
13061W        W33341   2.296   7.708   3.206  0.0864  0.0917  0.1410
13062W        W33342   9.497   9.055  13.740  0.3083 -0.0492  0.0405
13063W        W33343  10.857   6.522  13.130  0.0288 -0.0055  0.0037
13064W        W33344   6.629  11.474   4.958 -0.2700  0.1433  0.3717
13065W        W33345  17.420   5.936  15.749  0.0618 -0.3332  0.0256
13066W        W33346   0.997  12.530  15.598  0.3317 -0.2970 -0.3425
13067W        W33347   2.794   8.570  13.421 -0.1641 -0.1032 -0.0091
13068W        W33348  17.314   9.624  16.424  0.0203  0.1814 -0.1771
13069W        W33349   8.975   9.161  16.405  0.3474 -0.2026  0.0568
13070W        W33350  12.119  12.107   4.110 -0.4324  0.0419 -0.1672
13071W        W33351  16.076  15.353   1.078 -0.0662 -0.0527 -0.0406
13072W        W33352  14.095   3.151  14.320  0.1751  0.0243  0.0684
13073W        W33353   1.166  11.025  16.654 -0.0018  0.1484 -0.1761
13074W        W33354  15.801   9.331   1.890  0.2754  0.1499  0.1240
13075W        W33355   8.886   4.941   2.710 -0.2972  0.4437  0.2222
13076W        W33356   6.489  17.828  14.721  0.0401  0.2392  0.0318
13077W        W33357  11.083   0.229   1.899 -0.3276  0.4185  0.0275
13078W        W33358  16.251   0.173  12.931 -0.2123 -0.1362  0.0085
13079W        W33359  10.419  17.977   4.294 -0.0788 -0.0906  0.0120
13080W        W33360  15.565   0.661   2.116  0.0218  0.1730  0.0557
13081W        W33361   0.201  10.196   3.896  0.1667  0.0334  0.1870
13082W        W33362   7.935   1.800   0.472 -0.0676  0.0570  0.2549
13083W        W33363   7.212   5.592   3.776 -0.0862  0.1903 -0.0246
13084W        W33364   7.627   9.739  12.822  0.2928  0.3858  0.0852
13085W        W33365  16.057   6.437  13.216  0.0787  0.5038 -0.0385
13086W        W33366  10.559  12.305   3.640 -0.0734 -0.4128 -0.0102
13087W        W33367   0.883   8.846   1.167 -0.1495  0.0549 -0.1147
13088W        W33368   1.509  11.685  12.781  0.1250 -0.0841  0.0003
13089W        W33369   1.566  15.925  12.826  0.1982  0.0862 -0.2902
13090W        W33370  13.671   5.046   3.644  0.1361  0.3325 -0.1445
13091W        W33371  11.150   7.915   3.153 -0.1397 -0.0023  0.1697
13092W        W33372  16.642  16.576  13.972 -0.0180  0.2925 -0.2533
13093W        W33373  10.070  16.604   1.693  0.1291  0.0645 -0.1475
13094W        W33374   2.956   6.791   2.003 -0.0514 -0.2155  0.4043
13095W        W33375  15.149  11.204  15.178 -0.2219 -0.1547 -0.2346
13096W        W33376   5.856   0.869  15.305 -0.2380 -0.2682 -0.0804
13097W        W33377  11.283  14.617  16.697 -0.0877  0.2924 -0.3137
13098W        W33378   6.258   2.636   3.164  0.0260  0.1653 -0.0464
13099W        W33379   0.728  11.382  13.660  0.0072 -0.0276 -0.0903
13100W        W33380   8.911   9.835   2.355 -0.2561 -0.0880 -0.1898
13101W        W33381   6.110   4.983  15.139  0.0358  0.2630 -0.2454
13102W        W33382   5.221   8.011  12.202  0.0072 -0.0868 -0.1855
13103W        W33383  10.371   6.874   3.171  0.0000  0.0455  0.1827
13104W        W33384   4.800   3.268   2.826 -0.2003  0.0416  0.0185
13105W        W33385   7.209   5.312   0.758  0.2648  0.2295 -0.0598
13106W        W33386   1.061   2.201  15.602 -0.1515  0.1011  0.0238
13107W        W33387   1.220   4.521   3.616 -0.0841  0.1749  0.0651
13108W        W33388   8.247  10.711  12.398  0.0666 -0.0488 -0.1611
13109W        W33389  14.716   7.472   0.457  0.4070  0.0792 -0.0427
13110W        W33390   2.777   7.160   3.359  0.0553  0.1901 -0.1611
13111W        W33391   6.723  12.798   3.504 -0.0797 -0.1016 -0.1085
13112W        W33392   5.609  16.822   0.408  0.0965 -0.2532 -0.2331
13113W        W33393   6.241  10.054   4.343 -0.1312  0.0292  0.1766
13114W        W33394   9.321  15.773   3.853  0.4676 -0.1511  0.0629
13115W        W33395  12.348  12.836  12.509 -0.0585 -0.2491  0.1064
13116W        W33396   2.016   9.368   4.542  0.2986 -0.0344 -0.0064
13117W        W33397   1.004   9.030  15.685 -0.0136  0.1014 -0.0933
13118W        W33398  15.860   9.787  14.344 -0.2379 -0.1870  0.0416
13119W        W33399   8.912   8.473   1.206  0.2264  0.1918  0.1744
13120W        W33400  15.786   9.259  16.092 -0.0281  0.0417 -0.1708
13121W        W33401   7.312  17.183  14.640  0.0264  0.2403  0.3675
13122W        W33402   9.375  16.891  16.240 -0.0141  0.1969  0.5050
13123W        W33403  16.617  11.649  16.319  0.0872  0.1155 -0.2493
13124W        W33404   0.200   6.729  12.850  0.2210  0.0184 -0.2819
13125W        W33405   2.398   9.906   2.586  0.1264  0.0896 -0.1637
13126W        W33406   2.055   6.401   1.251  0.0167 -0.0842  0.1804
13127W        W33407  10.099  14.856  13.045 -0.2633 -0.0974 -0.2204
13128W        W33408   8.233   7.184   0.096 -0.1358  0.4882 -0.2527
13129W        W33409   6.539  10.811  13.289 -0.1223  0.1969 -0.1909
13130W        W33410   5.412  14.329   0.005 -0.1957  0.1439 -0.1321
13131W        W33411  10.024   4.798  12.604  0.0025  0.3740 -0.1385
13132W        W33412  10.926   4.339   0.689 -0.0812  0.2792 -0.0065
13133W        W33413   2.701  16.759  14.384  0.0907  0.1120  0.2638
13134W        W33414   8.793  11.461   2.868  0.1297  0.0445  0.2327
13135W        W33415   8.549  15.324   1.266 -0.1979 -0.4216  0.0297
13136W        W33416   0.319  12.043   4.961 -0.0687 -0.2288 -0.0790
13137W        W33417  12.398   3.321   2.668 -0.0858 -0.0744 -0.4742
13138W        W33418   7.789  16.504  13.340 -0.1045  0.0949 -0.1395
13139W        W33419  15.403  16.663   0.631 -0.0320  0.0183  0.1322
13140W        W33420   9.890  15.282  14.403  0.3129  0.0907  0.0043
13141W        W33421  14.773  12.229  14.562 -0.1025 -0.0120 -0.2002
13142W        W33422  13.297   1.468   0.694  0.2847  0.1359 -0.0751
13143W        W33423   8.719  11.794   3.710  0.2740  0.0338  0.0673
13144W        W33424   3.433  17.330  13.097 -0.4155  0.1749 -0.1449
13145W        W33425  15.033  13.767   1.496 -0.0415  0.0210 -0.2447
13146W        W33426  11.641   8.212   3.265  0.2466 -0.1092 -0.0154
13147W        W33427   4.643   1.563   1.121  0.3144  0.1537 -0.0231
13148W        W33428   1.693  15.589  14.881  0.0606 -0.1661  0.0950
13149W        W33429  13.410  13.180  12.226 -0.0305  0.1330  0.0523
13150W        W33430  13.276   0.590  16.282 -0.1903 -0.1944  0.4246
13151W        W33431   6.279   0.802   0.034  0.0862  0.0032 -0.2187
13152W        W33432  10.851  17.099  16.628  0.0124 -0.1889  0.0806
13153W        W33433  10.426   9.949  13.762 -0.0070  0.0953  0.0412
13154W        W33434  14.080  10.708   4.528 -0.2412  0.0635 -0.1638
13155W        W33435  17.848  12.244   0.344 -0.1507  0.1178 -0.2517
13156W        W33436   7.796   1.888   1.594  0.2052  0.3775 -0.1778
13157W        W33437   3.045  17.218  16.224  0.3923 -0.1080 -0.2658
13158W        W33438  14.556  16.522  12.748  0.2487 -0.1437 -0.0396
13159W        W33439   6.360  16.870   2.515  0.0654 -0.0061 -0.1480
13160W        W33440   6.371   7.691  15.910  0.1467  0.1381 -0.1665
13161W        W33441  15.152   3.636   0.463  0.0416 -0.5112 -0.1022
13162W        W33442  12.047  10.324  13.847  0.1576  0.1055  0.0529
13163W        W33443  11.654  11.918  13.637 -0.2356 -0.2128 -0.1934
13164W        W33444  12.857   1.460   2.744 -0.1478  0.1081 -0.1803
13165W        W33445   8.109   3.994   3.299 -0.1620  0.0811 -0.1815
13166W        W33446  11.315   3.550   2.706 -0.1037 -0.0811 -0.0285
13167W        W33447   5.030  17.895  14.066 -0.0308  0.1938 -0.1125
13168W        W33448   0.433  11.604  14.071 -0.2566 -0.1728 -0.2215
13169W        W33449   9.748   9.298   1.528 -0.0173 -0.0638  0.2795
13170W        W33450  11.979   2.348   1.722 -0.0310  0.0113  0.0327
13171W        W33451   4.556  11.522   0.641  0.1429  0.0358  0.0458
13172W        W33452  11.455  17.435  11.977 -0.2402 -0.1925  0.0257
13173W        W33453  16.537   4.949   2.803 -0.0151  0.4035  0.0381
13174W        W33454   4.898   2.748  13.438 -0.0310 -0.2695  0.2136
13175W        W33455  17.156  14.068  14.959  0.0497 -0.0487 -0.0395
13176W        W33456   7.968  10.602  15.369 -0.0109 -0.1050  0.2753
13177W        W33457   6.039   9.259  16.570 -0.2397 -0.0963 -0.0265
13178W        W33458  16.949   4.432  14.822 -0.2461 -0.1226 -0.1869
13179W        W33459  17.460   4.177   3.205 -0.1638 -0.2136  0.1449
13180W        W33460   0.550   1.632   2.219 -0.2396 -0.1374 -0.1283
13181W        W33461   2.966   0.156  12.656 -0.1688 -0.1683  0.1861
13182W        W33462  17.389   3.694   0.202  0.2501  0.1397 -0.1622
13183W        W33463   5.026   0.841  13.916 -0.1186  0.0777  0.1518
13184W        W33464   0.819  15.505  15.264  0.5052 -0.0582  0.0723
13185W        W33465  10.001  13.439  13.105 -0.0349 -0.3355 -0.1880
13186W        W33466  16.041  14.539  14.505 -0.3533  0.0044 -0.0076
13187W        W33467  10.007  10.548   1.441  0.0497 -0.1311  0.0475
13188W        W33468  14.303  17.676  12.916  0.1782  0.1815  0.2271
13189W        W33469   7.574   1.125  15.615 -0.3169  0.1517  0.0369
13190W        W33470  17.765  12.075   0.779  0.4073  0.0834  0.3916
13191W        W33471  15.733  12.948   2.714 -0.1249  0.0595 -0.1819
13192W        W33472  13.295  10.060   4.446 -0.0965 -0.0774 -0.1022
13193W        W33473  10.781   6.420   3.770  0.1521 -0.2984 -0.0674
13194W        W33474   5.715  16.589   3.242 -0.1368 -0.1004  0.1121
13195W        W33475  14.901   0.576  12.253  0.1694  0.3457  0.1554
13196W        W33476   3.412   9.499   2.265  0.0619  0.0570  0.1909
13197W        W33477   3.403  15.534  14.965  0.0216  0.0742  0.3507
13198W        W33478  10.891  17.982   3.999 -0.1549 -0.2288  0.0703
13199W        W33479  12.221   4.703   0.130  0.3131  0.1681 -0.1487
13200W        W33480   6.244  15.959   0.715  0.1144  0.1314  0.1625
13201W        W33481  10.653  10.045   3.110  0.2332  0.0081  0.1297
13202W        W33482  14.577   7.291  13.022 -0.0042  0.1506  0.0001
13203W        W33483  17.064  13.520   0.662 -0.1886  0.2339  0.2110
13204W        W33484   8.122  16.194  13.074 -0.0684 -0.0406 -0.0486
13205W        W33485   7.245   5.046  15.097 -0.0212 -0.1334  0.0161
13206W        W33486  10.858   6.076  12.387  0.1778  0.0472 -0.1451
13207W        W33487   6.545  13.646  13.881 -0.0478 -0.0196 -0.2239
13208W        W33488   7.763  11.633  14.233 -0.2843  0.4335  0.0970
13209W        W33489   6.140  13.919  13.889  0.2015  0.2792 -0.1856
13210W        W33490   2.557   2.676  14.674  0.1278  0.0047 -0.1522
13211W        W33491   3.468   1.675  12.195  0.1408 -0.2150 -0.1268
13212W        W33492  12.275  17.360  16.254  0.0686  0.1487  0.0293
13213W        W33493   5.608   8.660  13.708 -0.2475  0.1606 -0.0817
13214W        W33494   9.738  12.093   2.778  0.0976  0.0388  0.0838
13215W        W33495   1.207   2.088  14.766 -0.0450  0.2677 -0.0738
13216W        W33496   9.932  14.354   3.578 -0.1955  0.1774 -0.1899
13217W        W33497   7.619   8.865  16.686 -0.0362  0.2600  0.0388
13218W        W33498   8.953  13.868  14.986 -0.0770  0.0354 -0.1408
13219W        W33499  16.766   5.421  12.384  0.1236  0.1147 -0.0690
13220W        W33500   9.063  14.265  15.874  0.1282 -0.1956  0.3665
13221W        W33501   4.656   7.393   3.027 -0.0076 -0.0825 -0.3179
13222W        W33502   1.482   0.428  15.790 -0.0358  0.0360 -0.3232
13223W        W33503  10.177  11.628   1.146  0.0757  0.1356  0.1495
13224W        W33504  11.133  14.408   1.309  0.1088 -0.2187  0.1122
13225W        W33505  15.894   4.198  14.096  0.0891  0.2654 -0.1547
13226W        W33506  13.258   8.221  14.784  0.2588 -0.0284  0.3209
13227W        W33507  16.222  17.823   2.607  0.3205  0.1521  0.1531
13228W        W33508  11.897   0.691   2.911  0.1258  0.0094  0.0734
13229W        W33509  17.325   3.889  16.475  0.1977  0.1414  0.0372
13230W        W33510  12.518   2.850   4.352 -0.1690  0.4956  0.0442
13231W        W33511  15.033   0.363  13.758 -0.2414  0.1289  0.2055
13232W        W33512  11.559   0.377  13.589  0.0524  0.1329  0.2061
13233W        W33513  12.283   1.295  13.417 -0.0377 -0.1398 -0.0898
13234W        W33514  13.703   3.755   1.354 -0.0803 -0.0968 -0.3634
13235W        W33515  13.190  14.508   0.351 -0.0010  0.2919 -0.3807
13236W        W33516   7.496  17.197  13.669 -0.0105  0.1022 -0.0309
13237W        W33517   4.631   7.478   1.283  0.3260 -0.2112  0.1599
13238W        W33518  12.392  11.108   3.980 -0.3709 -0.2898 -0.0216
13239W        W33519   5.948   1.352  15.369 -0.3211 -0.0163 -0.0603
13240W        W33520   0.049   8.211  15.121  0.3961 -0.0728  0.1323
13241W        W33521   1.166   4.630  13.051  0.2769 -0.0325 -0.2547
13242W        W33522   1.162   2.790   4.812 -0.1829 -0.0137 -0.2059
13243W        W33523   3.218  11.728  12.292 -0.0680 -0.2127 -0.2795
13244W        W33524  17.883  15.413   3.199  0.0348  0.3787  0.0126
13245W        W33525   7.622   8.045   3.418  0.1839 -0.1481 -0.0955
13246W        W33526   9.298   1.073   0.434 -0.4435  0.2904  0.0355
13247W        W33527  10.221   5.371   4.512  0.0872 -0.4452 -0.1199
13248W        W33528   3.808  14.314   2.010  0.1106 -0.5072 -0.0002
13249W        W33529  13.353  10.525   2.526 -0.3161 -0.1452  0.0023
13250W        W33530  17.614  13.344   2.448  0.2524 -0.1675  0.2470
13251W        W33531   5.561  17.157   4.539 -0.0645  0.0704 -0.2453
13252W        W33532   5.648   9.433   3.801 -0.0196  0.1437  0.3403
13253W        W33533  15.004   4.710   3.236  0.1129  0.0602 -0.1342
13254W        W33534  13.060  16.327  15.535 -0.3823  0.0532 -0.3231
13255W        W33535  12.922   6.501  15.243 -0.0502  0.2012  0.3212
13256W        W33536   8.012  11.745   0.621 -0.0465 -0.0762 -0.1950
13257W        W33537   4.839   1.419   1.541  0.0435 -0.0895 -0.1562
13258W        W33538  13.092   7.926  10.573 -0.1523 -0.0951 -0.0069
13259W        W33539  16.580  15.943   3.560 -0.0866  0.0401 -0.2085
13260W        W33540   4.613   1.923  16.321  0.0282 -0.0090  0.3265
13261W        W33541  12.763   3.875  15.154 -0.0654 -0.0546 -0.2433
13262W        W33542   3.000  11.845  16.258 -0.0188  0.2232  0.1873
13263W        W33543  16.940  17.286  16.649 -0.1414  0.3062 -0.0872
13264W        W33544   7.559  14.055  15.803  0.2847 -0.0092  0.0215
13265W        W33545   6.220  13.240  15.111 -0.2139 -0.0403  0.0622
13266W        W33546  17.875   5.874  13.093  0.1520  0.0457 -0.3093
13267W        W33547   2.364  17.859   3.385  0.1569  0.1510  0.1758
13268W        W33548  14.464  15.963  12.598  0.3347 -0.0024  0.3420
13269W        W33549  10.452  16.290   0.475 -0.2457  0.0263  0.0949
13270W        W33550   7.423  13.082   1.384 -0.1010  0.3111 -0.1448
13271W        W33551  14.695  17.330  12.079 -0.3115 -0.0267  0.0100
13272W        W33552  11.492   7.339   3.929  0.0824 -0.1112 -0.3530
13273W        W33553   3.324  14.502   5.089 -0.0943 -0.2787 -0.0790
13274W        W33554   9.067   5.763   2.230  0.1160  0.0658  0.0620
13275W        W33555   2.628   4.745  15.473 -0.1308  0.1500 -0.3854
13276W        W33556  11.345   7.133  15.394 -0.0485  0.1175  0.0953
13277W        W33557   5.344   2.025  15.038 -0.1029  0.1671  0.0185
13278W        W33558   1.683   1.190  13.318 -0.2963 -0.3337 -0.0412
13279W        W33559  16.441   6.686   2.337 -0.1984 -0.0097 -0.0961
13280W        W33560  12.259  10.709  12.039  0.2601  0.0262  0.2284
13281W        W33561   4.203  14.921  15.844 -0.1653 -0.0053 -0.0377
13282W        W33562  15.878   6.156  11.747  0.0415  0.1572  0.1217
13283W        W33563  12.135   3.904   0.804 -0.0753 -0.2389 -0.3423
13284W        W33564   6.511   2.985  13.547 -0.0776 -0.4280  0.2649
13285W        W33565  13.158   4.511   4.134 -0.1456  0.0744  0.1743
13286W        W33566   6.814   8.149  13.585 -0.3468  0.2340  0.2279
13287W        W33567  17.961   8.117  12.867  0.3225 -0.0027 -0.0757
13288W        W33568   1.990  14.532  14.656 -0.0179 -0.1425 -0.0586
13289W        W33569   4.834   5.103   2.636  0.2483  0.1786  0.1498
13290W        W33570  13.480  12.922   2.617  0.1547 -0.0149  0.0771
13291W        W33571  17.606   1.493   0.812  0.1672 -0.0794  0.0423
13292W        W33572   2.813   3.227   4.429  0.2472 -0.1535 -0.0709
13293W        W33573  11.857   8.965   3.044 -0.2030  0.4347  0.3444
13294W        W33574   8.634   5.027   2.274  0.0165  0.0324  0.1682
13295W        W33575  11.474  15.292   2.237  0.0622 -0.0233  0.1370
13296W        W33576  11.686   4.402  14.965  0.1933  0.2087 -0.2511
13297W        W33577  10.890   5.519  13.281 -0.0814  0.2042 -0.0026
13298W        W33578   6.506   8.178  15.820 -0.0375  0.2463  0.3446
13299W        W33579  16.175   8.115   4.207 -0.1423  0.0671  0.0470
13300W        W33580   2.819  10.197   2.633  0.0021  0.0480 -0.2673
13301W        W33581  17.274   1.549   4.010 -0.4241 -0.2928  0.1845
13302W        W33582   1.520  14.968   2.844 -0.0546 -0.0495 -0.0142
13303W        W33583   0.982   0.138  12.547 -0.2632  0.1021  0.2885
13304W        W33584   7.322   6.051  12.735 -0.0939 -0.1520 -0.1868
13305W        W33585   1.443   9.031   1.345  0.1304  0.1036 -0.0846
13306W        W33586  12.052   9.317  16.126  0.1608 -0.2361  0.0257
13307W        W33587  17.982   9.303  15.511  0.1379  0.1088  0.1338
13308W        W33588  17.542  16.759   2.732 -0.2139 -0.2506  0.1270
13309W        W33589  14.288   5.520   4.560 -0.2750  0.0168  0.2593
13310W        W33590   4.439  16.995   3.009 -0.0982 -0.0600 -0.0727
13311W        W33591  12.212  10.433   3.056 -0.0010 -0.0010  0.2493
13312W        W33592  15.609  14.456   1.153  0.0705  0.2083 -0.0785
13313W        W33593   2.349  10.490  12.829  0.3776  0.2958  0.0700
13314W        W33594  11.028   8.852  13.289  0.1005  0.0767 -0.1845
13315W        W33595  10.570  14.310   0.824 -0.1487  0.2224 -0.0911
13316W        W33596  16.706   6.870   3.235  0.1974 -0.1510 -0.2624
13317W        W33597  14.907  17.228  11.680 -0.1852 -0.1300  0.2413
13318W        W33598  12.886  16.192   5.609  0.3741 -0.0059  0.2060
13319W        W33599   2.861   5.618   0.167 -0.2145  0.0907 -0.0386
13320W        W33600  14.315  10.539   2.678  0.0548 -0.1968  0.1654
13321W        W33601   6.398   3.566  16.091  0.1158  0.1415  0.1963
13322W        W33602   0.834   8.256   4.662  0.0138  0.2387 -0.3638
13323W        W33603  11.865  15.785   3.290 -0.1054  0.1079 -0.0390
13324W        W33604  13.814   5.354  16.289 -0.0190  0.0309  0.0360
13325W        W33605   1.793   3.347   5.301  0.0842  0.1628 -0.3723
13326W        W33606   4.308  10.267  12.314 -0.1807  0.1185  0.0343
13327W        W33607  17.569  16.886   4.530  0.3064 -0.0776  0.3431
13328W        W33608  13.269   2.720  13.708 -0.2533 -0.0473 -0.1078
13329W        W33609  16.739   5.339  16.192 -0.1572  0.6922  0.0084
13330W        W33610   9.054  10.830   1.869 -0.1158  0.4436 -0.0198
13331W        W33611  15.871   6.393  15.995 -0.3100 -0.1879 -0.2564
13332W        W33612   5.503   1.131  15.023 -0.3287 -0.1502 -0.0656
13333W        W33613  10.160   2.573   3.319  0.3074 -0.0335 -0.2169
13334W        W33614   7.534   0.020   4.489  0.1495 -0.0260 -0.0797
13335W        W33615   9.962  11.254  15.103  0.1505 -0.0030 -0.2687
13336W        W33616   4.937   6.961   4.216  0.1329 -0.0641  0.0526
13337W        W33617   5.445   4.257   3.375 -0.2586  0.0117  0.1875
13338W        W33618  10.566   1.163  14.676 -0.0326 -0.2619 -0.1146
13339W        W33619   0.229  17.692   1.658  0.1381  0.1019 -0.4275
13340W        W33620   0.327  15.873  16.317  0.3346 -0.1579 -0.0378
13341W        W33621  17.744   2.168   1.031  0.0463  0.2124 -0.2090
13342W        W33622  16.982   6.072  14.140  0.2540 -0.0447 -0.1811
13343W        W33623  11.812   0.572  16.624 -0.0546 -0.1255  0.1362
13344W        W33624  13.807   8.452   2.938  0.1664 -0.1250  0.1010
13345W        W33625  15.097   3.550   2.500  0.0133  0.1742  0.0209
13346W        W33626  14.150  14.706  15.543 -0.0189 -0.1635  0.2587
13347W        W33627   6.719  14.727   0.480 -0.2830 -0.5441 -0.0559
13348W        W33628  11.554  17.296  15.729  0.1785 -0.0492  0.0437
13349W        W33629   9.328   5.019  11.455 -0.2522  0.1549 -0.3123
13350W        W33630  16.640  13.083   2.597 -0.0287  0.4493  0.3889
13351W        W33631   3.077  15.855  12.848  0.2087  0.0102 -0.4066
13352W        W33632  14.263  15.745  16.247 -0.1198  0.2028 -0.0374
13353W        W33633   5.864   9.184   4.288 -0.0816 -0.1220  0.1558
13354W        W33634  14.956   8.883   0.796  0.0851  0.2173 -0.1827
13355W        W33635   1.486  16.418   0.458  0.1845 -0.0825 -0.2174
13356W        W33636  15.292  11.186  12.480 -0.0659  0.0223  0.0365
13357W        W33637  13.100   1.926   3.664  0.1848  0.1922 -0.4736
13358W        W33638  12.728  13.546   2.928 -0.1067 -0.1017  0.0160
13359W        W33639   3.162  12.941  16.404 -0.0607 -0.0512 -0.0914
13360W        W33640  13.925   3.130   0.958 -0.1341  0.3664  0.0437
13361W        W33641   6.433  15.025   4.140 -0.1483 -0.1494  0.0828
13362W        W33642   8.000   9.618  15.440 -0.4384 -0.1951 -0.1349
13363W        W33643  17.279  12.850   3.175  0.4094 -0.0385 -0.1643
13364W        W33644  10.432   3.473   2.471 -0.1397  0.0570 -0.0048
13365W        W33645  16.911   7.168   2.391  0.0404  0.1800 -0.0960
13366W        W33646   9.336   3.047  12.818  0.0831 -0.3342 -0.0889
13367W        W33647   7.579   6.252   2.882 -0.0519 -0.0355 -0.0203
13368W        W33648  14.238   3.545  11.695 -0.0300  0.3745 -0.0572
13369W        W33649  15.754  15.473  14.347  0.0321 -0.2130  0.0974
13370W        W33650  16.917   5.083   0.744 -0.0566  0.1809  0.1159
13371W        W33651   7.860  14.603  16.632 -0.2491 -0.2673 -0.4014
13372W        W33652   1.720  14.936  12.792  0.2496  0.0387 -0.1465
13373W        W33653  10.906   0.701   2.106  0.0775  0.1840  0.1592
13374W        W33654   9.971   9.345   3.192 -0.2141  0.0983 -0.0335
13375W        W33655  15.720  15.109  13.980  0.0502  0.1382 -0.1284
13376W        W33656   0.176  16.274   2.165 -0.0290  0.1237  0.0803
13377W        W33657  16.310  16.021   0.077  0.1796 -0.1986 -0.0433
13378W        W33658   4.042   6.027  14.762 -0.0301  0.1565  0.1261
13379W        W33659   8.610   7.849  13.492  0.2028  0.4032 -0.1613
13380W        W33660  13.704   7.858   2.960  0.3767 -0.2306  0.0005
13381W        W33661   7.071   9.762   1.248 -0.2992 -0.0743  0.0883
13382W        W33662  14.054  15.295  14.556 -0.2734 -0.1259  0.1024
13383W        W33663  10.142   2.845   1.454 -0.0482  0.2082  0.0030
13384W        W33664   7.089  17.237  13.261  0.3111  0.0636 -0.3400
13385W        W33665   1.904   2.471   1.028  0.0671  0.0478 -0.3983
13386W        W33666   5.752  15.998   0.753  0.0576  0.2876 -0.0347
13387W        W33667  12.812  15.327  14.710 -0.0383 -0.1337  0.0326
13388W        W33668   0.589   8.573   0.781  0.0865  0.0929  0.0882
13389W        W33669  12.413   6.192   3.319  0.1864 -0.0341 -0.0596
13390W        W33670  11.077  13.796  14.975 -0.2966  0.0866 -0.0391
13391W        W33671  15.276   6.346   0.869 -0.1561 -0.3515 -0.2669
13392W        W33672   1.311  16.646   1.064  0.3253 -0.0430  0.0470
13393W        W33673  17.469   7.231  16.035  0.0850  0.1031 -0.2608
13394W        W33674   9.452  12.827  14.947  0.0150  0.1040 -0.0324
13395W        W33675  10.856   3.537   1.026 -0.1668  0.0284  0.0106
13396W        W33676  16.958  13.343  12.202  0.0862 -0.1075 -0.2694
13397W        W33677   1.848   8.272   3.750 -0.2340 -0.0734 -0.1271
13398W        W33678  16.445  16.176   0.993 -0.1319 -0.2023 -0.1803
13399W        W33679  14.982  12.541   0.097  0.0757  0.2432 -0.1500
13400W        W33680   1.720   9.777  14.319  0.0118 -0.1132 -0.0936
13401W        W33681  16.613  14.681  12.066 -0.0561  0.0474  0.3851
13402W        W33682   5.240   9.188  12.496  0.0580 -0.0981  0.1095
13403W        W33683  10.503  15.344   2.957 -0.2219  0.0320 -0.1852
13404W        W33684  10.395  17.180  16.372 -0.1151 -0.1848  0.0299
13405W        W33685  17.299  10.139   2.991 -0.1058 -0.1065  0.0714
13406W        W33686  14.679   5.552  13.611  0.0188 -0.0642  0.3134
13407W        W33687  14.836  12.684   2.195  0.0737 -0.3978 -0.5543
13408W        W33688  12.012  12.872   3.901 -0.2058  0.3387  0.0671
13409W        W33689  13.988   9.200  16.072 -0.1895  0.0289 -0.0524
13410W        W33690  11.550   1.831  15.451 -0.0439 -0.2374 -0.3610
13411W        W33691  10.457  15.880  12.278 -0.0787 -0.0577 -0.1549
13412W        W33692   5.008  11.619  13.971 -0.1455 -0.0487  0.2102
13413W        W33693   9.288   0.803  16.623  0.0522  0.1340  0.1331
13414W        W33694   8.153   4.493   0.052 -0.1207 -0.0966  0.1426
13415W        W33695  17.958   1.538   1.547  0.0225 -0.1326  0.2224
13416W        W33696   1.707  16.144  12.426 -0.2076  0.2650  0.1836
13417W        W33697   4.790   2.545  12.957  0.0560 -0.0267 -0.1773
13418W        W33698  16.487   7.975   1.377  0.0194 -0.1737  0.1802
13419W        W33699  11.767   7.468   2.010 -0.0648 -0.0794 -0.1023
13420W        W33700   5.721   3.517   4.519  0.0668 -0.0281 -0.2301
13421W        W33701   3.856  17.559  14.877 -0.3044 -0.0096 -0.1536
13422W        W33702   9.614   7.658   2.396  0.1344 -0.0600 -0.2025
13423W        W33703   6.508   1.049  12.506  0.0106  0.0018  0.2236
13424W        W33704  14.429   8.654  15.965  0.1481  0.0965 -0.0347
13425W        W33705   8.739   2.344  16.161  0.0414  0.1647 -0.2749
13426W        W33706  17.945   0.802   3.563 -0.1976  0.0813 -0.1124
13427W        W33707   5.697   6.235  13.770 -0.1888 -0.1754  0.1355
13428W        W33708  16.630   0.160  16.034 -0.0503 -0.1888 -0.2605
13429W        W33709   3.244  17.040   4.590  0.0230  0.2722 -0.1096
13430W        W33710  17.732  10.209  12.478 -0.0637 -0.0959 -0.2504
13431W        W33711  17.044   5.408  12.854  0.0721  0.2202  0.0235
13432W        W33712  13.671   0.335   2.291 -0.2518  0.2642 -0.0312
13433W        W33713  13.295  16.215  16.011 -0.1399 -0.0413 -0.1502
13434W        W33714  12.262  10.846   4.383  0.0124 -0.0529 -0.1224
13435W        W33715   5.591   4.570  12.180  0.0697  0.0566  0.0381
13436W        W33716   6.384   2.491   0.220 -0.1884 -0.2310  0.1749
13437W        W33717   1.449   1.417   0.038 -0.2039  0.1648  0.2011
13438W        W33718  10.860  17.298   2.342  0.1740  0.0212 -0.1694
13439W        W33719  10.913  16.633   2.094 -0.1141  0.4336  0.0818
13440W        W33720   7.890   4.587  15.302 -0.0692  0.2547  0.3730
13441W        W33721   1.786   9.457  12.547 -0.2495 -0.0111 -0.0062
13442W        W33722  15.093  11.126   1.543  0.0001 -0.3282 -0.1014
13443W        W33723   6.191  10.739  16.170  0.0951 -0.3886 -0.1743
13444W        W33724  14.009   1.604   4.556  0.2017 -0.1696  0.0259
13445W        W33725   4.220  10.818   3.914 -0.0748  0.0459  0.2959
13446W        W33726   1.536  13.467  12.460  0.0134  0.1071  0.2485
13447W        W33727  16.663  17.258  16.187  0.1990 -0.1043 -0.3846
13448W        W33728   8.350   4.177   5.114 -0.0515 -0.1657  0.1302
13449W        W33729  15.970  10.155   2.601  0.0798  0.1860  0.0511
13450W        W33730  16.214   7.924  11.554  0.0802  0.2638  0.0133
13451W        W33731  12.010   0.427  16.112 -0.1399  0.0651  0.1816
13452W        W33732   5.382  12.329  14.484  0.3089  0.1135 -0.0749
13453W        W33733  14.939  16.766   1.351 -0.1988 -0.0052 -0.1164
13454W        W33734  13.123   8.782   3.150 -0.2524  0.2318  0.0470
13455W        W33735  12.038  14.725   3.827  0.1555 -0.2255 -0.0618
13456W        W33736  10.272  17.234   4.982 -0.2497 -0.2758 -0.0112
13457W        W33737   4.495  15.324  15.892 -0.1824 -0.3105 -0.0610
13458W        W33738  13.733   9.230  15.653  0.0539 -0.4610 -0.0889
13459W        W33739   9.682  16.760   3.930  0.1505  0.1060 -0.2736
13460W        W33740   5.514  13.613  14.495 -0.3523  0.2326  0.1231
13461W        W33741  10.367   9.677   0.515 -0.0220  0.0193 -0.0297
13462W        W33742   4.769   7.810   0.363 -0.0707 -0.0049 -0.1874
13463W        W33743  11.329   7.474   3.063  0.0278 -0.0045 -0.3332
13464W        W33744  12.840   1.741  11.946 -0.0890 -0.0135 -0.1619
13465W        W33745   9.678   1.162  14.261  0.0167 -0.0181  0.2512
13466W        W33746  13.632   6.144  12.636  0.2353 -0.0494 -0.0454
13467W        W33747  10.225  13.052   0.496 -0.0520  0.3400  0.1087
13468W        W33748  10.579   4.463  15.866  0.1253 -0.0321 -0.0389
13469W        W33749  17.159  17.323  13.533  0.1932 -0.1263 -0.0892
13470W        W33750  11.399  16.328   0.145  0.2487  0.0261  0.1734
13471W        W33751  10.256  10.749  12.395 -0.0839  0.1385 -0.2721
13472W        W33752   0.556  15.974   1.269 -0.0680  0.0705 -0.2266
13473W        W33753   1.966   6.454  16.283 -0.0490 -0.0222  0.1380
13474W        W33754   4.081   7.230  14.133 -0.0661  0.0826 -0.1897
13475W        W33755   4.321   1.902   0.526  0.0314 -0.0743  0.2931
13476W        W33756   1.378  11.060   2.826 -0.0246 -0.0390  0.3059
13477W        W33757   8.276   5.522   3.684 -0.2347 -0.0423 -0.0844
13478W        W33758   4.852   1.125   2.032 -0.0183 -0.0030  0.0641
13479W        W33759   6.155   9.155   0.906 -0.2327  0.0904 -0.1460
13480W        W33760  14.536   5.542  14.079  0.1697  0.0562 -0.3581
13481W        W33761  13.921   4.744  12.509  0.3649 -0.0457  0.1210
13482W        W33762  15.077   5.486  13.956  0.1985 -0.1651 -0.0092
13483W        W33763   1.305   2.692  12.441 -0.1182 -0.0200 -0.4097
13484W        W33764   8.321  14.493  16.469 -0.0017  0.1808  0.0651
13485W        W33765   0.568   8.155   2.721  0.0516 -0.2449  0.0653
13486W        W33766   0.985   4.793   4.638  0.0114 -0.4177  0.0488
13487W        W33767   0.233   3.766   4.562 -0.3120  0.0414  0.0853
13488W        W33768   9.355   3.044  15.542  0.2386  0.2667  0.3187
13489W        W33769  16.128   7.256   0.498 -0.0367 -0.1118 -0.0423
13490W        W33770   0.336   5.963   2.827  0.0549 -0.2916  0.2651
13491W        W33771  15.223   1.492  13.908  0.0178  0.0099 -0.0705
13492W        W33772   6.876  10.375  12.862  0.0934  0.2042  0.2226
13493W        W33773  17.273   9.993   4.389 -0.2487  0.0269 -0.0761
13494W        W33774   8.153  15.527   0.304 -0.2565  0.1079  0.0974
13495W        W33775   4.985   2.499  15.219 -0.0597  0.0980  0.2407
13496W        W33776   4.064  14.260  12.495  0.1515 -0.0608 -0.0316
13497W        W33777  15.818   2.512   2.756  0.0897 -0.2885  0.0693
13498W        W33778  15.326   4.363  12.139  0.2070  0.0391  0.2102
13499W        W33779   0.843   5.702   2.565 -0.0173  0.2241  0.0805
13500W        W33780   4.513  16.516  15.904  0.2465 -0.0255  0.1767
13501W        W33781  13.101  10.423  12.396  0.0207  0.0731 -0.1750
13502W        W33782  14.755   3.499   0.174  0.0331 -0.0443  0.4951
13503W        W33783  17.403   3.239  12.900  0.2005  0.1272  0.2214
13504W        W33784   5.701  14.964   1.686  0.0592 -0.0028  0.1716
13505W        W33785  13.974   7.573   2.615  0.0471  0.0293  0.0721
13506W        W33786   6.470  14.062  13.547 -0.0140  0.0559 -0.0887
13507W        W33787   2.820   8.972  14.678  0.0152  0.0472 -0.1173
13508W        W33788  12.761   4.057   3.679  0.1674  0.0555  0.0923
13509W        W33789  15.982   8.788  14.469 -0.1228  0.0013 -0.0498
13510W        W33790  11.602  13.488   1.554  0.0573 -0.1012  0.2088
13511W        W33791  17.972  12.122  15.094  0.1418  0.2007 -0.1906
13512W        W33792  16.355   8.737  12.063  0.0795 -0.0026  0.1968
13513W        W33793   2.460  12.179   3.869  0.0262 -0.0641 -0.1783
13514W        W33794   4.771   5.444   3.256  0.0522  0.0499 -0.1683
13515W        W33795   0.111  12.306   1.075  0.1640 -0.0538 -0.0360
13516W        W33796   0.263  13.061  16.187 -0.1748 -0.1736 -0.3142
13517W        W33797   0.517  15.940  13.065 -0.1058 -0.0132 -0.0623
13518W        W33798   3.838  13.311  14.958 -0.1256  0.0294  0.3846
13519W        W33799   1.476   5.098  16.668 -0.1838 -0.0413  0.1048
13520W        W33800   2.603  12.565   2.232 -0.0354 -0.0997  0.0650
13521W        W33801  15.014  11.385  12.910  0.0717  0.2693 -0.1028
13522W        W33802   7.021   5.324   3.006  0.1178 -0.0423 -0.0146
13523W        W33803  16.035   2.082   0.577  0.1671  0.0184  0.0335
13524W        W33804   5.953   2.089   2.599 -0.0540 -0.1046 -0.0268
13525W        W33805   0.991  12.879   2.606  0.0619  0.0441  0.0877
13526W        W33806  12.348   0.079   2.610 -0.2071 -0.1040  0.0445
13527W        W33807   4.543   2.253   0.055  0.1001 -0.2709 -0.0748
13528W        W33808   1.092   4.890  13.965 -0.1842  0.3447  0.1059
13529W        W33809   8.183   3.525   3.074  0.2759 -0.0236 -0.0445
13530W        W33810   2.862   1.410   1.129  0.0334  0.1961 -0.1994
13531W        W33811  10.259   8.220  13.037 -0.0970  0.1167 -0.0497
13532W        W33812  12.698   4.834   0.115 -0.1197 -0.1664  0.0877
13533W        W33813  17.373   3.085  16.345 -0.1183  0.3055  0.3273
13534W        W33814   6.807   2.133  12.744  0.3419  0.0551  0.0003
13535W        W33815   8.601  12.599   4.193 -0.0127  0.0004 -0.0236
13536W        W33816   2.949   9.265   1.555 -0.1001  0.1083  0.0200
13537W        W33817   8.232   8.513  14.906 -0.1792  0.0087  0.1093
13538W        W33818   8.805  16.667  11.809 -0.0817  0.1163 -0.0808
13539W        W33819  14.341  17.470   2.989  0.5526  0.0530 -0.1147
13540W        W33820  11.587  15.375   1.322  0.0238 -0.2954  0.3840
13541W        W33821   3.247   2.960   3.436  0.2673  0.0083  0.0122
13542W        W33822  14.236   4.043  14.683  0.0176 -0.1328  0.1278
13543W        W33823   4.409   3.433   3.161 -0.0747  0.2064  0.0686
13544W        W33824   7.351   3.029  16.283  0.0014  0.0963  0.3020
13545W        W33825   7.125  17.302   3.799 -0.1422 -0.1250  0.3923
13546W        W33826  14.458  10.050   1.677 -0.1253  0.1657  0.3360
13547W        W33827  12.052  12.777   3.310 -0.1555 -0.0584 -0.1154
13548W        W33828  16.060  15.373   0.604  0.0850  0.3045  0.0449
13549W        W33829   1.986  17.351   4.094 -0.6167 -0.0982 -0.0584
13550W        W33830   1.282   0.699  14.466  0.3483  0.1270  0.3658
13551W        W33831   8.383   5.592  12.991 -0.0173  0.0494  0.4351
13552W        W33832   9.751  13.205   0.360 -0.0472  0.2841  0.0785
13553W        W33833   8.329   8.656   0.358 -0.1493  0.0148  0.1932
13554W        W33834   9.760   3.202  15.170  0.1000  0.1485  0.0984
13555W        W33835   8.793   7.396  16.140 -0.2645  0.0115  0.0618
13556W        W33836   9.767  11.160   3.779  0.2711  0.0365 -0.0786
13557W        W33837  11.582  11.566   0.002 -0.2355  0.0532 -0.2811
13558W        W33838   6.187   9.200   1.839  0.0847 -0.3041  0.2825
13559W        W33839   6.348  14.590   1.385  0.0194  0.0449  0.1053
13560W        W33840  17.097   7.170  16.353  0.1590  0.2558  0.0898
13561W        W33841  10.624  11.568  15.407  0.3219 -0.2594  0.4184
13562W        W33842  15.162  10.781  13.993  0.0719 -0.2783  0.0176
13563W        W33843  15.812   1.122   1.260  0.0654  0.0906  0.3750
13564W        W33844   1.166  16.584   1.769  0.4611 -0.1917  0.0550
13565W        W33845   2.018   4.741  15.656 -0.1544 -0.0936  0.0237
13566W        W33846   3.943   4.266   4.788  0.2599  0.4620 -0.1158
13567W        W33847   5.701  15.436   3.602 -0.1915  0.2162 -0.0678
13568W        W33848   3.070  14.005   0.492  0.2005 -0.2257 -0.3289
13569W        W33849   1.491   3.267   4.781 -0.2026 -0.2049 -0.1634
13570W        W33850  10.818  14.641  12.278  0.0553 -0.1666 -0.1197
13571W        W33851  14.766  14.034   2.417 -0.0539  0.2914 -0.0572
13572W        W33852  17.775   5.134   2.047  0.2566  0.0817  0.0761
13573W        W33853  16.579   5.465  13.827 -0.0518 -0.3002  0.1015
13574W        W33854  17.188   6.200  15.348  0.0383  0.0516  0.2039
13575W        W33855   0.617   0.972   4.068  0.1750  0.1161 -0.0727
13576W        W33856   1.414   9.319  16.572 -0.5921 -0.0950  0.1432
13577W        W33857   2.727  17.562  13.818  0.1219 -0.1191  0.0227
13578W        W33858  11.900  15.814  13.648 -0.0976  0.1366  0.0572
13579W        W33859  11.488   3.704  12.777 -0.3353 -0.0064  0.0429
13580W        W33860   2.207   2.927   5.648  0.4077  0.3892 -0.4105
13581W        W33861   9.133   6.994   2.801 -0.1852 -0.2383 -0.2375
13582W        W33862   3.397   0.824   4.293 -0.0234 -0.1632  0.1562
13583W        W33863   8.282  11.689   4.982 -0.1176 -0.2700 -0.0876
13584W        W33864   7.321  10.604  14.739 -0.0589  0.3410 -0.0596
13585W        W33865   9.814   2.436   2.198  0.0083  0.0953 -0.1148
13586W        W33866  17.488   5.316  16.360 -0.0733  0.3929 -0.0243
13587W        W33867   8.812  11.806   1.870  0.0831 -0.0661 -0.3995
13588W        W33868   4.315   6.462   0.614  0.4160  0.3698  0.2264
13589W        W33869  11.027  16.282   5.525 -0.0863  0.0469 -0.1532
13590W        W33870   6.170   6.597  12.790 -0.1210 -0.1513  0.0551
13591W        W33871  16.699  11.458   0.067 -0.3268 -0.0548  0.1093
13592W        W33872  10.376   7.179   4.842 -0.2785  0.0941  0.2040
13593W        W33873   1.134   6.677   0.847  0.1415  0.4135 -0.2610
13594W        W33874   0.403   9.227   3.463 -0.2495  0.2473 -0.0389
13595W        W33875   9.602  10.819   3.258  0.3634  0.1129  0.1921
13596W        W33876  11.988   6.897   1.436  0.0341  0.0090 -0.1195
13597W        W33877   6.409   4.540  13.627  0.0336 -0.0685  0.1128
13598W        W33878  12.915  10.419   2.757 -0.2362 -0.1891  0.0137
13599W        W33879   9.935   3.427   0.024 -0.0027 -0.2126  0.1668
13600W        W33880  14.487   4.875  15.882  0.3161 -0.1434 -0.0319
13601W        W33881   3.395   2.765   0.880 -0.0457 -0.1250 -0.1098
13602W        W33882  17.201   3.315   2.750  0.0300  0.4155  0.5238
13603W        W33883  12.320  11.586   3.747  0.0541 -0.0672 -0.1306
13604W        W33884   3.718   4.315   4.394 -0.2032  0.0729 -0.0788
13605W        W33885   2.000  15.570   0.222 -0.0874 -0.1250  0.3249
13606W        W33886   0.857  17.735  12.970  0.1713 -0.2015  0.2089
13607W        W33887   1.131   1.215   1.537 -0.2722 -0.1445  0.0395
13608W        W33888  14.346   2.209   2.457  0.0122 -0.1986 -0.0478
13609W        W33889  14.523  10.882  14.704  0.2237  0.0276 -0.0732
13610W        W33890  10.624   2.399  15.082 -0.3250 -0.1272  0.0588
13611W        W33891   8.423  12.387   2.527  0.2258  0.2894  0.1619
13612W        W33892   2.647   8.856   0.094 -0.0827  0.0230  0.3295
13613W        W33893  16.922  12.560   4.433 -0.0003 -0.1306  0.1600
13614W        W33894  10.962  11.884  13.031  0.1457 -0.0042  0.1110
13615W        W33895  17.495  15.375  15.770  0.0888 -0.1358  0.0396
13616W        W33896  10.488   1.917   2.612 -0.0193  0.4266 -0.1489
13617W        W33897  17.373  17.768  13.724  0.0283  0.2132  0.0121
13618W        W33898  15.023   6.045   1.261  0.1693 -0.2256 -0.1631
13619W        W33899  15.098   2.771  15.555 -0.0549  0.0802  0.0843
13620W        W33900  13.507   3.088   4.026  0.1835  0.0769 -0.1150
13621W        W33901   1.469  10.693  15.273 -0.2636  0.1680 -0.0240
13622W        W33902  17.860   9.595   1.616 -0.0644 -0.1951 -0.0657
13623W        W33903  13.563  16.869   1.977  0.2806 -0.1229 -0.1256
13624W        W33904  12.950   4.806  13.948  0.1501 -0.1224 -0.1402
13625W        W33905  10.547  10.172  12.751  0.1038  0.3058 -0.2614
13626W        W33906   0.053  13.498  16.458 -0.0724  0.0033 -0.2773
13627W        W33907   8.722  14.060  13.819  0.2040 -0.1304  0.0767
13628W        W33908   8.721   0.462   0.971 -0.2247  0.1403 -0.1070
13629W        W33909   8.138   0.294   0.797  0.2109  0.3917  0.2466
13630W        W33910   8.952   6.907  15.359  0.2486 -0.1778 -0.2002
13631W        W33911   5.949   8.268   1.644  0.2199 -0.1197 -0.2132
13632W        W33912   1.650  12.660  11.321 -0.0218 -0.0258  0.0512
13633W        W33913   9.927   0.728  15.412  0.2305  0.1454 -0.3193
13634W        W33914  12.093   9.491   1.879 -0.4582 -0.0927 -0.0245
13635W        W33915  12.990   6.531   2.516 -0.1278  0.1897 -0.1798
13636W        W33916  16.046   6.771   0.325  0.0829  0.2269 -0.0579
13637W        W33917   2.108   4.520   4.875  0.1750  0.1235 -0.0876
13638W        W33918  16.969  10.038   3.405 -0.0524 -0.0530 -0.0218
13639W        W33919  14.178  10.044  16.239 -0.0160  0.0329  0.1065
13640W        W33920  12.170  15.484  15.822  0.3146  0.2491 -0.0218
13641W        W33921   9.526  11.966  16.024  0.0342  0.0626 -0.1233
13642W        W33922  10.538   4.447  14.653  0.2543  0.0233 -0.0117
13643W        W33923   7.031  11.724  12.591 -0.0414 -0.2045 -0.2331
13644W        W33924   3.446  14.419  14.216  0.0077  0.0763  0.1176
13645W        W33925   1.317  17.911  15.746 -0.2048  0.1914  0.3198
13646W        W33926  10.346   3.857  16.216 -0.0341 -0.2284  0.0383
13647W        W33927  11.425  15.180  13.257 -0.0655  0.1596 -0.3274
13648W        W33928   4.262  13.221  12.617  0.1038 -0.2689  0.1504
13649W        W33929  14.640   2.191   2.066 -0.1672 -0.0159 -0.1185
13650W        W33930   4.331   9.121   3.737  0.0625  0.2482  0.2257
13651W        W33931   6.607  17.772   4.590  0.0504  0.2161  0.4400
13652W        W33932   1.247   5.444   0.608 -0.0343 -0.1180 -0.0676
13653W        W33933  17.961   0.612  12.516 -0.1803  0.0821  0.0351
13654W        W33934  12.703   1.961   2.621  0.0981  0.1052  0.0441
13655W        W33935   8.514   6.338   3.224 -0.0991 -0.1133  0.2340
13656W        W33936  10.273   1.414   2.410  0.3640  0.1989  0.2130
13657W        W33937  13.042   5.683  11.101 -0.0901  0.1194 -0.0951
13658W        W33938  10.166   7.903   3.747  0.0113 -0.2891 -0.0120
13659W        W33939  13.945  10.649  15.771 -0.0772 -0.1220  0.1781
13660W        W33940   3.359  11.400   2.476 -0.3055 -0.1361 -0.2803
13661W        W33941   8.853   5.645  15.730  0.1450 -0.0018 -0.0491
13662W        W33942   5.659   4.906   3.040  0.1556  0.0542  0.0972
13663W        W33943   5.687  16.920  13.000 -0.1614 -0.0460  0.1025
13664W        W33944  12.494   2.504  16.575  0.1594  0.1062  0.0040
13665W        W33945   3.823   1.663   1.395  0.4526  0.2622 -0.3279
13666W        W33946  13.197   6.111  14.458 -0.2790 -0.2341 -0.0567
13667W        W33947   1.631  13.479   4.939 -0.2452 -0.1180  0.0710
13668W        W33948  11.075   4.068  12.743 -0.2048 -0.2404 -0.1865
13669W        W33949   4.221  11.774   3.813 -0.0856 -0.1256 -0.1766
13670W        W33950  17.315  13.405  13.277 -0.3100  0.0670  0.1359
13671W        W33951  14.467   8.152  16.019  0.0721  0.0865  0.0703
13672W        W33952   5.088   7.745   1.482  0.1545 -0.1380 -0.2163
13673W        W33953  16.510  12.874   0.545  0.1118  0.0853  0.1905
13674W        W33954   8.027   9.827   1.953  0.1762 -0.1378  0.1343
13675W        W33955   2.136   4.025  14.858 -0.2625  0.0395  0.0457
13676W        W33956  13.230   3.151  16.533  0.1313 -0.4950 -0.1865
13677W        W33957   7.610  10.112  13.174  0.1313  0.2295  0.2804
13678W        W33958  17.893  15.210  14.848  0.1759  0.1371  0.1862
13679W        W33959  13.238   8.740   4.420  0.0948  0.0984  0.4264
13680W        W33960  17.031   4.059  15.206 -0.0300 -0.3791  0.1401
13681W        W33961   2.869  12.122   2.974 -0.0207  0.0692  0.0476
13682W        W33962  12.878   7.951   2.167  0.2894 -0.0649  0.0365
13683W        W33963   7.957  11.831   2.047  0.2107  0.0914 -0.4006
13684W        W33964  12.725   0.668   3.255 -0.1367  0.0765  0.0159
13685W        W33965  16.283   5.217   0.381 -0.0489 -0.1194  0.2095
13686W        W33966   7.094   3.373   3.910  0.1609 -0.0442 -0.1223
13687W        W33967  14.986  17.937  13.424 -0.3013  0.3124  0.2712
13688W        W33968   7.895   6.783  16.612  0.1803  0.2650 -0.0058
13689W        W33969  15.932  12.225   2.670  0.1178  0.1169 -0.5594
13690W        W33970   1.265  14.535  14.032 -0.0042  0.1289 -0.1112
13691W        W33971  12.577   9.221   4.369 -0.3689  0.1694 -0.2915
13692W        W33972   1.528  13.392  13.061 -0.0717 -0.1816 -0.1783
13693W        W33973   3.816   8.417   4.554  0.4172  0.1130  0.3559
13694W        W33974  14.728   9.754  13.564  0.0012  0.0355 -0.1584
13695W        W33975   7.769  12.857  12.258 -0.1808 -0.1594  0.1390
13696W        W33976   8.675  14.869   0.054  0.0181 -0.2469 -0.0475
13697W        W33977   6.184  12.296  13.870  0.1801  0.0159  0.0160
13698W        W33978  17.960   5.819  11.152 -0.0899 -0.0826 -0.2096
13699W        W33979  10.666  13.318  16.608 -0.0735  0.2833  0.2489
13700W        W33980  14.979  15.387  15.075 -0.1906  0.1861  0.0339
13701W        W33981   3.760   6.987  11.402  0.1406  0.2727 -0.1224
13702W        W33982  17.906   8.941  15.846 -0.1525  0.0265  0.1776
13703W        W33983   8.531  12.677   3.691 -0.1743  0.3489 -0.1915
13704W        W33984   8.323  13.228  12.731 -0.1152 -0.1065 -0.2942
13705W        W33985   2.264   1.838  15.093  0.0595 -0.0355  0.2355
13706W        W33986  17.262  14.862   1.560 -0.1072 -0.0980 -0.1429
13707W        W33987  10.950   3.808  15.225 -0.0059  0.0541 -0.1427
13708W        W33988  14.730   1.199  12.498  0.1269  0.2486 -0.2352
13709W        W33989   6.918  15.086   0.091  0.0542  0.3400  0.0395
13710W        W33990   6.828  13.742  15.351 -0.4962  0.0448 -0.1010
13711W        W33991  17.433   4.723   2.411 -0.0161  0.0562 -0.0270
13712W        W33992  11.113  16.980  15.855 -0.1337 -0.0730  0.0408
13713W        W33993   0.212   3.426  14.025  0.2179 -0.1737  0.0194
13714W        W33994   3.860   7.322  12.709 -0.2297  0.2733 -0.0384
13715W        W33995  10.991  11.002  13.071 -0.1832  0.2648 -0.1295
13716W        W33996   1.344  10.121   3.286  0.2004  0.0131  0.0319
13717W        W33997   3.897   2.398   2.135  0.2601  0.0133 -0.3285
13718W        W33998   6.885  17.243  14.891  0.1124 -0.1803 -0.2453
13719W        W33999  12.767  16.276  11.878  0.0262 -0.0668  0.1873
13720W        W34000   9.772   7.609   2.872 -0.1257 -0.3423  0.1858
13721W        W34001   7.668  16.798   4.720 -0.1536 -0.1892  0.1227
13722W        W34002  15.753   0.057   2.957  0.1448 -0.2940 -0.5180
13723W        W34003   4.625   8.883   5.313  0.1726  0.1903  0.1312
13724W        W34004  16.135  17.927  16.543  0.1557 -0.1124 -0.1054
13725W        W34005   6.573   5.520   2.700  0.0718 -0.0113 -0.1049
13726W        W34006   6.433   6.394  12.159  0.1499  0.0844  0.0063
13727W        W34007   8.616  17.603   1.344 -0.0225  0.1051  0.0338
13728W        W34008   1.408   4.536  11.372  0.0459 -0.1822  0.0240
13729W        W34009   7.600   3.214   1.712  0.0025  0.1575  0.1768
13730W        W34010  17.870  12.628   0.725  0.4074  0.1795  0.0376
13731W        W34011   1.083  11.066   3.875 -0.2593  0.1735 -0.3057
13732W        W34012  12.494  14.884  14.818 -0.3397 -0.2654  0.0263
13733W        W34013   8.421   7.323  12.696  0.1461  0.0039  0.0773
13734W        W34014   8.015   5.891  15.176  0.1076 -0.0939  0.1272
13735W        W34015   8.517   1.532   4.553 -0.2095 -0.2184 -0.1145
13736W        W34016   0.139  15.862   0.535 -0.2307 -0.1121 -0.4794
13737W        W34017   2.973   4.837  16.273 -0.1423  0.0631  0.2562
13738W        W34018  10.510  10.033  16.396 -0.1212 -0.1369  0.0728
13739W        W34019  12.178   5.992  12.151 -0.0693  0.2143 -0.0677
13740W        W34020  14.937  13.254  14.673  0.2732  0.0021 -0.2651
13741W        W34021  11.250   5.907  12.074 -0.1643 -0.0379 -0.2363
13742W        W34022   8.701   2.074   3.049 -0.0230 -0.2245 -0.0237
13743W        W34023  13.884   0.908  15.121 -0.0088 -0.0730  0.0345
13744W        W34024   4.171   0.735   1.172  0.0993 -0.1306  0.1365
13745W        W34025   3.998  15.519   3.111 -0.1875 -0.1938 -0.2185
13746W        W34026   3.696  16.875  15.759  0.0556 -0.0580  0.0165
13747W        W34027  15.313  14.067  13.440  0.0669 -0.3953 -0.0004
13748W        W34028  12.679   3.168  11.170 -0.1519  0.0878  0.3564
13749W        W34029  13.755  14.268  13.648 -0.1012  0.0910 -0.2625
13750W        W34030  17.324   1.030  13.254 -0.0109  0.2369  0.1072
13751W        W34031   3.479   3.011   1.496  0.1947 -0.1891 -0.0780
13752W        W34032   2.457  12.694   3.219 -0.2129  0.0307 -0.0112
13753W        W34033   1.452  15.301   4.019 -0.0705 -0.3303 -0.1151
13754W        W34034   6.036   5.030  14.524  0.2288 -0.1380  0.3108
13755W        W34035   7.059  15.460   1.647  0.1270  0.2268 -0.1569
13756W        W34036   1.880  10.716   0.189 -0.0061  0.1778 -0.0884
13757W        W34037  15.672   9.115   4.097 -0.0985 -0.1840 -0.1792
13758W        W34038   0.581  17.452   1.959  0.0489 -0.0256 -0.0611
13759W        W34039  14.700   3.541   3.757 -0.3687  0.0740 -0.0683
13760W        W34040   3.989   0.466  13.053 -0.0845 -0.0966  0.0254
13761W        W34041   6.440   7.528  13.763 -0.3439 -0.2220  0.0098
13762W        W34042   6.690   4.777  12.717  0.2562 -0.2528  0.1757
13763W        W34043  13.714   5.432   3.269  0.1138 -0.0279 -0.2197
13764W        W34044  16.878  16.948   5.094  0.2436 -0.0729  0.1792
13765W        W34045  16.647  17.118  14.648  0.2443 -0.3107 -0.0062
13766W        W34046  14.569   3.789   1.310  0.1535  0.0744  0.1029
13767W        W34047  15.342   7.148   3.364  0.0248  0.3572 -0.3048
13768W        W34048   8.092   8.272   2.667  0.0037  0.0089 -0.1261
13769W        W34049   5.016  15.317  14.624  0.0777  0.0861 -0.1067
13770W        W34050  11.280  15.092   0.084 -0.1636 -0.0641  0.2093
13771W        W34051  14.457  12.728   3.442  0.1756  0.0599 -0.0385
13772W        W34052  17.344   2.350  13.443  0.0731  0.0538 -0.3210
13773W        W34053  13.570   1.118  15.512  0.0807 -0.2691 -0.1389
13774W        W34054   0.285   1.923  12.589  0.1825 -0.0610  0.0634
13775W        W34055  15.019  15.758   4.342 -0.0884  0.2836 -0.2494
13776W        W34056   7.790   1.742   4.126  0.1274  0.2243 -0.2929
13777W        W34057  13.336   8.599  14.435  0.4523  0.1945  0.2729
13778W        W34058   3.545   2.083  15.956  0.0280 -0.3836  0.2252
13779W        W34059   3.044   5.976   2.625  0.0906 -0.2245 -0.3508
13780W        W34060  13.020  14.538   1.507 -0.0798 -0.1246 -0.0624
13781W        W34061   9.042  15.150   4.447 -0.2458 -0.0694 -0.0982
13782W        W34062  10.521   9.166  15.182 -0.0526 -0.0835  0.2478
13783W        W34063   6.579   9.282   2.703 -0.0141 -0.0493 -0.5211
13784W        W34064   1.637  14.334  13.664  0.0583 -0.0353 -0.2459
13785W        W34065  13.650   0.786   2.587  0.0735  0.1015 -0.1639
13786W        W34066   8.475   6.703  14.163 -0.2401  0.0028 -0.0606
13787W        W34067   9.713   7.010  16.307 -0.0425 -0.2213  0.1177
13788W        W34068  11.976   4.601  12.786  0.1394 -0.0084  0.1036
13789W        W34069  14.695   5.328   2.385  0.1832  0.0428 -0.2641
13790W        W34070  12.281  14.219   1.029 -0.0326  0.0804 -0.2108
13791W        W34071   1.418  11.908   4.377  0.0096 -0.0964 -0.0276
13792W        W34072   2.333  12.633   5.014  0.1835  0.3039 -0.2943
13793W        W34073  12.580  12.295   1.675  0.1075 -0.0453 -0.0049
13794W        W34074  11.098  16.345   1.659  0.2718  0.2442 -0.2727
13795W        W34075   1.967   6.484   4.288  0.3586 -0.0390  0.0184
13796W        W34076  11.718   2.234  14.134  0.2297  0.0185 -0.2081
13797W        W34077   8.580   8.329  16.131 -0.0869  0.0690  0.2240
13798W        W34078   6.459   5.604   5.359  0.2433  0.3360 -0.4112
13799W        W34079   8.432   6.013  12.707 -0.2044  0.0559 -0.1662
13800W        W34080   8.147   3.439   2.512  0.1266 -0.0729  0.3381
13801W        W34081  12.990  17.364   5.455 -0.3064  0.2136 -0.0594
13802W        W34082   7.179   9.521   4.262  0.0100 -0.2026  0.0461
13803W        W34083  13.965  15.678  14.783  0.1587 -0.2967  0.0673
13804W        W34084   5.120   5.231  16.624 -0.1567  0.1585 -0.0712
13805W        W34085  16.878  14.856  15.091 -0.1364  0.3805  0.0387
13806W        W34086   9.383   0.696   4.862  0.0392 -0.0147 -0.0437
13807W        W34087   2.671   4.835  14.828 -0.0208  0.1761 -0.0315
13808W        W34088  16.233   0.241   0.896 -0.0370 -0.0327 -0.1145
13809W        W34089  15.154   2.387  15.870  0.1017 -0.0837 -0.2846
13810W        W34090  11.978   6.494  14.420 -0.0622  0.0825  0.0611
13811W        W34091   3.976   4.577   3.612  0.0516  0.2563 -0.0057
13812W        W34092  13.687  15.208   1.526 -0.0233  0.0505  0.1849
13813W        W34093  15.860  13.583   2.556  0.2053 -0.2918 -0.0533
13814W        W34094  12.086  14.653   2.329 -0.1028  0.0070 -0.1007
13815W        W34095  14.910  13.865   3.674 -0.0642 -0.1108 -0.0878
13816W        W34096   5.666  11.810   3.061 -0.0169  0.1259  0.0625
13817W        W34097   8.538   8.220   3.508  0.1986 -0.1933 -0.0233
13818W        W34098  15.885   8.913   2.648  0.0739 -0.1913 -0.0433
13819W        W34099   7.592  11.893  16.045 -0.2222 -0.1888  0.0611
13820W        W34100  10.479   8.481   3.551  0.0419 -0.2094  0.1184
13821W        W34101   1.127   4.460  15.964  0.2856 -0.1513  0.0995
13822W        W34102  11.536  12.597  16.333 -0.0353  0.1803  0.1888
13823W        W34103  15.831  11.338  13.192 -0.0479 -0.1753 -0.2842
13824W        W34104   4.900  12.554   6.464  0.3198  0.1559  0.0556
13825W        W34105  13.266  17.443  14.308  0.1309 -0.3050  0.0202
13826W        W34106   3.434   4.715   2.797  0.3220 -0.3199  0.1095
13827W        W34107  13.223   2.617  16.619 -0.0751 -0.4847  0.0446
13828W        W34108  14.329   0.041   3.653 -0.1133  0.1393  0.1859
13829W        W34109   5.926   6.317  16.536 -0.1571  0.3187 -0.1533
13830W        W34110  13.257  14.505  12.722  0.3030  0.1419 -0.2267
13831W        W34111   9.955   9.983  15.181  0.2403  0.1901 -0.1330
13832W        W34112  14.411   5.177   2.782 -0.0219  0.1637  0.2016
13833W        W34113   8.456   8.675   1.317 -0.1236  0.0390  0.2334
13834W        W34114   0.227  13.324  15.728 -0.3447 -0.0031 -0.2563
13835W        W34115  13.823   6.770  11.743 -0.0930  0.1597  0.0774
13836W        W34116  16.277   1.286  13.772  0.1152  0.3952  0.0982
13837W        W34117   1.735  15.940  16.110  0.0736  0.0086  0.3211
13838W        W34118   3.951   3.863   1.391 -0.1171 -0.1321 -0.2021
13839W        W34119   4.324  13.447   0.030  0.0842  0.0343 -0.0236
13840W        W34120  14.734   0.846   1.868 -0.4012 -0.1290 -0.1668
13841W        W34121   3.649  10.328   4.561 -0.1101  0.0500  0.0706
13842W        W34122   2.327   1.062  13.941  0.0301  0.2334 -0.1364
13843W        W34123   2.027   1.586  16.067  0.2495  0.0009  0.1744
13844W        W34124   6.185   5.934  12.037  0.1106  0.0308  0.1488
13845W        W34125  15.289  16.183  13.755 -0.1235  0.0477  0.3115
13846W        W34126   7.623   8.233   5.664 -0.1065  0.1727 -0.1751
13847W        W34127  14.151  10.240   2.195  0.0357  0.0823 -0.0578
13848W        W34128  17.384   8.501   1.373  0.2475 -0.0497 -0.1980
13849W        W34129  10.746  13.010   4.758 -0.2055  0.3604  0.0556
13850W        W34130   7.384   7.145   3.045  0.0716  0.0442  0.3396
13851W        W34131  14.267  11.561   0.226 -0.1648 -0.0121  0.1409
13852W        W34132   2.316   1.339   4.869  0.1644  0.0308  0.0873
13853W        W34133  10.559   9.563   0.051 -0.1061  0.1967  0.0903
13854W        W34134   2.227  10.838  16.553  0.1794 -0.1837 -0.4862
13855W        W34135   0.451   3.502   3.147 -0.0466  0.3872  0.0018
13856W        W34136  10.605  17.083   0.770  0.0377 -0.0610 -0.3059
13857W        W34137  12.660  16.354   2.547  0.1872 -0.0168 -0.0968
13858W        W34138  12.568   5.672   4.058  0.0210  0.1951 -0.1547
13859W        W34139  14.318  16.530   0.452 -0.2665 -0.1138 -0.1411
13860W        W34140   9.120   4.428  13.008  0.3317 -0.3023  0.0229
13861W        W34141   8.969   2.371   1.023 -0.0891  0.2337  0.3383
13862W        W34142   2.770  16.359  11.572 -0.2884  0.2416  0.1109
13863W        W34143   2.915   8.727   2.649  0.0395  0.5011  0.0357
13864W        W34144  10.616   9.467  15.631 -0.3054 -0.1907 -0.0423
13865W        W34145   7.614   6.164  15.554  0.1917  0.0232 -0.3733
13866W        W34146  16.005   9.826  16.113 -0.0525  0.0279  0.2530
13867W        W34147   0.575   2.008  15.683 -0.0956 -0.0270 -0.0704
13868W        W34148   9.157   2.191  15.289  0.0071  0.0108 -0.0731
13869W        W34149  17.363  12.823  16.612 -0.0668 -0.2330  0.0126
13870W        W34150  13.725   6.608  14.794 -0.0293 -0.0998  0.0603
13871W        W34151  12.661  15.955   4.560 -0.0649  0.2058 -0.1260
13872W        W34152  15.604   1.584   1.155 -0.1719  0.0452  0.0302
13873W        W34153   1.963  13.546  13.252  0.0679  0.1147 -0.1071
13874W        W34154   8.202  10.226  16.441  0.1840 -0.2315  0.1966
13875W        W34155   7.619  15.695   3.433  0.0227  0.1895  0.1463
13876W        W34156  12.481   9.518  12.098 -0.0378 -0.6225  0.3714
13877W        W34157  13.225   7.872   0.275  0.0384  0.0697 -0.1740
13878W        W34158   6.313   0.076  16.024  0.2550  0.1039  0.0339
13879W        W34159  17.334  11.209   4.057 -0.1461 -0.0654  0.0326
13880W        W34160   3.772   3.898   1.904 -0.1262  0.0784  0.3248
13881W        W34161   1.381  17.323   4.839  0.0584 -0.0711  0.1157
13882W        W34162   4.620   6.049   1.439 -0.0523 -0.2034  0.0514
13883W        W34163   4.753   8.726  14.817 -0.1108  0.0539  0.0940
13884W        W34164  11.874   0.418   2.081  0.0538 -0.2635 -0.2052
13885W        W34165  16.708   4.351   0.319 -0.1869  0.0356  0.0869
13886W        W34166   8.849   2.183   3.552 -0.1528 -0.0020 -0.2287
13887W        W34167  14.996  17.445   1.816  0.2149  0.0504  0.1879
13888W        W34168   1.342   3.840  14.759  0.0939 -0.0133 -0.1869
13889W        W34169  17.345  17.650   4.512  0.4074  0.0319  0.2074
13890W        W34170   0.887   3.388   2.459 -0.0786 -0.2150 -0.0141
13891W        W34171  10.663   0.407  16.113  0.0779 -0.3236  0.3508
13892W        W34172  13.826   4.700  13.051 -0.2046  0.0558 -0.2945
13893W        W34173  14.246   5.400   3.208 -0.1502  0.2468 -0.0174
13894W        W34174   8.229  10.175  12.339 -0.4244  0.0032 -0.5696
13895W        W34175   8.199   7.939   0.046  0.3039 -0.0496 -0.0609
13896W        W34176   8.520   9.745  15.669  0.4872  0.0550 -0.1365
13897W        W34177   5.700  13.195   2.955 -0.3438  0.1010  0.0678
13898W        W34178   3.228   7.501   3.641  0.2799  0.0516  0.1194
13899W        W34179  12.770   7.783  12.776 -0.4238 -0.0027 -0.0846
13900W        W34180  13.371   4.582   2.653 -0.0825  0.1294  0.0044
13901W        W34181  15.975   5.842   1.690  0.1660  0.0253  0.1296
13902W        W34182  13.678  13.590   4.954  0.1073  0.2309 -0.0847
13903W        W34183   1.938   0.995   3.731 -0.0183  0.1379  0.1158
13904W        W34184  15.965  17.329  15.027 -0.1204 -0.1535 -0.2750
13905W        W34185  14.720  17.415  14.734  0.0340  0.2028  0.0365
13906W        W34186  11.777   1.281   0.730  0.3207 -0.2491  0.0307
13907W        W34187   4.341  17.867   3.388 -0.1325 -0.1005 -0.1532
13908W        W34188   5.486   9.209  14.091 -0.2227 -0.2693 -0.0565
13909W        W34189   0.339   0.963  12.219  0.0858 -0.0525  0.0000
13910W        W34190   4.234   6.092   2.653  0.1150  0.1294 -0.1066
13911W        W34191  17.237  16.830   0.947 -0.0314  0.0123 -0.1257
13912W        W34192  13.882  12.039  14.339  0.0838 -0.1157 -0.4034
13913W        W34193  14.992   4.489  11.771 -0.1053  0.2499 -0.1617
13914W        W34194   8.822  16.270   4.573  0.2353 -0.0708  0.1651
13915W        W34195   0.972   3.380  13.644  0.1375 -0.4668 -0.2050
13916W        W34196  10.912  13.766   0.083  0.0533  0.1433 -0.1422
13917W        W34197  15.552   7.592   3.499 -0.0635  0.2297 -0.1046
13918W        W34198   9.420   5.513   2.543  0.1042 -0.1651 -0.0246
13919W        W34199  15.135   2.486  13.110  0.0710  0.1586 -0.4664
13920W        W34200   5.135   7.390  14.343 -0.0080  0.2942  0.1637
13921W        W34201   9.727  12.204   0.688 -0.2527  0.0220 -0.0055
13922W        W34202   8.391  14.545   4.207  0.0042  0.1571  0.2303
13923W        W34203   2.671  17.007   3.054 -0.0744  0.3939  0.1515
13924W        W34204  13.405  17.340   3.998  0.0857  0.0941 -0.1088
13925W        W34205   5.282   3.266  14.323  0.1854  0.0736  0.0731
13926W        W34206  15.371   9.889   3.233 -0.0599  0.1408  0.0272
13927W        W34207  15.509   4.970   1.978 -0.1092  0.0622 -0.0161
13928W        W34208   2.489   0.384   1.015 -0.1428  0.1027  0.1132
13929W        W34209   9.098   4.129  13.417  0.0289  0.1772  0.0068
13930W        W34210  13.838   9.807  14.935 -0.2488 -0.1543  0.0936
13931W        W34211   1.543   7.067   3.004 -0.2860  0.1837 -0.1713
13932W        W34212  16.916  15.227  15.782  0.0896  0.0582  0.1070
13933W        W34213   3.314   9.197  16.523  0.0519  0.0885 -0.0219
13934W        W34214  12.453   2.393   1.360  0.0990  0.0553  0.3292
13935W        W34215  14.489  13.285   3.487 -0.1938  0.0138 -0.1130
13936W        W34216   6.262   7.941   1.842  0.0305 -0.2011  0.5039
13937W        W34217   2.104  10.078  15.338 -0.0257 -0.2007  0.0944
13938W        W34218   3.468   3.811   2.986 -0.2248 -0.0248 -0.4329
13939W        W34219  11.426   1.040   4.118  0.2366  0.2376  0.1304
13940W        W34220   5.765  12.957   1.556  0.1515 -0.0812  0.4088
13941W        W34221  13.853   2.046  14.624 -0.0220  0.3350  0.3014
13942W        W34222  11.339   7.875  14.054 -0.0804  0.0538  0.1526
13943W        W34223   6.249   5.467  13.505 -0.0813  0.3200  0.0959
13944W        W34224   3.584   0.038   4.486 -0.1639 -0.1192 -0.2307
13945W        W34225   1.085   4.811   2.629  0.1971 -0.0880  0.3610
13946W        W34226   7.432   0.567  14.505 -0.0314 -0.4600  0.0833
13947W        W34227  12.999  13.131   5.815 -0.1064 -0.2338 -0.4314
13948W        W34228  12.535   6.279   2.741  0.3846 -0.3105  0.3948
13949W        W34229   4.353   3.665  12.650 -0.2677 -0.1106 -0.1348
13950W        W34230   2.955   2.462   0.724 -0.0196  0.3451  0.1178
13951W        W34231  16.171   1.074  16.627 -0.0056  0.1446  0.0892
13952W        W34232  17.176  12.632   1.909 -0.0636  0.2639 -0.2901
13953W        W34233  14.588  14.902  12.257  0.0770 -0.0430  0.2547
13954W        W34234  12.831   1.037   1.341  0.0853 -0.0444 -0.0506
13955W        W34235   5.238   7.033   4.630 -0.1552  0.3437 -0.1471
13956W        W34236   5.085   8.898   5.023  0.0874 -0.0660 -0.1802
13957W        W34237  10.929  12.996  15.134  0.2478 -0.0641  0.0429
13958W        W34238  13.081   4.297   1.436  0.0151 -0.1166 -0.0630
13959W        W34239   3.978   0.279   0.506  0.0315 -0.3316  0.0413
13960W        W34240   8.013   8.932   5.095  0.1178  0.5054  0.0794
13961W        W34241  12.994  12.712  15.822  0.1395  0.1274 -0.3548
13962W        W34242  15.808   0.983  14.966 -0.0700  0.3804 -0.1377
13963W        W34243   3.248  11.245   4.294  0.0232  0.3728  0.1293
13964W        W34244  10.450   3.381  12.272  0.4819  0.1282 -0.4972
13965W        W34245   6.542  12.665  15.171  0.0385 -0.0956 -0.1269
13966W        W34246   5.396  16.347   0.958 -0.1276  0.0664  0.3254
13967W        W34247   7.738   3.736  13.389 -0.0770  0.0534 -0.2265
13968W        W34248   7.618   0.118  13.556 -0.3360  0.1770  0.0792
13969W        W34249  16.545   6.415  12.041  0.2158  0.0176  0.0210
13970W        W34250  16.346  15.989   2.365  0.2665  0.1104  0.3458
13971W        W34251   4.169   8.078  16.283 -0.3083  0.0743  0.0205
13972W        W34252   3.217   9.983   4.623  0.0256  0.0367 -0.1176
13973W        W34253   8.225   4.582  13.340  0.0180  0.3237  0.2579
13974W        W34254  11.762  16.904   0.646  0.1025 -0.2584  0.1133
13975W        W34255   5.006  17.666  12.985 -0.3048  0.3010 -0.4047
13976W        W34256   2.500   4.803  13.130 -0.0757 -0.0697 -0.0685
13977W        W34257   2.704  12.977   2.850  0.0094  0.3414 -0.1668
13978W        W34258   9.176  12.361   1.072 -0.4490 -0.0438  0.3063
13979W        W34259  17.978   7.197  11.709  0.0849 -0.2149 -0.2425
13980W        W34260  16.101  15.050   3.513 -0.0040 -0.1261 -0.1984
13981W        W34261  10.836   7.148   3.138  0.2144 -0.0463 -0.1741
13982W        W34262  14.579   8.007   0.312 -0.4433  0.2254 -0.3490
13983W        W34263  13.667  11.473  14.811  0.0968  0.1322 -0.0389
13984W        W34264   4.856  16.511   2.416 -0.0809 -0.1561 -0.2124
13985W        W34265   0.777  16.702   4.263  0.2166  0.0158  0.5118
13986W        W34266  15.529  13.416  13.230  0.1614 -0.0663 -0.1090
13987W        W34267   7.338   2.996   0.804  0.0828 -0.1762 -0.2343
13988W        W34268   6.288   9.923   2.660  0.0972  0.3540 -0.2109
13989W        W34269   9.546   3.468  11.706  0.0829 -0.3429  0.2719
13990W        W34270  11.840   2.997   0.172  0.0386  0.2760  0.1300
13991W        W34271   8.060   5.371   1.192  0.0457 -0.1929 -0.2020
13992W        W34272  11.430   4.700   3.057  0.0619  0.0881 -0.1174
13993W        W34273  16.702   1.469   4.313  0.0636 -0.1132  0.1598
13994W        W34274   8.078   1.004  14.116  0.1645 -0.5372  0.0714
13995W        W34275   9.052   1.721   4.729  0.0091  0.0539  0.0986
13996W        W34276   2.851  16.077  12.398 -0.1521  0.2083 -0.0337
13997W        W34277  11.860  14.609  15.561  0.2146 -0.0933  0.0613
13998W        W34278   0.132   7.645   2.263  0.1554 -0.0363 -0.0998
13999W        W34279   8.912   8.620  16.364 -0.1854  0.0159  0.0335
14000W        W34280  11.875   8.657   1.799 -0.1746 -0.0630  0.0604
14001W        W34281   1.579   8.867  13.379 -0.2039 -0.2259 -0.0587
14002W        W34282   7.237  13.889   0.339  0.2844 -0.1061 -0.1077
14003W        W34283   8.727  16.885  12.337  0.1366  0.1754  0.4106
14004W        W34284   5.401   2.973   1.514 -0.2797 -0.0518  0.3941
14005W        W34285  15.570   9.887  13.640  0.0555  0.0812 -0.1083
14006W        W34286  12.750   4.564  13.563  0.1623  0.0131  0.5323
14007W        W34287  13.999  12.870   1.321  0.1702 -0.0314 -0.2988
14008W        W34288   7.394  16.072   2.832 -0.0037  0.0126 -0.0457
14009W        W34289  14.670   5.608  14.691 -0.0932 -0.0924 -0.1707
14010W        W34290  12.435  12.002   2.403  0.1570  0.0954  0.1332
14011W        W34291   2.479   7.514  12.693 -0.0229 -0.3095 -0.3628
14012W        W34292  11.806   5.085  16.580 -0.1257  0.4400  0.0666
14013W        W34293  12.379   4.734  12.429 -0.0352 -0.0567 -0.1351
14014W        W34294  15.428   1.065  14.138  0.1479  0.2316 -0.4358
14015W        W34295  14.952  13.896   4.168 -0.0774  0.3085  0.1351
14016W        W34296   2.816   3.308   4.962  0.0192 -0.0107  0.1541
14017W        W34297   5.418   9.091   4.503 -0.0821 -0.0950 -0.1719
14018W        W34298   6.718  14.397  14.720  0.0956 -0.1657  0.0246
14019W        W34299  12.635   3.800  15.900  0.1016 -0.1419 -0.0255
14020W        W34300  17.848  11.125  12.580 -0.3897 -0.1155  0.0002
14021W        W34301   4.464  12.186  13.430 -0.2153 -0.1830 -0.4575
14022W        W34302   5.380   5.234  15.686 -0.0889  0.2158  0.0903
14023W        W34303  17.333   0.384   1.817  0.0746 -0.0510 -0.0977
14024W        W34304  11.841   0.790  15.818  0.3334  0.0883 -0.3455
14025W        W34305   7.668   7.103   2.561 -0.3092 -0.3110 -0.0058
14026W        W34306  14.862   3.080   4.326 -0.1477 -0.1317  0.2003
14027W        W34307   2.669   9.713   2.220  0.0286 -0.0499 -0.0498
14028W        W34308  16.188  16.346  12.163  0.1251  0.0610  0.1264
14029W        W34309   0.089  14.132  12.843 -0.0436  0.2422  0.2406
14030W        W34310   6.657   5.043   2.799  0.2243 -0.1781 -0.2047
14031W        W34311   0.446   0.352  15.698  0.0982  0.0801  0.1059
14032W        W34312  12.682   9.096  12.249 -0.0093 -0.3178  0.0937
14033W        W34313  15.084   2.852  16.049 -0.0620 -0.1961 -0.0751
14034W        W34314  15.414  14.459  15.682 -0.2041 -0.0827  0.2742
14035W        W34315   7.894  12.868   3.669 -0.0071 -0.1380 -0.1982
14036W        W34316   5.324  15.529  16.207  0.2854 -0.1807  0.2112
14037W        W34317   0.967   8.142   5.118 -0.1413 -0.2577  0.1691
14038W        W34318   6.192  14.286   3.326  0.0534 -0.1333 -0.1683
14039W        W34319   0.732  15.622   4.534 -0.3645 -0.0404  0.2382
14040W        W34320   0.997   8.060  16.360 -0.1750  0.2389  0.1935
14041W        W34321   1.406  14.759  13.528 -0.1493  0.2024  0.0685
14042W        W34322   3.527   6.894   2.735 -0.0445  0.1731 -0.2934
14043W        W34323  11.769   1.387  13.155  0.1802 -0.2667  0.2453
14044W        W34324   5.503   3.518   3.394 -0.1811  0.3760 -0.0254
14045W        W34325  17.404   8.183   4.094  0.2002  0.2139 -0.0378
14046W        W34326  16.902  12.976   3.544 -0.0767  0.1812 -0.4750
14047W        W34327   4.251  14.843  11.224  0.0184 -0.3339  0.0962
14048W        W34328  17.508   5.174  14.530  0.1176 -0.1352 -0.2265
14049W        W34329   9.674  17.156  11.971  0.0155 -0.0734  0.0681
14050W        W34330   3.522   9.642   1.205  0.2958  0.1955  0.1945
14051W        W34331   0.423   4.247  13.493  0.2920  0.1291  0.0991
14052W        W34332   1.032  16.613   2.347  0.1691 -0.0504 -0.1453
14053W        W34333  15.902   2.571   5.337 -0.0860 -0.1357 -0.1349
14054W        W34334   9.378  16.132  13.720 -0.0677  0.3154 -0.0566
14055W        W34335   7.204   3.404  15.795  0.0577 -0.3839  0.1409
14056W        W34336   9.961   0.495   0.105  0.1108 -0.0483  0.1796
14057W        W34337   3.785  14.465   0.592  0.0402  0.1934 -0.3976
14058W        W34338  13.236   5.702   5.865  0.0747 -0.0402 -0.0181
14059W        W34339   3.829   7.650  14.096 -0.0281 -0.0972 -0.1189
14060W        W34340  12.242  17.774  14.891 -0.1426 -0.0633 -0.2405
14061W        W34341   7.203   8.587  12.333  0.2520 -0.1830 -0.0810
14062W        W34342  17.011  15.588  16.227  0.1225  0.2308  0.1973
14063W        W34343   8.190   7.676  12.434 -0.0113  0.1307 -0.2680
14064W        W34344   9.116   9.143  15.874  0.0972 -0.0554  0.4680
14065W        W34345  13.889  11.110  12.064  0.0512  0.0331 -0.1351
14066W        W34346   0.584   1.643   0.910 -0.1587 -0.1972  0.0197
14067W        W34347   3.687  10.306  16.208 -0.0643 -0.2584 -0.1394
14068W        W34348   4.832   0.800  13.439 -0.1466  0.0111  0.0130
14069W        W34349   7.219  16.064  15.175 -0.0126  0.3953 -0.0542
14070W        W34350   4.988   1.914   1.457 -0.0322 -0.0923 -0.2390
14071W        W34351   8.566   3.246   4.228  0.1012 -0.3706  0.0597
14072W        W34352   3.226   3.285  13.662 -0.2574  0.1325 -0.3248
14073W        W34353  15.483   3.225   2.589  0.0270  0.2410 -0.0249
14074W        W34354   5.757   7.570   5.242  0.2108  0.0905  0.0761
14075W        W34355  15.754   6.154   2.637 -0.2160 -0.2245  0.3109
14076W        W34356   4.565  14.832   2.240 -0.0525 -0.1375 -0.1309
14077W        W34357   4.765  11.973  13.788  0.2398  0.0588  0.1048
14078W        W34358   6.663   6.798   2.555 -0.0766 -0.1494  0.0417
14079W        W34359  15.758   1.688  12.909 -0.1162  0.0825  0.0575
14080W        W34360   6.014   4.426   3.973  0.2749 -0.1378  0.0973
14081W        W34361   0.683  17.313   4.060  0.0569 -0.3376  0.2153
14082W        W34362   1.703   0.642   4.444  0.0113 -0.3289 -0.1227
14083W        W34363  16.346   1.108   0.930 -0.0152 -0.3153  0.0010
14084W        W34364  11.669  11.704  14.886 -0.1603 -0.3449 -0.2838
14085W        W34365  14.717  14.686   0.788  0.0825  0.1978 -0.0514
14086W        W34366   0.226  10.606  13.851  0.0999 -0.2255  0.0053
14087W        W34367  14.152  14.384   1.847  0.0291  0.0400  0.0244
14088W        W34368   0.222  10.588   4.183 -0.0265  0.2484  0.2259
14089W        W34369  11.537   2.708  16.607 -0.0339 -0.0491 -0.0721
14090W        W34370   6.557  15.627   2.657 -0.0608  0.4150  0.1800
14091W        W34371   6.938  15.939  12.358 -0.2226  0.0165  0.1264
14092W        W34372  11.836  14.797  13.255 -0.2919  0.0751 -0.1467
14093W        W34373  15.502   4.151   3.831  0.2356 -0.1059 -0.3016
14094W        W34374   7.736  12.807  14.568 -0.0334 -0.2743  0.2764
14095W        W34375  15.464   2.638   3.167  0.0050 -0.1980 -0.1707
14096W        W34376   5.655   1.718   0.888 -0.0614  0.0043  0.1540
14097W        W34377  13.516   8.828  15.969  0.2844  0.1357  0.1361
14098W        W34378  12.533   2.211  13.280  0.0283  0.1760 -0.0479
14099W        W34379   2.913   8.075   4.926 -0.1559 -0.0012  0.1617
14100W        W34380  16.315   7.346   4.682  0.0228 -0.1011  0.1269
14101W        W34381   0.834  11.201  16.340  0.0266 -0.3518 -0.1480
14102W        W34382  12.008   1.997   3.107 -0.1063  0.0385 -0.2223
14103W        W34383   3.357   2.130  12.397 -0.2675  0.0550  0.1491
14104W        W34384   7.705   9.863  14.179  0.0775 -0.1877 -0.1425
14105W        W34385  15.822  13.139   0.560  0.0293 -0.2628 -0.2975
14106W        W34386   7.164   2.606  12.886 -0.0790  0.0887  0.3012
14107W        W34387   0.978  14.779   4.966 -0.1138  0.0411 -0.0480
14108W        W34388   6.706  16.780  15.535  0.0218 -0.0659 -0.0503
14109W        W34389   6.121  15.586   3.915  0.0848  0.0074 -0.0328
14110W        W34390  14.128   2.981  15.497  0.0753 -0.3766  0.0685
14111W        W34391  16.276   5.526   2.042 -0.1228 -0.0306 -0.2067
14112W        W34392   7.928  15.586  13.723  0.0156 -0.0461  0.1840
14113W        W34393  15.054  14.206   0.077 -0.1608 -0.0474  0.0123
14114W        W34394  16.759  12.411   4.887 -0.0716  0.0812  0.1006
14115W        W34395  16.615  16.505  12.498 -0.1226  0.3451  0.2743
14116W        W34396  15.804   3.156   2.154  0.3082 -0.1107  0.1273
14117W        W34397   0.632  15.986   0.729  0.1727  0.0724 -0.0487
14118W        W34398  17.334  12.799   3.627 -0.3579 -0.0109 -0.0777
14119W        W34399   5.135   6.261   3.620 -0.0210  0.0267 -0.0729
14120W        W34400   4.256   3.951  13.998  0.1659 -0.1232  0.0965
14121W        W34401   4.838  17.305   1.326 -0.0221 -0.2191  0.2999
14122W        W34402  10.740   4.025  14.802  0.0375  0.0828  0.0644
14123W        W34403   3.087  12.046   0.356 -0.0074  0.3287  0.0127
14124W        W34404   1.057   5.818  13.459  0.2004  0.1718  0.0976
14125W        W34405   4.074  13.056   4.246  0.0775 -0.2703  0.4278
14126W        W34406  12.424  15.707  14.397  0.0102  0.0924 -0.1146
14127W        W34407  14.027   6.609   1.674 -0.1249  0.2154  0.1352
14128W        W34408  10.086  12.648  14.490 -0.0533 -0.2911  0.1703
14129W        W34409  10.286   1.717   0.937 -0.0035 -0.0423  0.0879
14130W        W34410  10.778   9.480  16.232 -0.1490  0.0959 -0.0968
14131W        W34411   0.168  14.340   1.305  0.1294  0.0756 -0.0753
14132W        W34412   7.088  13.275   1.075 -0.0999 -0.4877  0.0729
14133W        W34413   3.121  12.739   4.029  0.2163 -0.2668 -0.0078
14134W        W34414  16.764   8.811   4.190  0.1986  0.1806 -0.3467
14135W        W34415   9.479  17.723  12.499  0.1941  0.0722 -0.0062
14136W        W34416   7.213   7.343   1.107  0.1358 -0.1701  0.2569
14137W        W34417   1.975   5.269  13.883 -0.0643 -0.3524  0.1848
14138W        W34418   0.438   0.614  12.740 -0.0627  0.0950  0.0204
14139W        W34419   6.411  15.451  12.066 -0.3289  0.0299  0.1424
14140W        W34420  17.479  13.137  12.002 -0.3281 -0.1986  0.1567
14141W        W34421   9.789   6.189  16.665  0.1483  0.0916 -0.0450
14142W        W34422   0.395   9.705   3.676 -0.1132 -0.0014  0.2680
14143W        W34423   4.993  14.424  12.418 -0.1729 -0.1052 -0.2227
14144W        W34424  16.276   1.012  14.593  0.1549  0.1808 -0.1821
14145W        W34425   2.623   3.989  16.269 -0.0658  0.1287  0.0515
14146W        W34426  13.376  15.469   4.373 -0.0482 -0.1996 -0.0513
14147W        W34427  17.837  12.270  11.203 -0.0415 -0.0323  0.2545
14148W        W34428  17.892  15.649   3.965 -0.1239  0.1697  0.4309
14149W        W34429   2.312   7.417  14.206 -0.2349 -0.1141 -0.0854
14150W        W34430  15.322  13.418  12.748 -0.0444  0.3104  0.1304
14151W        W34431  14.043   3.197  13.340  0.1905 -0.1661 -0.0948
14152W        W34432  14.507  13.700   0.705 -0.2551 -0.0409 -0.2199
14153W        W34433  14.903  16.164  14.238 -0.0568  0.0371  0.2809
14154W        W34434   1.042  15.784   2.964 -0.3490 -0.0506 -0.3023
14155W        W34435  11.830  17.556  16.101  0.1049 -0.2165 -0.0710
14156W        W34436  11.175   6.612  13.993  0.2771 -0.1126 -0.3038
14157W        W34437   2.951   1.382  13.053 -0.0362 -0.0844 -0.2038
14158W        W34438  14.441  13.106   4.881 -0.1887  0.1324 -0.1108
14159W        W34439  17.287  15.707   0.551 -0.2104  0.1376  0.0927
14160W        W34440  11.458   2.337   1.557  0.0192  0.2060  0.1411
14161W        W34441  13.837   3.410   4.375 -0.3064 -0.0097 -0.0206
14162W        W34442   3.307   0.382   4.357  0.0439 -0.1094 -0.1078
14163W        W34443   9.834   0.015   3.829 -0.0098  0.2832 -0.2414
14164W        W34444  11.458   2.406  15.043 -0.0773 -0.1760  0.0718
14165W        W34445   3.880  17.256  11.915  0.1918 -0.1144  0.1652
14166W        W34446  13.509  14.457   3.005 -0.0652 -0.0075 -0.0497
14167W        W34447  10.218   2.427  14.845  0.2984 -0.1561 -0.2569
14168W        W34448  15.515  10.042   3.744 -0.1750 -0.1539 -0.4310
14169W        W34449  13.542   6.688   0.460 -0.2276  0.0685  0.1806
14170W        W34450  17.240   9.885  14.457  0.0084  0.0599 -0.0678
14171W        W34451   6.112  13.368  12.541  0.2394  0.0476  0.1417
14172W        W34452   5.385   3.318   0.093  0.1243  0.1242  0.1278
14173W        W34453  10.731   8.654   2.721 -0.1186 -0.3319 -0.2419
14174W        W34454   0.874  14.107   4.863 -0.0168  0.0817 -0.1621
14175W        W34455  16.671  11.883  15.887  0.2500  0.1405 -0.0630
14176W        W34456  13.245   0.146  12.278  0.3732  0.1123  0.2195
14177W        W34457   2.966  11.966   5.224  0.2336 -0.1621  0.0253
14178W        W34458   0.573  12.888  15.719  0.1216  0.1223 -0.0391
14179W        W34459   8.073   3.671  14.246 -0.1008 -0.2188 -0.0151
14180W        W34460   1.952   4.914  13.220  0.2470 -0.1041 -0.1084
14181W        W34461  17.196   6.243   0.525  0.0658  0.0363  0.0336
14182W        W34462   9.891   6.114   3.309 -0.4017  0.0524 -0.0719
14183W        W34463   0.525   1.863  14.693 -0.0553  0.1056 -0.2290
14184W        W34464   9.441  13.018   3.253  0.5547  0.1539 -0.2228
14185W        W34465  11.189  10.598  14.791 -0.1593 -0.0341 -0.3389
14186W        W34466  15.278  17.567  15.613 -0.0552  0.0060  0.0524
14187W        W34467   0.339   2.050  15.248  0.2335  0.2149 -0.1097
14188W        W34468   7.962   7.210  15.995 -0.0571 -0.0229  0.2839
14189W        W34469  13.095  15.103  15.695  0.0070 -0.0103  0.4290
14190W        W34470   1.052  13.305   3.500 -0.2351 -0.0727 -0.1939
14191W        W34471  12.596   1.582   3.804  0.2261  0.2180 -0.0746
14192W        W34472   8.957   1.104   0.038  0.0536 -0.1757 -0.1416
14193W        W34473  17.487  11.465  13.006  0.2253  0.1577  0.1642
14194W        W34474   5.604  14.081  13.683 -0.0756  0.0556 -0.0738
14195W        W34475   1.047  11.182   1.372 -0.7415 -0.1173  0.0056
14196W        W34476   5.840   0.818  12.264 -0.0426  0.1021  0.2569
14197W        W34477   8.590   2.415  13.577  0.2761  0.0967 -0.0710
14198W        W34478  14.003   0.173  12.905 -0.2606 -0.2272 -0.1229
14199W        W34479  17.860   2.967  13.164  0.0197 -0.0914  0.0113
14200W        W34480  11.562   4.088  13.160  0.1220  0.0999  0.3767
14201W        W34481  11.314   8.241   4.051  0.0470 -0.1834  0.0363
14202W        W34482   9.124   0.137   3.228  0.0406 -0.3394 -0.1757
14203W        W34483  11.409  17.981   4.033  0.0522 -0.3680 -0.2856
14204W        W34484  14.255   0.644   4.465  0.0633  0.0904 -0.2747
14205W        W34485   0.603   2.998   4.020 -0.0985 -0.2456  0.1279
14206W        W34486  16.036   4.316  16.335 -0.0159  0.1336 -0.2464
14207W        W34487   3.926   9.380   3.481  0.1123  0.0329 -0.2106
14208W        W34488   7.712   3.380  15.577  0.0891 -0.1279 -0.0448
14209W        W34489   7.110   9.923   2.531 -0.2099  0.2907  0.1542
14210W        W34490   9.835   9.825   0.773 -0.0362 -0.3529 -0.0573
14211W        W34491   5.147   1.634   1.029 -0.2227  0.0517  0.0294
14212W        W34492  16.442   7.176   4.180 -0.2223  0.0061 -0.1858
14213W        W34493   6.752   5.752  14.472  0.0866 -0.0882  0.0669
14214W        W34494  13.788  11.670   0.341  0.1086 -0.1389  0.2380
14215W        W34495  15.075   4.164  11.392  0.1152  0.1957  0.0456
14216W        W34496   4.530  13.400   2.379  0.0356 -0.3447  0.0196
14217W        W34497   2.354   4.571   4.454 -0.2132 -0.0251 -0.1418
14218W        W34498  12.302   4.623   1.301 -0.1506 -0.2738 -0.0032
14219W        W34499   7.216  13.830   2.292 -0.1495 -0.0526  0.2565
14220W        W34500  16.575   2.193   3.644 -0.2896 -0.2047 -0.0510
14221W        W34501  10.380  14.418   4.869 -0.1986  0.0333  0.0373
14222W        W34502  12.661   0.342  13.195  0.1046 -0.2058  0.1275
14223W        W34503  17.405  10.484  13.413  0.1444 -0.0842  0.0685
14224W        W34504  11.467   1.982   3.042 -0.0901  0.0885  0.2699
14225W        W34505  16.804   8.189  16.238 -0.2602 -0.1678 -0.2132
14226W        W34506  16.901   5.043   3.115 -0.3707  0.1852 -0.0391
14227W        W34507   7.891  11.166   2.908 -0.2142  0.0283 -0.0961
14228W        W34508  15.211  13.870  16.213  0.0583  0.1106 -0.4784
14229W        W34509  10.638  11.297  12.223 -0.1752  0.1290  0.2596
14230W        W34510  17.733  16.294   1.286 -0.1466  0.2288 -0.2721
14231W        W34511   5.606   1.816  15.791  0.0641 -0.0825  0.0827
14232W        W34512  17.698   0.662  13.379 -0.0922 -0.1174 -0.0306
14233W        W34513  12.014   9.546  12.891 -0.0946  0.0484 -0.1962
14234W        W34514   1.655   5.716  13.063 -0.3421  0.2182  0.6304
14235W        W34515   7.657   2.865   3.131  0.2576  0.0819  0.0730
14236W        W34516   8.031   9.256   2.912 -0.0485  0.0125  0.0940
14237W        W34517   9.355   9.843   4.294  0.1794  0.3846 -0.1579
14238W        W34518  17.138  11.978  14.195  0.3257 -0.0968  0.4158
14239W        W34519  11.271  15.062  13.801 -0.0117  0.1465 -0.0949
14240W        W34520   1.362   8.674  14.816 -0.0391  0.1403 -0.0775
14241W        W34521  13.377   9.416   2.696 -0.1018  0.0366 -0.0217
14242W        W34522  13.412  10.832  12.276 -0.0709 -0.3816 -0.0295
14243W        W34523   1.718   9.560   1.590  0.1384  0.1370  0.0989
14244W        W34524  14.577   4.831  11.905  0.2286  0.0990 -0.1028
14245W        W34525   0.756   5.661  12.171 -0.0400 -0.0479 -0.0438
14246W        W34526   2.879   2.292   4.453 -0.0459 -0.1789  0.1959
14247W        W34527   1.409   6.814   2.169 -0.2807  0.1855  0.1072
14248W        W34528   0.575   6.803   0.102 -0.1670 -0.0492  0.0450
14249W        W34529   7.627  17.685   0.405  0.0485  0.0661  0.0169
14250W        W34530  12.629   9.413  13.603 -0.0818 -0.0525  0.2228
14251W        W34531   9.492  12.046  14.708  0.1834  0.1803 -0.3601
14252W        W34532   7.982   9.761  16.392 -0.1266 -0.4423 -0.5247
14253W        W34533   1.224  10.256  14.118  0.0863 -0.1923 -0.0296
14254W        W34534  15.855  17.387   2.836 -0.2955 -0.3272  0.2353
14255W        W34535  17.808  11.833   4.029 -0.2847 -0.0172 -0.0199
14256W        W34536  13.966   0.856  15.687 -0.0247 -0.0654  0.1615
14257W        W34537   5.773   4.473  16.518 -0.3915 -0.0109 -0.0516
14258W        W34538   9.525   8.227  15.813 -0.1019 -0.0884  0.1311
14259W        W34539  13.257   1.273  13.472 -0.1430 -0.0300 -0.2891
14260W        W34540   1.261  10.273  12.153  0.1471  0.1329  0.0260
14261W        W34541  13.874  14.378  15.268 -0.0672 -0.0777  0.0451
14262W        W34542  11.662   0.003   1.287 -0.3094  0.1929 -0.0986
14263W        W34543  12.238  16.506   2.295 -0.3327 -0.2362 -0.2325
14264W        W34544   6.223  10.665  16.660 -0.3355 -0.0624 -0.1864
14265W        W34545   9.862   1.308  15.407  0.2375 -0.0848  0.3028
14266W        W34546  13.839  10.676   2.915  0.0049  0.2452 -0.1748
14267W        W34547   7.154  12.234  11.723 -0.0484  0.0051 -0.1062
14268W        W34548   2.242  13.203  12.222  0.2169 -0.0184  0.1169
14269W        W34549  13.704   6.916   3.465 -0.4094 -0.2017 -0.0249
14270W        W34550   1.511  13.449   4.443 -0.1709  0.0919 -0.2563
14271W        W34551  13.410   9.503   0.490 -0.1026 -0.1757  0.3300
14272W        W34552   2.823   0.519   0.702  0.2319  0.0179  0.0514
14273W        W34553  17.777   0.671   1.643 -0.3310  0.1051 -0.2527
14274W        W34554  16.286   5.324  15.443  0.2324 -0.0244  0.1147
14275W        W34555   7.394   9.926   2.113  0.2135  0.1199  0.2480
14276W        W34556  10.490   3.874  15.580  0.0302  0.2964  0.0353
14277W        W34557  10.919  12.383   2.068 -0.2237  0.1838  0.0189
14278W        W34558  14.902  15.861  15.150  0.0832 -0.1088  0.0366
14279W        W34559  11.394  15.843   1.525  0.5093 -0.2525 -0.0328
14280W        W34560   7.533   5.418  14.271  0.2323  0.3857  0.1362
14281W        W34561   4.315   6.944   0.461  0.2993 -0.0817 -0.0127
14282W        W34562  15.838   0.166  14.402 -0.0768  0.0610 -0.0004
14283W        W34563  12.606   2.912  13.949 -0.3304  0.0230  0.1486
14284W        W34564   3.528   4.561  11.299  0.2076 -0.0820  0.1171
14285W        W34565   9.047  17.503  15.421 -0.2218  0.0234  0.1487
14286W        W34566   7.116  13.344  15.183 -0.1395 -0.0431  0.1851
14287W        W34567  13.714   5.666  14.764 -0.1207 -0.2246 -0.0200
14288W        W34568  13.536  10.304  12.185  0.1933  0.0275 -0.2874
14289W        W34569  12.153  16.682  14.690 -0.2982 -0.1403 -0.0549
14290W        W34570  16.169   4.805   1.354 -0.0079 -0.1860  0.1305
14291W        W34571  12.632   4.434  14.921 -0.2436 -0.2373  0.1436
14292W        W34572  16.504  15.914  12.338  0.3412 -0.0173  0.3270
14293W        W34573   3.211   6.090   3.732  0.2449  0.0854  0.0809
14294W        W34574  16.689   4.114   0.809  0.1362 -0.1708  0.0954
14295W        W34575  10.067   4.379   4.417  0.0585  0.3471 -0.0329
14296W        W34576   7.228  17.877   0.648  0.0552 -0.2521 -0.2041
14297W        W34577  14.380   1.604  15.572 -0.1160  0.0921 -0.1359
14298W        W34578  13.857  15.125   4.172 -0.0252 -0.0619 -0.0443
14299W        W34579  16.703  10.863   1.738  0.0488  0.0003  0.0622
14300W        W34580  15.467  13.485   3.409  0.0082  0.1881 -0.1397
14301W        W34581  16.896  14.208  13.205 -0.2693 -0.1376  0.3164
14302W        W34582  17.318   5.608   0.369  0.0335  0.0647  0.1714
14303W        W34583   7.126  12.424  13.853 -0.0986 -0.0807  0.1929
14304W        W34584  13.966   0.153   1.038  0.0133 -0.3243 -0.0398
14305W        W34585   6.337   6.037  15.800 -0.1350 -0.1051 -0.2546
14306W        W34586   2.148  17.165  13.202  0.1790  0.0701  0.1112
14307W        W34587   5.637   4.904   1.244 -0.1511 -0.1694 -0.1683
14308W        W34588   5.544  13.340  13.103  0.2112  0.0619  0.0961
14309W        W34589   5.744   3.328  12.637  0.0632 -0.0811 -0.1710
14310W        W34590   6.853   4.180   2.370  0.2581 -0.2572  0.0560
14311W        W34591  11.422   0.469   4.064 -0.2436  0.1420 -0.0086
14312W        W34592  12.615   6.933   3.276  0.1342 -0.0609 -0.1152
14313W        W34593  14.285  17.894  15.561  0.1694  0.2030  0.2909
14314W        W34594  14.209   2.256  16.377 -0.1187  0.3713 -0.0912
14315W        W34595  15.153  11.693  13.749 -0.0367 -0.0310 -0.0774
14316W        W34596   2.129   7.627   5.592 -0.1969 -0.1358 -0.0262
14317W        W34597   8.112  15.746  16.152 -0.1073 -0.0608 -0.0803
14318W        W34598   8.909   1.871   0.772 -0.0556 -0.1244  0.2951
14319W        W34599   2.150  11.852  15.981 -0.4744  0.0728  0.2346
14320W        W34600   7.392  16.543  15.207  0.1855 -0.0385 -0.0858
14321W        W34601  13.571  13.042   3.118  0.1720  0.2153  0.1311
14322W        W34602   9.582   1.299  15.980 -0.1382  0.1089  0.4442
14323W        W34603  16.059  14.124  15.765 -0.2851 -0.2465  0.3297
14324W        W34604   7.619   1.242   4.147 -0.4038 -0.2157 -0.3112
14325W        W34605   7.490  14.763   2.489 -0.0416 -0.0777  0.1722
14326W        W34606  14.399   6.074   2.290  0.1186 -0.1510  0.1792
14327W        W34607   6.979  14.652  16.217  0.0640  0.2134  0.0422
14328W        W34608  11.724  11.358   0.694  0.3691 -0.0459 -0.0292
14329W        W34609  13.835   3.807  12.540  0.0044  0.1255  0.0990
14330W        W34610   0.531   0.107  14.221 -0.2861  0.0934  0.2170
14331W        W34611   2.507  13.994   0.591  0.0901 -0.2746  0.2307
14332W        W34612   3.414   5.226  13.049 -0.0188 -0.5182  0.2015
14333W        W34613  14.221   6.140   1.826 -0.0148 -0.0612 -0.3219
14334W        W34614  14.126  16.522  15.772  0.0036  0.2048 -0.0116
14335W        W34615   0.883   3.315   2.949 -0.1487 -0.0067 -0.2337
14336W        W34616   6.097   7.896  15.052 -0.3061 -0.1311  0.1317
14337W        W34617  13.974  13.727  11.990  0.3464 -0.1571  0.0900
14338W        W34618  15.696   5.771   4.235  0.0202 -0.2094 -0.2079
14339W        W34619   8.346   9.953  14.089  0.0640 -0.0914  0.2050
14340W        W34620   9.880   0.261  13.106 -0.2701  0.1228  0.0212
14341W        W34621  12.279   7.769  14.648  0.0734 -0.5652 -0.0787
14342W        W34622   8.787   6.537  15.673  0.2404  0.3933 -0.1413
14343W        W34623  12.753   5.863   3.548 -0.2403 -0.0964 -0.0294
14344W        W34624   9.091   9.104  15.334 -0.1527 -0.0030  0.2057
14345W        W34625   2.030  13.385  13.837 -0.0363  0.2239  0.1836
14346W        W34626  12.477   5.476  14.944 -0.0412  0.1337 -0.3308
14347W        W34627   0.846   4.183  15.647  0.1638 -0.1191  0.0976
14348W        W34628   4.433   3.735   1.678  0.0166  0.0388 -0.2604
14349W        W34629   8.453   9.731  13.071  0.4934  0.3213  0.1876
14350W        W34630   0.385  13.169  13.180  0.2086 -0.0278  0.0181
14351W        W34631  14.468  12.454  16.671 -0.0130 -0.1250 -0.2893
14352W        W34632  14.651  12.284  13.185  0.0021 -0.0050 -0.1008
14353W        W34633   8.119   4.042  16.670  0.1325  0.0118 -0.2547
14354W        W34634   2.425  13.877   5.015 -0.1989  0.1996  0.0011
14355W        W34635   1.556  10.392   4.870 -0.1572  0.0707  0.0078
14356W        W34636  12.162   5.565   3.082 -0.1697 -0.0891  0.4377
14357W        W34637   1.387   8.384  16.229 -0.2459 -0.0075 -0.0758
14358W        W34638  17.909  14.904   2.902 -0.1041 -0.3907 -0.1813
14359W        W34639  11.996   8.790  15.049  0.0870 -0.1766 -0.0187
14360W        W34640  14.930   6.659   0.590  0.1321 -0.1531  0.1599
14361W        W34641   5.749  11.810  12.155 -0.3486 -0.2721  0.0907
14362W        W34642   9.650  14.775   3.617 -0.1170  0.0031 -0.0004
14363W        W34643   1.683  15.173   4.502  0.2391  0.0682  0.0273
14364W        W34644  17.852   9.875   3.678  0.2112  0.0197  0.4296
14365W        W34645   2.990   6.668  16.452  0.0953 -0.0881  0.0358
14366W        W34646   0.873   1.740   2.658  0.1309 -0.1848 -0.1181
14367W        W34647   1.107   3.952  12.878 -0.1427  0.0372 -0.1484
14368W        W34648   3.746   0.838  16.043 -0.2023 -0.0919  0.2193
14369W        W34649  10.603   1.333  16.426 -0.1833 -0.2277  0.0121
14370W        W34650   0.720   6.130  15.339 -0.2248 -0.0161 -0.0543
14371W        W34651   4.197  10.433   2.660  0.2217  0.2526 -0.1976
14372W        W34652   2.451  15.226  15.057 -0.0716  0.0363  0.1193
14373W        W34653   6.497   8.914   0.647 -0.3199  0.0424  0.3276
14374W        W34654   5.705   9.912   2.950 -0.1992 -0.0654  0.1087
14375W        W34655  15.621   0.415  16.077  0.1115  0.1269 -0.1016
14376W        W34656  14.278   0.637  16.004  0.0931  0.0332  0.3955
14377W        W34657   1.231  10.679   1.366 -0.1272 -0.2202 -0.0031
14378W        W34658  13.969  12.620   2.783 -0.0482  0.1015 -0.2679
14379W        W34659   9.026   5.150  11.788 -0.0951 -0.1137 -0.3026
14380W        W34660  13.990   8.775  15.673  0.0251 -0.0123  0.1009
14381W        W34661  10.834   9.003   4.875  0.2248  0.2070  0.1703
14382W        W34662   8.776  14.743  13.303  0.1396  0.1123 -0.1247
14383W        W34663   4.779   4.255  13.370 -0.1792 -0.0147  0.0417
14384W        W34664   8.400   1.052   4.545  0.0502  0.3333 -0.1683
14385W        W34665  16.433  12.582   4.538 -0.2204 -0.0881  0.1205
14386W        W34666  12.859  11.496  15.388  0.0265  0.0238 -0.2668
14387W        W34667   3.097   9.542  16.020  0.2069 -0.4752 -0.0757
14388W        W34668  10.262   9.546   1.608  0.1142  0.0021  0.2936
14389W        W34669  15.300   6.443   1.500  0.1890  0.0250  0.1503
14390W        W34670   7.197  11.183   4.875  0.0587  0.1153  0.2859
14391W        W34671  12.821  12.737   0.992  0.2395  0.0621  0.0090
14392W        W34672  17.216  16.386   1.126 -0.0004  0.3554 -0.1133
14393W        W34673  12.708   1.601   0.126  0.1250 -0.2964  0.0124
14394W        W34674   1.499   2.699   2.834  0.2681 -0.1667 -0.0732
14395W        W34675   5.635   9.669   4.810  0.0568  0.4344 -0.0216
14396W        W34676   6.876   6.616  16.499  0.2371 -0.5152  0.1471
14397W        W34677   7.326   0.375  11.905 -0.1196  0.0152 -0.1477
14398W        W34678   1.997  13.114  13.419  0.0699  0.0754 -0.0858
14399W        W34679   8.511   6.444  16.125  0.3088  0.3329 -0.1099
14400W        W34680   9.103   3.998   2.461  0.1713 -0.1795  0.2391
14401W        W34681  11.863   6.416   3.913 -0.0691 -0.0824  0.1781
14402W        W34682  15.335  12.615  12.023  0.1808 -0.1860 -0.1607
14403W        W34683  12.974  10.526   0.158 -0.2986 -0.0917  0.4981
14404W        W34684  10.103  12.383  14.039 -0.3357  0.0897  0.3406
14405W        W34685  12.120  10.649  12.809  0.0424  0.2709  0.1280
14406W        W34686  11.821   5.519   0.691 -0.2116  0.1874 -0.1282
14407W        W34687  15.494   1.337  15.710  0.1780  0.0031  0.0097
14408W        W34688  17.276   6.658   0.186  0.0411 -0.0516  0.2007
14409W        W34689   2.405  15.451   3.150  0.1568 -0.1399  0.0051
14410W        W34690  14.351   3.328  13.968  0.0080 -0.0466 -0.2343
14411W        W34691   2.105  13.163   0.820 -0.0332 -0.1443 -0.0998
14412W        W34692   6.909   2.994   2.315 -0.2190 -0.0573  0.0701
14413W        W34693   3.346  16.069  12.322  0.3679  0.2987  0.1367
14414W        W34694   0.873   7.294  14.542 -0.0653 -0.0291  0.1199
14415W        W34695   9.053  11.019  14.593  0.0362 -0.1180 -0.0843
14416W        W34696   9.357  13.363  14.865 -0.1068  0.0682  0.0333
14417W        W34697  15.429  17.610  12.535  0.0735  0.0854 -0.0431
14418W        W34698  10.093  13.533   4.870  0.1452 -0.3027  0.2251
14419W        W34699  14.619   2.563   2.693 -0.2082 -0.3578 -0.0153
14420W        W34700  12.451  16.368   1.636  0.1621 -0.3393  0.2517
14421W        W34701   3.943  12.656   0.279 -0.0440 -0.2218  0.2165
14422W        W34702  16.335   2.079  14.315  0.0263 -0.3882  0.0436
14423W        W34703  14.481   9.516   3.583 -0.0403  0.3140  0.1658
14424W        W34704   0.961  11.228  14.296 -0.1667 -0.1992  0.2578
14425W        W34705  13.162   6.747   1.084 -0.0509  0.0157  0.3306
14426W        W34706   0.908   6.465  12.516 -0.0916  0.2746  0.0904
14427W        W34707  12.283   6.447  14.055  0.2554 -0.1746 -0.2014
14428W        W34708  12.012   9.741   0.270 -0.2746  0.1898  0.0824
14429W        W34709   0.477   5.114  14.671  0.1228 -0.0249  0.0495
14430W        W34710   3.602   4.735   1.495  0.0879 -0.0672  0.0758
14431W        W34711   5.568   5.937   4.236 -0.0115 -0.1120 -0.1705
14432W        W34712  12.988  12.702   4.023  0.2545 -0.0406 -0.3322
14433W        W34713   4.765  13.194  12.523 -0.0712 -0.4358 -0.0303
14434W        W34714  16.855   0.642   4.375  0.1740  0.1509 -0.1511
14435W        W34715   0.236   5.535  14.706 -0.2484  0.2861  0.5104
14436W        W34716  16.243   1.943   2.055 -0.2040  0.5558  0.0810
14437W        W34717   5.296  11.721  16.618 -0.0588  0.0785 -0.2259
14438W        W34718   0.638  16.120   4.123 -0.1796  0.0266 -0.1570
14439W        W34719   9.268  12.946  12.677 -0.0474 -0.4387  0.1043
14440W        W34720   3.253  17.949   2.101 -0.1124 -0.0109  0.1657
14441W        W34721   3.695   1.666  13.144  0.1080 -0.0300  0.0678
14442W        W34722   2.078   8.241   3.179 -0.0553 -0.0318 -0.0083
14443W        W34723   0.142   1.336   2.414  0.0051  0.0546  0.0620
14444W        W34724   7.821   6.658   2.768  0.0651 -0.1408 -0.0756
14445W        W34725   1.699  17.044  15.481  0.0016 -0.0228  0.1418
14446W        W34726  12.868   6.367  11.822 -0.2448 -0.1974 -0.1140
14447W        W34727  11.697   1.648   3.364  0.2189 -0.3281  0.0325
14448W        W34728  10.711   3.013  16.419 -0.0332  0.0987 -0.1622
14449W        W34729  11.110   4.564  15.612 -0.0155 -0.5522 -0.2501
14450W        W34730  11.603   6.848   4.518 -0.0757 -0.0753  0.3815
14451W        W34731   9.575  10.303   2.042  0.2144 -0.0358 -0.0603
14452W        W34732   9.345   5.058   2.784  0.0743  0.1279 -0.2003
14453W        W34733   4.233   4.170   0.207 -0.0785 -0.2489  0.2819
14454W        W34734  14.337   6.151   0.728  0.1246  0.2044  0.1587
14455W        W34735  12.223   1.777  12.516 -0.3186  0.1312 -0.3054
14456W        W34736  15.870  16.751  14.702  0.2315 -0.1406  0.0919
14457W        W34737   1.242   1.746   0.772 -0.1944  0.3447 -0.0874
14458W        W34738  16.447   6.686  15.266 -0.0148 -0.0212  0.5232
14459W        W34739   3.226   8.429  13.650 -0.0431 -0.2360 -0.0844
14460W        W34740   0.493  12.691  13.045 -0.0332  0.2910  0.4491
14461W        W34741  10.705  14.601  16.377  0.0279  0.1644  0.3094
14462W        W34742   0.167  17.764  14.333  0.3528 -0.1286  0.2184
14463W        W34743  11.877   4.090  12.594 -0.0072  0.1450  0.1249
14464W        W34744  15.209  14.267   2.516  0.0696  0.0892  0.0315
14465W        W34745  15.848  11.249   4.976 -0.0061  0.0483 -0.2685
14466W        W34746   7.128  17.393  12.181 -0.2067 -0.5161 -0.0156
14467W        W34747  16.430   0.412   1.566 -0.2895 -0.2986 -0.2795
14468W        W34748   4.096  13.653  12.441 -0.0361 -0.1428 -0.0061
14469W        W34749   7.781   1.461  14.144 -0.0996 -0.1273  0.0282
14470W        W34750   7.100  10.712   5.003 -0.2078 -0.1305  0.0095
14471W        W34751  16.536   2.130  15.242 -0.1003  0.3967 -0.0223
14472W        W34752   8.467   4.747   3.666  0.1225 -0.0298  0.1278
14473W        W34753   1.751   7.242   1.446 -0.0761  0.1228 -0.0250
14474W        W34754  12.015  10.241   3.537  0.2245  0.1769  0.0229
14475W        W34755   0.697  12.236   4.723  0.0537  0.0610 -0.0432
14476W        W34756  14.700   1.186  15.330 -0.1212  0.2355  0.4083
14477W        W34757   4.704   7.710   4.732  0.2500  0.2163  0.0084
14478W        W34758   3.410  17.857   3.222  0.0287 -0.1049 -0.0853
14479W        W34759  15.209   1.373  16.213  0.1833 -0.0612  0.0832
14480W        W34760   8.799   8.709  15.534  0.1840 -0.1367 -0.2290
14481W        W34761   7.097  14.795   3.351  0.0774 -0.1206 -0.1955
14482W        W34762  12.528   2.962   0.037  0.0304  0.0504 -0.1654
14483W        W34763   1.989   5.994  14.438 -0.1084 -0.0009  0.1095
14484W        W34764   5.234   4.728  14.945 -0.2578  0.1202 -0.0305
14485W        W34765   9.443   7.461   3.600 -0.2195  0.1792 -0.2006
14486W        W34766  10.627   5.627  11.623 -0.0174  0.2166 -0.3564
14487W        W34767  15.559   0.246   1.405  0.0745 -0.0862 -0.1000
14488W        W34768  15.644   0.197   1.941 -0.0309 -0.0531  0.0563
14489W        W34769  15.534  14.843   0.541 -0.1147 -0.2997  0.2540
14490W        W34770  15.043   3.022  12.244 -0.0495 -0.1020  0.3995
14491W        W34771   2.203  16.851   3.246  0.0246 -0.3468 -0.0788
14492W        W34772  13.284   0.582  13.291 -0.1052 -0.1421  0.0755
14493W        W34773   2.514   8.350   4.624  0.1115  0.1775 -0.1772
14494W        W34774   8.682   1.421  15.208  0.1333  0.3217  0.0905
14495W        W34775  16.984   3.817  15.656  0.3326  0.2290  0.1675
14496W        W34776   0.105   6.270  16.350  0.2009 -0.0730 -0.0866
14497W        W34777  16.142  12.904   4.266  0.0034  0.1738  0.0990
14498W        W34778   2.904  12.732  12.925  0.0820 -0.0856 -0.3296
14499W        W34779  17.580   7.321  12.647  0.1246  0.0368 -0.2348
14500W        W34780   1.026   6.112   2.745  0.1115  0.2066 -0.1447
14501W        W34781   0.625   2.403   3.266  0.2031  0.0118 -0.2245
14502W        W34782   4.122   8.683  13.110  0.2988  0.1480 -0.0821
14503W        W34783   6.790   0.335   3.295  0.0546  0.0935  0.0980
14504W        W34784   9.436   4.525   3.740  0.3604  0.2180  0.0806
14505W        W34785   7.813   0.435   2.026 -0.0420  0.0957 -0.0546
14506W        W34786   8.509  12.091  16.047  0.1583  0.3093 -0.0099
14507W        W34787   9.138   7.068  13.864  0.0871  0.1848  0.2108
14508W        W34788   3.803   9.159   1.004  0.2357 -0.0677  0.1828
14509W        W34789   3.879   8.733  14.337 -0.2612 -0.5275 -0.1587
14510W        W34790  17.270   4.863  16.581 -0.1062 -0.0753 -0.1672
14511W        W34791  12.165  15.327   3.541  0.1036  0.0306 -0.0437
14512W        W34792   6.048   8.231   0.885 -0.1505 -0.1373 -0.4001
14513W        W34793   7.885   7.870  14.971  0.0786 -0.1333  0.3868
14514W        W34794   7.658  10.580   1.466 -0.1354  0.0102  0.0759
14515W        W34795  17.574   3.376   4.500  0.0696 -0.4063 -0.2419
14516W        W34796  11.443  13.537  15.917  0.1226  0.1216  0.1622
14517W        W34797   7.630   8.965  15.675  0.1396 -0.1849  0.0972
14518W        W34798   2.702   0.197  16.659  0.1605  0.1564 -0.0274
14519W        W34799   5.561   1.890  14.037  0.0633  0.1914  0.4000
14520W        W34800   9.505  10.043  16.159 -0.0211 -0.0336 -0.2803
14521W        W34801   9.375   8.540   2.956  0.0423  0.1306  0.2143
14522W        W34802  15.756  11.267  15.945  0.1363  0.2388 -0.0942
14523W        W34803  16.484  16.933   1.610 -0.0354  0.2073 -0.1153
14524W        W34804  17.241   9.548  14.093  0.1779  0.2269  0.1043
14525W        W34805   8.836  10.739   0.590 -0.1461 -0.0285  0.2562
14526W        W34806  16.787   4.639   2.023 -0.0443 -0.0771 -0.2331
14527W        W34807  10.156  10.214   2.837  0.2993  0.0640  0.3473
14528W        W34808  10.295   5.855  11.937  0.1440  0.3339 -0.2565
14529W        W34809   7.683   7.566   2.844  0.3555 -0.1846 -0.0385
14530W        W34810  12.986  13.229   5.257 -0.1484 -0.1979  0.1876
14531W        W34811  16.802  13.429  13.980 -0.0178 -0.0103 -0.2637
14532W        W34812  11.304  15.402  12.022  0.0756 -0.0647  0.2230
14533W        W34813  15.891   9.096   1.035  0.1172 -0.1238  0.0036
14534W        W34814  15.168   2.493  12.583  0.0452 -0.1223  0.2707
14535W        W34815   9.658   2.836   2.679  0.2716  0.1895  0.1055
14536W        W34816  13.798  13.458  13.239  0.1385  0.4990  0.1017
14537W        W34817   1.933  14.118  16.394 -0.1379  0.0284  0.1805
14538W        W34818  14.467   4.001   0.549  0.0548 -0.2628  0.2173
14539W        W34819  14.840   6.042   4.079 -0.1721  0.1474  0.0218
14540W        W34820   4.958  14.397  15.883 -0.2412 -0.0609 -0.0826
14541W        W34821  10.352  12.573   1.249 -0.1993  0.0128  0.0520
14542W        W34822  15.963   1.591  16.503 -0.3267  0.1590  0.0269
14543W        W34823  12.741  16.227  13.003  0.2396 -0.3031 -0.2631
14544W        W34824  13.095  14.038   0.575  0.0754  0.0177  0.1890
14545W        W34825  15.534   0.468   3.647 -0.1508 -0.2554 -0.1470
14546W        W34826   7.867   6.927   4.352 -0.3724  0.1579 -0.0340
14547W        W34827  11.351   3.818   1.798  0.1233  0.0791  0.3618
14548W        W34828  10.347  10.981  13.738  0.2018 -0.0240  0.2488
14549W        W34829  16.886   1.952   3.177 -0.3701 -0.2980  0.1707
14550W        W34830   7.687  16.751   0.161  0.0254 -0.2164 -0.0956
14551W        W34831  12.984  17.608  15.200 -0.3731 -0.0849  0.4038
14552W        W34832  14.779  15.193   4.245  0.0504 -0.1714 -0.2609
14553W        W34833   1.525   5.560  16.452 -0.3269  0.0461 -0.0860
14554W        W34834  10.650   6.523  12.611  0.0463 -0.3685  0.1754
14555W        W34835  13.473  12.346  13.963 -0.1031  0.2451 -0.0888
14556W        W34836   6.010   4.383   1.850 -0.0396  0.1886 -0.1427
14557W        W34837  17.450  14.076   5.011  0.0182 -0.0393  0.0137
14558W        W34838   9.799   5.420  14.953  0.1974  0.1519 -0.0619
14559W        W34839   4.452  13.735   0.401 -0.0698 -0.0839 -0.2344
14560W        W34840  17.429   3.238  15.034 -0.1274  0.0989 -0.0593
14561W        W34841  13.764   0.652  13.351 -0.0047 -0.0885  0.5702
14562W        W34842  15.441   2.184   0.017 -0.1826 -0.0622 -0.2882
14563W        W34843   6.050   2.179  13.865 -0.1162  0.3283 -0.0787
14564W        W34844  10.693  11.606   1.599 -0.1269 -0.1927  0.0600
14565W        W34845  11.905   1.625   1.848  0.1097  0.2989  0.1633
14566W        W34846  10.684  15.945   0.039 -0.2762 -0.2067  0.1029
14567W        W34847   8.300  12.979   3.995 -0.1035  0.0779 -0.2854
14568W        W34848  17.318   3.310   1.753  0.0458  0.1728 -0.1991
14569W        W34849   1.083   8.067  11.776 -0.2005  0.1568 -0.1530
14570W        W34850   2.509  11.578  16.562 -0.3337 -0.2252 -0.1095
14571W        W34851   1.315  11.690   3.839 -0.2924  0.0477 -0.0561
14572W        W34852   9.804   1.531   2.386  0.0340 -0.5400  0.3012
14573W        W34853  13.369  10.229  14.228  0.0174 -0.1655  0.1032
14574W        W34854  10.727   2.616  12.260  0.2419 -0.3430 -0.0085
14575W        W34855   2.384   6.165  13.133 -0.0649 -0.0015  0.1144
14576W        W34856  11.191   7.651  12.444  0.0502  0.2678  0.0226
14577W        W34857   4.261  12.788   4.714  0.3625  0.1599  0.1514
14578W        W34858  12.822   1.819  11.414 -0.0523  0.2253 -0.1074
14579W        W34859   2.830   9.479  14.814  0.0836 -0.0929  0.0716
14580W        W34860  13.615   1.444  16.307  0.2082 -0.1477 -0.0517
14581W        W34861  14.443   9.567  16.302 -0.1483 -0.0412  0.0201
14582W        W34862   5.727   6.177  15.598  0.1623  0.2700 -0.0316
14583W        W34863   8.629  15.850   0.335 -0.0179  0.0311  0.1741
14584W        W34864  12.571  10.228   1.255 -0.0667 -0.1108 -0.1874
14585W        W34865  16.753  12.019   2.311 -0.1332 -0.0185 -0.1881
14586W        W34866  12.258   9.293   1.093 -0.1547  0.0630  0.1332
14587W        W34867   2.541   0.323  11.766  0.2118 -0.1567  0.2734
14588W        W34868  16.535   9.204   1.483 -0.1008  0.1158 -0.0613
14589W        W34869  15.583   3.843  16.695  0.0729 -0.0172  0.0492
14590W        W34870   1.941   0.566   1.671 -0.1352  0.0681  0.1972
14591W        W34871   5.327   9.349   0.512  0.2942 -0.1853 -0.0923
14592W        W34872   3.278   8.705   4.551 -0.1366  0.1253 -0.2158
14593W        W34873  13.928  15.180   3.658  0.0372 -0.1114 -0.0254
14594W        W34874   3.295  11.470  13.745 -0.0379  0.1712 -0.0311
14595W        W34875   5.516  13.647   3.026  0.3771  0.1227  0.1986
14596W        W34876   4.927   8.156  14.917 -0.0715 -0.0336 -0.0302
14597W        W34877  17.641  16.716  16.367  0.0664  0.1340 -0.0775
14598W        W34878  15.927   5.456  15.917  0.4751  0.0982  0.2847
14599W        W34879  17.979  14.191   5.176 -0.1393  0.0444  0.0595
14600W        W34880   7.791   3.248  13.330  0.1012  0.0918 -0.0871
14601W        W34881   1.271   0.463   4.273 -0.0038 -0.0879  0.0754
14602W        W34882   0.661  13.319   2.890 -0.2844 -0.0113  0.2066
14603W        W34883   7.358  12.695   4.868  0.1671  0.2303  0.2170
14604W        W34884  16.633  15.072   2.078 -0.1143  0.1469 -0.1454
14605W        W34885  12.342   3.620   1.227  0.1170  0.0219 -0.0275
14606W        W34886   8.620   5.237  14.988 -0.1744  0.0631  0.1622
14607W        W34887  12.817   7.581   3.605 -0.1690  0.3313  0.1240
14608W        W34888   2.682  13.211   1.752 -0.1500  0.2527  0.0526
14609W        W34889  12.770   9.093   1.040  0.1103  0.0733  0.0356
14610W        W34890   1.772   3.375   1.522  0.2070 -0.3096  0.0781
14611W        W34891   0.053  13.601   0.802 -0.3070 -0.1070 -0.5798
14612W        W34892   0.406  12.830  14.829 -0.0310 -0.1906 -0.0770
14613W        W34893   3.453   0.232  14.206 -0.0525  0.1891 -0.0807
14614W        W34894   0.077   5.505   2.219 -0.0912  0.1024  0.0832
14615W        W34895   7.623   5.864   1.838  0.3701  0.0987 -0.0817
14616W        W34896   5.268   4.913   3.879  0.1957 -0.4122 -0.0330
14617W        W34897  11.700   7.738  14.805 -0.0097  0.2845  0.2364
14618W        W34898   6.125  17.083  15.259 -0.2230  0.0694  0.0055
14619W        W34899  13.185   3.245  14.470 -0.4446  0.0103  0.0422
14620W        W34900   3.968   7.475  13.611  0.0079  0.3609  0.1263
14621W        W34901   3.893  16.197  16.645 -0.3927  0.2899  0.3966
14622W        W34902  16.647   8.034   0.415  0.2043  0.3445  0.1898
14623W        W34903  15.259   0.960   1.841 -0.1478 -0.2437 -0.2217
14624W        W34904  13.682  13.711   3.783  0.2107 -0.1701  0.2170
14625W        W34905  16.901  14.758   2.480 -0.2458 -0.2678 -0.0207
14626W        W34906  10.668   5.813  14.356  0.3763 -0.1209 -0.0399
14627W        W34907   1.540   7.802  12.443  0.2329 -0.0738 -0.1189
14628W        W34908   6.185   2.151  15.312 -0.0493 -0.2999  0.2443
14629W        W34909   1.673   0.244   2.931  0.1593  0.0540  0.0245
14630W        W34910   1.344  15.822   2.434 -0.0199 -0.1091  0.1946
14631W        W34911   9.426  11.558   3.903  0.1296  0.1123  0.0157
14632W        W34912  17.065  17.246  12.552  0.2537 -0.2148 -0.0528
14633W        W34913   5.227  12.260  12.220 -0.0971  0.4104  0.0545
14634W        W34914  12.908  10.156   3.631 -0.0920  0.2112 -0.1888
14635W        W34915   2.156   9.526   5.156 -0.1425  0.0509  0.3803
14636W        W34916  16.231   9.652   1.908 -0.2373 -0.0211  0.0139
14637W        W34917   9.859  11.721   4.563  0.0268  0.1430  0.1307
14638W        W34918   2.030   6.598   0.597 -0.0644  0.3373 -0.0429
14639W        W34919   8.466  17.633  13.683  0.0780 -0.1851  0.1323
14640W        W34920  15.753  10.765  13.251  0.0913  0.1349 -0.0433
14641W        W34921  11.027  17.764  14.174 -0.0870 -0.0765 -0.0266
14642W        W34922   3.309   4.939  14.402 -0.0529 -0.2136  0.3991
14643W        W34923  15.074   0.659   2.226 -0.0588  0.1144 -0.1694
14644W        W34924   2.578  17.452   3.221 -0.3084  0.0450  0.0633
14645W        W34925  16.804  17.713  15.883 -0.2212  0.1332 -0.0296
14646W        W34926  13.753   6.467  12.197  0.2181 -0.1004 -0.2523
14647W        W34927   0.424  11.045  12.740 -0.0401  0.1733  0.0728
14648W        W34928   2.915  17.561   4.326  0.4514 -0.0626  0.5547
14649W        W34929   1.455   0.341  13.880 -0.0995 -0.1242  0.0624
14650W        W34930   5.700   6.247   4.637 -0.1990  0.0209 -0.0719
14651W        W34931   0.152   2.915  13.692 -0.0068  0.0016 -0.1530
14652W        W34932  13.716  14.110   1.879 -0.0533  0.1028 -0.0048
14653W        W34933   2.776   3.159  16.453 -0.1447 -0.2619  0.0513
14654W        W34934  12.599  14.128  12.900 -0.2921  0.1717 -0.0980
14655W        W34935  13.890   0.593  11.936  0.0361  0.1152  0.1229
14656W        W34936  16.973  12.774  14.456  0.0667  0.0657  0.1025
14657W        W34937   5.929  12.122  16.106  0.0812  0.2298 -0.2573
14658W        W34938   2.599   2.678   2.248 -0.0281  0.0080 -0.0807
14659W        W34939   2.845   6.285  12.941 -0.0010  0.0377 -0.0383
14660W        W34940  17.663  15.281   2.656  0.0880  0.2889  0.1981
14661W        W34941   2.839   5.834  12.788  0.1590 -0.1601 -0.0186
14662W        W34942   8.510   4.550  12.439  0.1146 -0.0813  0.1122
14663W        W34943  12.065  10.467   0.553  0.0692  0.2034  0.0340
14664W        W34944   0.114  16.856   3.359  0.0654  0.1365  0.0524
14665W        W34945   8.544  10.581   2.610 -0.3164 -0.2229  0.1289
14666W        W34946   9.746   0.947   0.072 -0.2836  0.2287 -0.1585
14667W        W34947  13.862  17.479   0.097  0.0299 -0.1641  0.0706
14668W        W34948   6.283   8.221   2.886  0.4121  0.1404 -0.0419
14669W        W34949   6.140   1.114   4.617 -0.1219  0.0627 -0.2507
14670W        W34950   0.085  14.821  13.488  0.1760 -0.2964  0.0681
14671W        W34951   9.477   4.126   3.422  0.0300  0.0321 -0.0645
14672W        W34952  14.456   1.765   2.253 -0.1302 -0.2575  0.3083
14673W        W34953   7.263  17.885   2.616 -0.0549 -0.0105  0.0561
14674W        W34954   8.874  11.492  15.726 -0.1745 -0.0551  0.1711
14675W        W34955   9.078   5.080   0.977  0.1743 -0.0493 -0.0130
14676W        W34956  12.055  13.713  12.367  0.0726  0.1757  0.2366
14677W        W34957  11.855   0.373  11.680 -0.0295 -0.1637 -0.1167
14678W        W34958  17.306   9.317  12.620 -0.0538 -0.0451 -0.1155
14679W        W34959  17.649   2.655  14.375  0.1535  0.0005  0.0581
14680W        W34960  14.947   5.871  11.888  0.2763 -0.0972  0.1556
14681W        W34961  14.894   6.922  15.880 -0.2518 -0.0075 -0.0614
14682W        W34962  15.581  10.314   0.587 -0.0630  0.4837  0.1159
14683W        W34963  15.775   6.380   0.644  0.1186  0.1856  0.2113
14684W        W34964   8.640   4.404  11.858 -0.0291 -0.2259  0.0843
14685W        W34965   4.797  13.230   3.692 -0.0355  0.2051 -0.1160
14686W        W34966   0.987  10.627   0.909  0.0276 -0.2126 -0.0282
14687W        W34967  17.613  17.113  16.009 -0.1824  0.1310 -0.1151
14688W        W34968  10.367   9.454  12.581 -0.0860  0.0368 -0.0833
14689W        W34969  17.318  12.706  13.996  0.0947  0.0160 -0.2112
14690W        W34970   9.760  16.713  15.823 -0.0624 -0.1778  0.3135
14691W        W34971   1.843  13.313   3.293 -0.1793  0.0044  0.0331
14692W        W34972   4.740  15.440  12.513  0.0363  0.3285 -0.0368
14693W        W34973   4.109   9.188   1.885 -0.0900  0.0750  0.0165
14694W        W34974   0.353   9.382  12.825  0.0798  0.0415 -0.3804
14695W        W34975  14.095  12.355  13.862 -0.1426  0.0088 -0.0637
14696W        W34976  13.272  12.693   2.282 -0.0649  0.1781  0.0112
14697W        W34977   9.947  13.033   3.616  0.1176  0.0338 -0.2016
14698W        W34978  14.954   5.176   2.978  0.0591  0.1459 -0.0388
14699W        W34979   2.116   1.011   5.797  0.3610  0.2691 -0.3048
14700W        W34980  17.714   6.451  14.805  0.0752  0.1139 -0.0675
14701W        W34981   1.425   4.075   4.367  0.2108  0.1100  0.2142
14702W        W34982   0.351  13.685  16.074 -0.1123 -0.0300 -0.0857
14703W        W34983   3.041   2.693   2.618 -0.1177  0.2250 -0.0473
14704W        W34984   1.633   0.919  15.709  0.2506  0.1158 -0.2410
14705W        W34985  17.315  15.995   2.666  0.0151  0.0522  0.0434
14706W        W34986   5.852   3.443  15.938  0.0430  0.0854 -0.0288
14707W        W34987   3.305   0.010  15.986 -0.1616  0.0747 -0.1017
14708W        W34988   4.459   7.914  15.017 -0.1330 -0.2610 -0.0314
14709W        W34989  10.196  12.150  12.516  0.1711  0.1139 -0.1384
14710W        W34990  15.628   2.111  14.047  0.1493  0.4186 -0.1580
14711W        W34991  11.921   5.645  15.639  0.0474  0.2107  0.0892
14712W        W34992  11.850   4.008  14.030 -0.1651  0.1303 -0.1102
14713W        W34993  13.619  17.597   0.542  0.1202  0.2214 -0.2862
14714W        W34994  12.737  17.453   4.625  0.0120 -0.0173 -0.1762
14715W        W34995  14.231  13.773   3.527  0.0119  0.2653 -0.0415
14716W        W34996  16.671  16.909   3.546 -0.1791 -0.2931  0.0709
14717W        W34997   1.881  13.868   4.715 -0.0006 -0.2154 -0.1331
14718W        W34998  14.270  14.156  12.863  0.0666 -0.1658 -0.0020
14719W        W34999   6.461  13.365  16.117 -0.0284  0.0438  0.2600
14720W        W35000  16.547  12.848   3.954  0.0735 -0.3162 -0.1632
14721W        W35001  15.491  17.546   3.590 -0.0069 -0.0167  0.0658
14722W        W35002  10.080   2.223  16.587 -0.1510  0.1271 -0.1374
14723W        W35003  10.526  13.337  13.979 -0.1485 -0.0706 -0.2019
14724W        W35004  16.010  17.624  14.255  0.0309 -0.1445  0.3518
14725W        W35005   5.479  13.564  13.566  0.0488  0.0398  0.0620
14726W        W35006  15.685  13.958   3.339 -0.0968  0.0108  0.1549
14727W        W35007   8.356  16.791   1.665 -0.1609  0.2734 -0.0426
14728W        W35008   1.845  14.927  13.742  0.2858  0.0115  0.5981
14729W        W35009   0.085   5.022   1.630 -0.0912 -0.2470  0.3068
14730W        W35010  17.134  16.605  15.188  0.0289  0.0896  0.0796
14731W        W35011  10.817  11.008   4.603  0.0430  0.1709  0.1868
14732W        W35012  13.413  10.166  14.821 -0.3362  0.1344 -0.1295
14733W        W35013   1.383  12.760   4.659  0.0331  0.1849 -0.1441
14734W        W35014  11.689   1.774   3.918 -0.0353  0.0434  0.2211
14735W        W35015   6.337   7.092  12.568  0.3240 -0.1543 -0.1949
14736W        W35016  17.609  14.250   0.411  0.1060  0.3162 -0.1489
14737W        W35017  12.816   0.986  14.949 -0.4983 -0.2059 -0.2482
14738W        W35018  16.963  10.117  13.698  0.0591 -0.3495 -0.0772
14739W        W35019  14.743  15.611  16.212  0.4744 -0.2193  0.2032
14740W        W35020   6.045  17.280   1.932  0.1179 -0.2387 -0.4842
14741W        W35021  16.338   6.200  15.973  0.1989 -0.2661 -0.1448
14742W        W35022   8.218   5.668   4.179  0.0467  0.1771  0.0580
14743W        W35023  13.796   3.094   2.313 -0.0013 -0.0147 -0.0592
14744W        W35024  12.394  13.630   1.892 -0.0051 -0.3368 -0.2500
14745W        W35025   9.041   6.830  12.585  0.3440 -0.0375 -0.2872
14746W        W35026  11.697  16.162  14.399 -0.2756 -0.1122 -0.2841
14747W        W35027  11.080  15.327  12.917 -0.0142  0.1214 -0.1006
14748W        W35028  17.319  10.358  14.520 -0.0699 -0.2490 -0.0148
14749W        W35029   0.420   0.126   1.336  0.0631  0.1455 -0.2090
14750W        W35030   7.432   9.648  15.044 -0.0476 -0.3631  0.1573
14751W        W35031   2.210   3.612   2.575  0.0054 -0.1647 -0.0001
14752W        W35032  10.930   0.091  11.646  0.3380  0.0774 -0.2043
14753W        W35033  13.057   2.184  13.156 -0.0691 -0.0057 -0.1628
14754W        W35034   3.534   2.655   2.310  0.2026 -0.2305 -0.0805
14755W        W35035   4.733   8.993   2.416  0.1607  0.2360  0.1865
14756W        W35036  13.654   3.103  13.000 -0.1238  0.2644 -0.0448
14757W        W35037  17.878   6.512   0.064  0.1103 -0.1649 -0.1447
14758W        W35038   0.259   6.230  13.113 -0.0799 -0.3418 -0.2154
14759W        W35039  11.056   3.588  12.459  0.1875  0.1673  0.0463
14760W        W35040   2.043   4.008   0.800 -0.0400 -0.2459 -0.0732
14761W        W35041  15.177  17.200   3.676  0.1009  0.1189  0.0835
14762W        W35042  17.711   5.539  12.240 -0.2917  0.2008  0.0360
14763W        W35043   6.704   2.528   4.441 -0.1713 -0.0500 -0.3052
14764W        W35044   0.944   5.843   3.829  0.2154 -0.4069 -0.1895
14765W        W35045   3.329  13.698   0.856  0.2664  0.0424 -0.1301
14766W        W35046   2.168   4.461   0.973 -0.1067  0.1251 -0.2383
14767W        W35047  10.733  17.163   1.890  0.0531  0.4801  0.2135
14768W        W35048  16.048   5.275  16.362 -0.0366  0.0211 -0.0121
14769W        W35049  17.576  17.946   3.708  0.2543 -0.2562 -0.0737
14770W        W35050   2.215  12.939  14.057  0.0508  0.2952 -0.4236
14771W        W35051  15.490   1.678  16.616  0.0801 -0.0268 -0.3074
14772W        W35052   4.807  16.330   1.492  0.2993  0.0907  0.2270
14773W        W35053  13.820  14.756   1.030  0.3808  0.0626 -0.0947
14774W        W35054   1.825   9.487   0.774 -0.1677  0.1407  0.1072
14775W        W35055   0.118  14.636   3.314 -0.1805  0.0746 -0.0415
14776W        W35056  15.785  11.272  14.962 -0.2897 -0.1685  0.1227
14777W        W35057   2.099   5.691   4.881 -0.0183 -0.1815 -0.0214
14778W        W35058  12.063   7.452  12.288 -0.1471  0.5458  0.1287
14779W        W35059   9.807   5.661  11.871 -0.1642 -0.1926 -0.3075
14780W        W35060   6.653   7.052   3.187 -0.1562  0.2095 -0.3686
14781W        W35061  12.957   9.376   0.246  0.3224 -0.0583  0.1316
14782W        W35062  16.162   1.180   0.481 -0.2208  0.1520 -0.0008
14783W        W35063  17.392  11.389  12.444  0.0727  0.1268  0.1326
14784W        W35064  13.219   8.188  13.318 -0.1837 -0.0635 -0.0839
14785W        W35065   5.180   9.872   1.202 -0.0377 -0.0840 -0.1115
14786W        W35066  17.358   9.115  14.298  0.1646  0.1343 -0.1834
14787W        W35067  15.508   5.134  16.553 -0.0510 -0.0260  0.2243
14788W        W35068  11.023  11.958   2.298 -0.2671 -0.0772 -0.3019
14789W        W35069  14.891  12.949   2.599 -0.0495  0.1048 -0.0936
14790W        W35070  10.035   3.438  16.233  0.3241  0.0148 -0.0612
14791W        W35071   1.555  17.749  15.178 -0.2832 -0.0934 -0.1126
14792W        W35072   9.651  17.737  12.998 -0.1182 -0.2389  0.1592
14793W        W35073  12.267  11.952   0.481 -0.2227  0.1964 -0.0879
14794W        W35074  12.070   8.326   0.930  0.3260  0.2462 -0.1502
14795W        W35075  15.328  11.267  13.977 -0.1192 -0.1276 -0.2012
14796W        W35076   1.616  17.174  13.261 -0.0342 -0.0225  0.0544
14797W        W35077   4.756   0.528  12.992  0.1752 -0.0784 -0.2634
14798W        W35078   8.496   8.140   1.237 -0.3425 -0.1280  0.3268
14799W        W35079  16.003   3.576  13.288  0.2948 -0.1741 -0.0168
14800W        W35080  10.331   6.669   2.720 -0.1471  0.0062  0.1623
14801W        W35081  11.406  17.110   1.341  0.0663  0.2217 -0.1591
14802W        W35082  11.172   7.599  15.770 -0.0598  0.0669  0.0130
14803W        W35083   1.152  17.541  15.379 -0.1486  0.3909 -0.0722
14804W        W35084   8.337   7.955  11.837 -0.1211  0.1845  0.1723
14805W        W35085   2.221  11.201   0.785  0.1586 -0.2366 -0.0179
14806W        W35086  11.295   3.072   2.371  0.0354  0.1898 -0.1905
14807W        W35087   8.386  13.549  15.523 -0.1674 -0.4469  0.1362
14808W        W35088  10.135   9.714   2.839  0.1821 -0.1470  0.1696
14809W        W35089  13.953  17.205   2.829  0.0568  0.1818 -0.1845
14810W        W35090   0.465   9.121   0.985  0.0739  0.2067 -0.1216
14811W        W35091   1.000  17.236  13.040 -0.0495 -0.0360  0.3728
14812W        W35092   0.225  14.477   0.644 -0.1103  0.1533 -0.0309
14813W        W35093   5.215  14.346   2.900 -0.4279  0.2394 -0.0379
14814W        W35094   0.865  12.010  12.231  0.1122 -0.1799 -0.1256
14815W        W35095   3.864   5.002   0.528  0.2171 -0.2454  0.1320
14816W        W35096  11.653  13.701   3.192 -0.3055 -0.1129 -0.0350
14817W        W35097   4.388   3.148   1.874  0.1031 -0.1168 -0.1905
14818W        W35098  14.557   2.746   2.207 -0.0974  0.2670 -0.1154
14819W        W35099  15.080  14.310   0.995  0.0486 -0.2298 -0.2396
14820W        W35100  15.885   7.284   4.337 -0.0511 -0.0627 -0.1110
14821W        W35101  14.312  10.445  14.354  0.0994 -0.0756 -0.3484
14822W        W35102   5.339   3.074   4.520 -0.1538 -0.3574 -0.0740
14823W        W35103   3.004  14.242   1.898 -0.4650 -0.1467  0.0916
14824W        W35104   5.659   8.744   5.261  0.0498  0.1235 -0.2763
14825W        W35105  14.605  11.893   2.236 -0.0417 -0.3589  0.1327
14826W        W35106   4.955  12.692   5.154 -0.0807  0.3744  0.1038
14827W        W35107   2.330  10.670  13.313  0.0985 -0.1139  0.2103
14828W        W35108  10.045   0.222   1.135  0.1161 -0.0796 -0.0775
14829W        W35109  15.339  10.063  16.594  0.0057  0.0013  0.2635
14830W        W35110  13.313   1.150  11.445 -0.0278 -0.1170 -0.1046
14831W        W35111   4.461  11.885   4.848 -0.2687 -0.0441 -0.0539
14832W        W35112  13.235   8.263   4.056 -0.0343  0.4807  0.1919
14833W        W35113   4.211   3.818  15.595 -0.0780  0.0125  0.2645
14834W        W35114  14.916  16.805   0.475 -0.1341 -0.2113  0.2668
14835W        W35115  10.489  17.618  11.963  0.1884 -0.0890 -0.1666
14836W        W35116  12.242  13.225  13.035 -0.1751  0.1094 -0.2635
14837W        W35117  14.277  12.589  13.466 -0.1216 -0.2663  0.0504
14838W        W35118   0.321   5.205  12.642  0.0294  0.2238 -0.1916
14839W        W35119  14.058   2.672   0.779 -0.2146 -0.3835  0.1984
14840W        W35120  11.878  14.485   1.000  0.0781  0.3539  0.0931
14841W        W35121  16.468  16.825   0.555 -0.0654  0.3644 -0.0105
14842W        W35122   0.758   5.652   4.274  0.1617  0.0574  0.2832
14843W        W35123   6.571   9.515   1.920 -0.3300 -0.0218 -0.2687
14844W        W35124   7.096   2.910  15.756  0.0747 -0.0994  0.1328
14845W        W35125  10.594  15.273   0.237 -0.0809 -0.1885 -0.1304
14846W        W35126  15.262  10.593   3.830  0.1101 -0.0024  0.0750
14847W        W35127  15.116   3.893  14.256 -0.1536  0.0702  0.1378
14848W        W35128  13.956  15.087   1.938 -0.0963 -0.2526 -0.3192
14849W        W35129   1.522  10.674  13.949 -0.0836 -0.1062 -0.0821
14850W        W35130   9.592  14.745  12.791 -0.1561  0.1990  0.0700
14851W        W35131   3.314   2.887  16.045  0.3173  0.0815  0.0182
14852W        W35132   4.685  15.638   0.564  0.1846 -0.1517 -0.1580
14853W        W35133   1.831   5.323  12.816  0.1131 -0.1074  0.2288
14854W        W35134   9.342  15.907   3.059  0.1557  0.1867 -0.2740
14855W        W35135  13.560   6.592   4.198  0.0451  0.2881 -0.2690
14856W        W35136   0.220   1.181   3.702  0.1234  0.1068 -0.2998
14857W        W35137   2.864   4.397   1.783  0.1560 -0.2540 -0.1718
14858W        W35138   6.629   3.394  13.845  0.3063 -0.0335  0.0438
14859W        W35139  11.087  17.431   1.589  0.0448  0.2918 -0.0422
14860W        W35140  12.720  14.748  13.520 -0.2007 -0.3591 -0.0995
14861W        W35141  16.779  13.886  16.331  0.6262 -0.0560 -0.1587
14862W        W35142  16.156   3.913   3.119 -0.2255  0.0942  0.0940
14863W        W35143   3.584   2.815   4.278 -0.0117 -0.1108  0.0457
14864W        W35144  14.950   7.718  16.650 -0.2109  0.3462 -0.2076
14865W        W35145   2.789  13.059   3.378 -0.0289 -0.0275 -0.0083
14866W        W35146   0.631   9.827  12.620  0.1592 -0.0561 -0.2479
14867W        W35147   7.032   1.998  13.637  0.2356 -0.1146 -0.0217
14868W        W35148  12.178   1.175   2.144  0.2138 -0.2230 -0.0791
14869W        W35149  14.218   0.671   1.386 -0.1786  0.2082  0.2048
14870W        W35150  15.867   6.877  15.905  0.0898 -0.0694  0.1795
14871W        W35151   9.288  10.870   0.885  0.1498 -0.2430 -0.0511
14872W        W35152   8.691   2.022  15.260  0.0560  0.2943 -0.1704
14873W        W35153  17.151   6.291  15.982 -0.1386 -0.2252 -0.0039
14874W        W35154   0.398  16.478  13.573 -0.1824  0.2321  0.1650
14875W        W35155  13.950  15.706  12.412 -0.2974  0.1720  0.3117
14876W        W35156   1.030   6.826   3.787  0.0204  0.0523  0.2471
14877W        W35157  11.583   7.221   3.484 -0.0441  0.3137 -0.0249
14878W        W35158   8.280   7.576   2.836 -0.0199  0.0709 -0.1989
14879W        W35159  11.236   3.816   3.182  0.0463 -0.4047  0.1469
14880W        W35160   2.992   0.704   2.674  0.2855 -0.1168 -0.0838
14881W        W35161   7.758   4.328   3.112  0.1560  0.1815 -0.2972
14882W        W35162   0.808  10.588  14.025 -0.4441 -0.0652 -0.0374
14883W        W35163  17.807  10.261   4.198 -0.0869 -0.1280  0.1720
14884W        W35164  13.304  12.769  14.737  0.1632 -0.2886 -0.0481
14885W        W35165   4.868   3.769  14.813 -0.1726 -0.1140 -0.0580
14886W        W35166   1.236   7.007   4.269 -0.1577 -0.1109 -0.1197
14887W        W35167  11.047   7.448  13.261  0.1275 -0.1370  0.1547
14888W        W35168  12.728  16.902   1.563 -0.1861 -0.0086 -0.0304
14889W        W35169  10.601  14.845  13.113  0.1316 -0.2686  0.0025
14890W        W35170   0.029  11.612  13.068 -0.1442 -0.1576  0.0329
14891W        W35171   3.460  17.517  16.283  0.0694 -0.1262 -0.3070
14892W        W35172   4.188   7.168   3.666  0.1262 -0.0321  0.1342
14893W        W35173  17.357   1.263  14.817  0.2330  0.2400  0.0852
14894W        W35174   5.495   7.024  16.258  0.0755 -0.1242  0.4179
14895W        W35175  13.826   1.233   2.813 -0.0030 -0.0353 -0.0254
14896W        W35176   5.606   7.368   1.950 -0.1166 -0.0874 -0.1610
14897W        W35177  10.793   9.221  12.826 -0.2294  0.0308 -0.1202
14898W        W35178   9.960   9.473  12.312 -0.0506 -0.2692 -0.0956
14899W        W35179   9.236   1.143   4.745  0.0974  0.0734  0.1341
14900W        W35180   0.257   2.613   2.624  0.3678  0.2014  0.0315
14901W        W35181   1.989   2.431   1.615  0.3451 -0.0951 -0.2689
14902W        W35182  17.782   2.766  16.083  0.4298 -0.0465  0.2275
14903W        W35183   2.667   5.122  16.687 -0.2104 -0.0727 -0.1948
14904W        W35184  11.420   3.486  11.598 -0.1801 -0.1397 -0.3000
14905W        W35185  16.759   6.896  12.021  0.0590  0.0321 -0.0212
14906W        W35186   8.312   9.089  12.902  0.0164  0.0377  0.0527
14907W        W35187   2.658  12.276   0.842  0.1961 -0.0870  0.3083
14908W        W35188   6.188   6.154   1.902 -0.2076 -0.0437  0.1549
14909W        W35189   8.247  17.235   1.550  0.0212  0.0372  0.1035
14910W        W35190   7.733  15.661   0.075  0.1714 -0.2840  0.0231
14911W        W35191   9.571   9.377  15.954 -0.2954  0.0945 -0.1746
14912W        W35192   5.575  11.863   1.701 -0.1436  0.0353  0.0057
14913W        W35193   9.837  13.812  13.362  0.2468  0.0797  0.1573
14914W        W35194   3.506   2.033   3.637  0.0876 -0.1435  0.1956
14915W        W35195   7.611  10.068  16.188 -0.0727  0.2613 -0.0134
14916W        W35196   3.449  15.726   0.231  0.0763 -0.0378  0.2036
14917W        W35197  16.950  15.752  14.314 -0.0940 -0.1698 -0.2051
14918W        W35198   1.043   3.648   1.197 -0.1261  0.0271 -0.2876
14919W        W35199   5.835  11.521  16.674 -0.1716 -0.0896  0.0536
14920W        W35200  13.458  10.682  16.001 -0.2478 -0.1399 -0.2725
14921W        W35201   9.013   9.537  14.782  0.3981  0.1690  0.0198
14922W        W35202   8.952  12.264  13.910  0.4789  0.4483  0.2756
14923W        W35203   8.643   2.969  13.602  0.3077 -0.2575 -0.1437
14924W        W35204   8.137   3.588  15.292  0.0637 -0.2458  0.0271
14925W        W35205  15.540   2.917   1.808  0.0785 -0.1325 -0.1957
14926W        W35206   3.288  14.201  13.511 -0.0265 -0.0688 -0.1980
14927W        W35207   4.001  17.588   1.639 -0.0864 -0.0030  0.0215
14928W        W35208   2.316   8.710   0.967  0.0187  0.0249  0.3125
14929W        W35209  17.837  14.420   2.777 -0.1675  0.3637 -0.3243
14930W        W35210  17.235   5.071  15.520 -0.0473  0.1026  0.1803
14931W        W35211  10.573  11.810   2.042 -0.1645  0.0040 -0.2237
14932W        W35212  13.400   6.661  13.499  0.1206  0.0374  0.1737
14933W        W35213  11.279   9.000   0.269  0.1901 -0.0474  0.2324
14934W        W35214  17.438  14.692   2.722  0.1384 -0.2715 -0.1355
14935W        W35215  16.448   5.039   2.147 -0.0408 -0.0950 -0.0246
14936W        W35216   5.704  15.753   4.205  0.0526  0.0540 -0.3079
14937W        W35217   4.409  10.158   2.312 -0.0346  0.2083 -0.3007
14938W        W35218  13.180  14.088  13.004 -0.1553  0.2338  0.3363
14939W        W35219   3.170   0.275   1.193  0.1520  0.0260 -0.0720
14940W        W35220  10.128   2.675  11.485  0.2518 -0.1111 -0.1057
14941W        W35221   1.884  10.781  12.679 -0.3458  0.2642  0.1039
14942W        W35222  16.487  14.461  13.095  0.0029 -0.2174  0.1040
14943W        W35223  12.978   6.941   0.237  0.1313 -0.0783  0.0078
14944W        W35224  11.562   4.964   3.511  0.2275  0.0019  0.0033
14945W        W35225   6.526   1.582   2.100  0.1896  0.0764  0.0444
14946W        W35226   4.231   7.172   1.364  0.0700 -0.0690 -0.0975
14947W        W35227   7.505   1.662   2.514 -0.2114 -0.1160  0.0025
14948W        W35228   2.376  16.389  13.114 -0.0046  0.1181  0.0823
14949W        W35229   6.105   6.394  13.328 -0.0585  0.1425  0.3007
14950W        W35230  15.947   9.367  14.569 -0.0884  0.1806  0.1407
14951W        W35231   4.096   7.245  16.241  0.0260 -0.1742  0.2682
14952W        W35232   4.127   7.306   0.847 -0.2215  0.1595 -0.0077
14953W        W35233  14.982   4.700  13.795 -0.1594 -0.1151  0.3940
14954W        W35234   5.315   3.674  12.131  0.3546 -0.0934  0.0112
14955W        W35235   4.108   4.407   3.159  0.2040  0.1813 -0.0095
14956W        W35236  14.003   1.027   3.860 -0.0460 -0.2529 -0.0295
14957W        W35237  13.916  13.198  12.745 -0.3792 -0.0255 -0.2058
14958W        W35238   3.941  11.340  15.497  0.1268 -0.0116  0.1601
14959W        W35239   1.646   4.683   4.795  0.1790 -0.2936 -0.1506
14960W        W35240  16.462   3.124   3.837  0.1981 -0.0403 -0.1328
14961W        W35241  14.725  14.926   4.681  0.3968 -0.0757 -0.0990
14962W        W35242  16.812   4.719   4.603 -0.0656  0.0681  0.1837
14963W        W35243   1.781  12.582   3.739  0.0509  0.1443 -0.0496
14964W        W35244  10.884   3.255   2.605 -0.0506  0.0745 -0.3285
14965W        W35245  12.410   7.435   3.232  0.3045  0.3036 -0.2561
14966W        W35246   3.391  17.000  12.747  0.0233 -0.1397  0.4664
14967W        W35247  10.903   7.615   4.691 -0.1924 -0.0123  0.0123
14968W        W35248  13.115  10.641  13.980  0.0611  0.2478 -0.1849
14969W        W35249   3.156   5.443   2.000 -0.0798 -0.0595  0.4476
14970W        W35250   8.828  17.123   4.127 -0.1748  0.1179 -0.1368
14971W        W35251   2.489  16.880  15.236 -0.2670  0.0331  0.1036
14972W        W35252  14.666   5.611   1.395 -0.2029  0.0250 -0.1324
14973W        W35253   7.993  11.437   1.092 -0.0203 -0.2159 -0.2716
14974W        W35254   3.707   0.775   0.628  0.2525  0.1410 -0.1017
14975W        W35255  13.670  15.552   2.435  0.5006 -0.0218 -0.0899
14976W        W35256   3.867   7.806   0.762 -0.1370  0.0474  0.1895
14977W        W35257   2.298  16.313   1.105  0.1016  0.3261  0.1966
14978W        W35258   6.965   0.968  13.379 -0.3681  0.2753 -0.2051
14979W        W35259   0.890   6.350   1.885  0.1149 -0.1352 -0.1399
14980W        W35260  17.954  14.221  14.578 -0.0542  0.0547  0.1776
14981W        W35261  17.332   8.153  14.179 -0.1341 -0.3337  0.0450
14982W        W35262   5.289  13.117   1.115  0.1459 -0.2011 -0.4436
14983W        W35263   3.025  15.028  16.122 -0.0465 -0.2068 -0.3041
14984W        W35264   9.385   0.187  13.474  0.1679 -0.1001 -0.1279
14985W        W35265   4.559   8.591   0.936 -0.0325 -0.3636  0.0227
14986W        W35266  15.054   5.322   4.640  0.1413  0.1107  0.3543
14987W        W35267  10.771   6.878   4.048  0.2293 -0.2638  0.0442
14988W        W35268  11.047   5.320   2.239  0.0596 -0.2953 -0.1013
14989W        W35269   8.198   8.331   1.597  0.0364  0.0117 -0.0465
14990W        W35270  13.133   7.850   1.666  0.0777 -0.2078  0.1304
14991W        W35271  12.480   0.688   4.231  0.2360 -0.3504  0.2151
14992W        W35272   5.933   7.811  16.611  0.0492 -0.1142 -0.2450
14993W        W35273   3.265   1.846   3.267 -0.0332  0.0573  0.0658
14994W        W35274   5.634   5.831  14.111  0.1104 -0.0513  0.2997
14995W        W35275   1.277  11.188  16.029  0.4168  0.2561  0.3001
14996W        W35276   2.609   7.897   4.506  0.0731 -0.0568  0.0501
14997W        W35277   2.991  10.062  14.214  0.0627 -0.0428  0.3211
14998W        W35278  15.302  11.812  15.468 -0.0934  0.2358  0.0124
14999W        W35279   8.948   7.651   3.439 -0.1096 -0.2147 -0.0315
15000W        W35280   0.352   5.848  11.880 -0.2440 -0.0784 -0.1236
15001W        W35281  17.177   9.492   2.212  0.0226  0.0396  0.1206
15002W        W35282  14.877   5.125  12.191 -0.0716  0.2367  0.0144
15003W        W35283  14.316  12.481   4.353  0.0965  0.0991 -0.0562
15004W        W35284   7.802  13.886   3.950  0.1201 -0.3207 -0.1268
15005W        W35285   5.880  11.490   3.876  0.0198 -0.1926  0.2125
15006W        W35286  17.344  13.613  15.083 -0.1630 -0.0109  0.0285
15007W        W35287   9.978  11.756   3.174 -0.1937  0.1477 -0.1357
15008W        W35288  15.330  16.791   3.402  0.0183  0.1146 -0.2302
15009W        W35289  11.319  13.665   0.398 -0.0164 -0.0519 -0.0378
15010W        W35290   1.204   0.156  12.987 -0.0524 -0.0415  0.4794
15011W        W35291  17.415   7.198   0.144  0.2544  0.0968  0.2774
15012W        W35292   0.873   0.664   0.062 -0.0664 -0.1897  0.0574
15013W        W35293   6.160  16.176  14.454 -0.4266 -0.2431 -0.1363
15014W        W35294   2.438   2.191   1.362 -0.4542 -0.1272 -0.1076
15015W        W35295   8.588  17.273  14.031  0.0426  0.0488  0.1141
15016W        W35296   6.276  13.166  13.123 -0.3487 -0.0008  0.1617
15017W        W35297   8.392   3.621   1.027 -0.0822  0.3614 -0.0843
15018W        W35298   7.186   9.027  13.105  0.0059 -0.0456  0.2762
15019W        W35299   8.348  16.717  16.197 -0.0836  0.3138 -0.0362
15020W        W35300   3.859  11.750   3.435  0.2612  0.2619  0.2030
15021W        W35301  10.087  17.359  11.714  0.2016 -0.3212  0.0363
15022W        W35302   4.778   0.438  15.073  0.1384 -0.1487 -0.1318
15023W        W35303   7.018  13.188   1.666 -0.1143  0.3255  0.1583
15024W        W35304   0.994   8.758   4.693  0.1009 -0.1622  0.3231
15025W        W35305  14.668   5.367   4.272 -0.1307  0.1965 -0.0950
15026W        W35306  17.374   1.612   0.367  0.0186 -0.0108 -0.0535
15027W        W35307  15.014   3.526   1.242  0.4702 -0.0958 -0.0964
15028W        W35308  17.845  12.549   1.391 -0.2045 -0.2128 -0.3504
15029W        W35309   8.121   6.168   2.722  0.0814 -0.1547 -0.0788
15030W        W35310  15.750   9.808   1.709  0.0385  0.2417  0.0645
15031W        W35311   3.703   0.497  13.854  0.2090  0.0556  0.2377
15032W        W35312   6.889  14.084  13.202  0.1513 -0.0667 -0.1027
15033W        W35313  14.134   4.840   3.844 -0.1188  0.1151 -0.0842
15034W        W35314  12.506  10.931  14.826  0.1976  0.0052  0.1665
15035W        W35315  13.891   7.839  14.028  0.2007 -0.0295 -0.1792
15036W        W35316  17.739  15.046   1.689  0.2407 -0.0007  0.0195
15037W        W35317  13.278  16.773   1.166 -0.1921 -0.0712 -0.0180
15038W        W35318  13.642  17.501   3.118 -0.0225 -0.1513  0.2194
15039W        W35319   4.902   2.285   2.922 -0.0518 -0.1994 -0.0599
15040W        W35320   3.064   2.013   0.512 -0.0387 -0.1485 -0.0626
15041W        W35321   5.046   0.996   1.515 -0.0269 -0.1757 -0.1343
15042W        W35322  14.281   6.786  14.974  0.2184  0.1425 -0.4109
15043W        W35323  15.226  15.978   3.025 -0.0115 -0.0323 -0.2193
15044W        W35324   3.345  14.511   2.142 -0.0341  0.0158  0.0737
15045W        W35325  13.109  14.528   3.834 -0.2519 -0.0405  0.1922
15046W        W35326  11.236  14.001   3.253 -0.1945 -0.0185 -0.2862
15047W        W35327  16.180  15.089   2.660  0.3303 -0.1231  0.0696
15048W        W35328   8.001   7.825   2.336 -0.2379 -0.0159  0.0413
15049W        W35329  10.917  12.356   4.057  0.0452  0.3022 -0.1760
15050W        W35330  12.961  15.354  12.223  0.3680 -0.0958 -0.1243
15051W        W35331   4.505   5.212   1.681 -0.1674 -0.1622  0.0043
15052W        W35332   3.564  17.535  12.681 -0.0768 -0.1355  0.1634
15053W        W35333   5.368  14.000   0.421 -0.5312  0.1103  0.0491
15054W        W35334   0.095  11.346   3.328 -0.1028  0.0435 -0.2024
15055W        W35335  13.951  17.437   2.406 -0.4600 -0.0010 -0.1698
15056W        W35336   6.495  12.399   1.355  0.0311 -0.2384  0.0821
15057W        W35337   0.074  13.040   0.045  0.0730  0.2024 -0.1430
15058W        W35338   9.062   9.898   4.893  0.3053 -0.2862 -0.0598
15059W        W35339   7.993   5.047  13.139  0.0582 -0.0577  0.2762
15060W        W35340   3.705  15.497   2.283 -0.0407  0.0535 -0.0001
15061W        W35341   2.948  11.602   2.277 -0.0721  0.1336  0.1396
15062W        W35342   7.907  12.636   0.456  0.2389  0.0381 -0.3898
15063W        W35343   7.321  10.608   3.191  0.2790 -0.0085 -0.2129
15064W        W35344   8.383   1.300  15.946  0.0725  0.0804 -0.0632
15065W        W35345  14.213   7.884   2.895 -0.2110  0.1584 -0.2811
15066W        W35346   2.546  13.595  12.172  0.0157  0.1066  0.4789
15067W        W35347  12.503  16.328   1.080 -0.0036 -0.0560  0.2218
15068W        W35348   1.013   0.463  14.836 -0.2569 -0.1026 -0.0274
15069W        W35349   9.596  15.371   2.294  0.0491 -0.1618  0.0208
15070W        W35350   7.855  16.643  15.260 -0.0805  0.1954  0.0707
15071W        W35351  10.744   1.375   1.012 -0.2988  0.0339  0.0521
15072W        W35352   2.385   0.821  16.007 -0.1029 -0.0602 -0.3041
15073W        W35353   5.858   7.946  12.505 -0.0685  0.4400  0.4556
15074W        W35354   8.685   0.287  11.903  0.0575 -0.0153 -0.0391
15075W        W35355   4.174  11.432   5.105 -0.2447  0.1850  0.0188
15076W        W35356   4.476   5.871   0.248  0.2161  0.0617 -0.2741
15077W        W35357   3.094   8.014   3.383  0.1397  0.2121  0.0922
15078W        W35358   5.540  15.048   3.171 -0.4600 -0.2592 -0.2729
15079W        W35359  11.094   5.129  13.758 -0.1039 -0.1678 -0.0273
15080W        W35360   5.486   5.068   1.970  0.1687 -0.2963  0.1228
15081W        W35361   1.972   2.092   4.638 -0.0900 -0.0970 -0.2721
15082W        W35362  12.505   2.491  11.755 -0.1131 -0.1673 -0.1459
15083W        W35363   5.281   3.204   2.601 -0.3423 -0.2001  0.0057
15084W        W35364   0.479  10.991   1.783  0.1760 -0.0075  0.1432
15085W        W35365  13.495  10.761   3.731 -0.2229 -0.1699  0.1480
15086W        W35366  17.285   2.866  14.750  0.0724  0.0975 -0.0521
15087W        W35367   3.237   3.117  14.131  0.0192 -0.1062 -0.4110
15088W        W35368  13.756   7.082   1.680 -0.2784  0.0990 -0.3107
15089W        W35369   4.178  16.285  14.196 -0.1334 -0.1712  0.1267
15090W        W35370   9.674   1.821   4.383  0.1668 -0.0330 -0.0926
15091W        W35371  12.521   1.519   1.369  0.1863  0.0408  0.2716
15092W        W35372  12.601   3.113   1.915  0.0626 -0.0392 -0.3104
15093W        W35373   6.801   8.999  13.601 -0.2851 -0.0325  0.0829
15094W        W35374   9.342   5.495   1.240  0.6564 -0.1953  0.1742
15095W        W35375   6.281  15.610  11.530  0.0009  0.0417  0.3417
15096W        W35376  16.758  15.095   4.292 -0.0664  0.2804  0.0998
15097W        W35377   7.292   3.247  15.329  0.0828 -0.1723  0.0801
15098W        W35378   1.737  11.832  16.402 -0.1475 -0.0002 -0.1974
15099W        W35379  12.442   2.020  11.709  0.0813 -0.0212  0.0709
15100W        W35380   5.932   6.479  11.784  0.3010 -0.1559  0.0855
15101W        W35381   6.731   5.454   0.611  0.0027 -0.2903 -0.1331
15102W        W35382   9.694   4.293   2.966  0.0422 -0.1106 -0.2164
15103W        W35383  10.073   2.644   4.766  0.2514  0.1287 -0.2195
15104W        W35384   0.624   6.636  13.298  0.2216 -0.1717  0.0955
15105W        W35385   5.928   2.309   1.553 -0.0787  0.2800  0.0755
15106W        W35386  14.525  15.879  15.816 -0.1495  0.2781 -0.0568
15107W        W35387  15.078   3.918   3.908  0.2215 -0.0050 -0.2332
15108W        W35388  11.618  16.792   0.123 -0.0120 -0.1806 -0.0439
15109W        W35389   4.480   6.697  13.781  0.0141 -0.0187  0.1406
15110W        W35390   1.153   2.378  15.169 -0.0806 -0.1320 -0.1764
15111W        W35391   4.659   4.066   0.554 -0.1582  0.0252  0.2660
15112W        W35392   4.452  10.170   0.029 -0.0053 -0.3177  0.2039
15113W        W35393  10.271   8.990   4.550 -0.1022  0.2713 -0.0837
15114W        W35394   3.285  14.088  15.106  0.0121 -0.0540 -0.1651
15115W        W35395   9.715  11.760   0.956 -0.0133  0.0212 -0.1883
15116W        W35396   3.112   3.175   0.678 -0.2207  0.4245 -0.0922
15117W        W35397  13.254   6.463  12.824 -0.1958 -0.2621  0.0052
15118W        W35398   0.974  14.985   0.897 -0.0854  0.3230  0.3620
15119W        W35399  16.028  16.165   3.396  0.0138  0.1661 -0.1562
15120W        W35400  15.489   4.866   0.281 -0.0617 -0.2280  0.0959
15121W        W35401  14.511   2.310  13.292 -0.1783 -0.0321  0.0305
15122W        W35402   2.810   4.222   0.271 -0.1062 -0.0129  0.1079
15123W        W35403   4.103   2.677  13.683  0.1866 -0.3339 -0.0247
15124W        W35404  13.856   6.965  15.333 -0.0500  0.1401  0.2222
15125W        W35405   6.429  14.745  14.286  0.1159 -0.1292  0.0388
15126W        W35406   7.860  10.621  16.384 -0.1537  0.0243  0.1463
15127W        W35407   2.112   0.721   4.127  0.2666  0.2110 -0.0522
15128W        W35408  10.251   6.471   4.622 -0.1369  0.0893  0.0051
15129W        W35409  13.273  11.655   4.114 -0.1572 -0.2439 -0.1645
15130W        W35410   2.149  15.382   0.992 -0.1096  0.3037  0.0219
15131W        W35411   5.177   6.425   0.847 -0.0430 -0.3991 -0.0896
15132W        W35412  14.883   9.845   0.814 -0.0146  0.2849  0.2325
15133W        W35413   2.203  13.885  13.598  0.1647 -0.0953  0.2335
15134W        W35414   7.552  15.581   1.039  0.0770 -0.0448  0.0500
15135W        W35415   6.497  14.759  16.588 -0.2510  0.1141 -0.0186
15136W        W35416   3.966   5.357  13.608 -0.1832 -0.1381 -0.1499
15137W        W35417  15.431   9.687  16.238 -0.1728  0.1975  0.2797
15138W        W35418   8.093   4.630  12.869  0.1229 -0.1941  0.4947
15139W        W35419   6.602  17.030  16.277  0.0939 -0.0722 -0.5500
15140W        W35420   7.352   1.687  14.406  0.0294 -0.4126  0.0925
15141W        W35421   4.585   4.691  12.411  0.0254  0.3151 -0.1305
15142W        W35422   2.647  15.415   0.776 -0.2099 -0.1439 -0.2141
15143W        W35423   1.510   3.819   1.382  0.0840  0.0182 -0.2271
15144W        W35424  11.321   5.911  12.563  0.1356  0.0266 -0.2506
15145W        W35425  17.761   5.957   1.465  0.0287 -0.0342  0.1336
15146W        W35426  17.549  16.636   0.529 -0.2261  0.0015  0.2445
15147W        W35427   0.856   1.465   3.074 -0.2002  0.1040  0.1684
15148W        W35428   8.275  17.161  14.370  0.4992  0.0159 -0.5059
15149W        W35429   1.520  14.901  11.178  0.1506 -0.2119  0.0407
15150W        W35430   6.892   8.951  12.704  0.1513  0.3027 -0.1795
15151W        W35431  16.737  12.018   3.283 -0.0613  0.1475 -0.1916
15152W        W35432   4.305   7.508   4.539 -0.1842  0.0591  0.0616
15153W        W35433  11.656   4.821  11.551  0.3287 -0.1366 -0.1618
15154W        W35434   4.315  11.402   6.526 -0.0691  0.3157  0.0327
15155W        W35435  16.032   9.895  15.572 -0.0064 -0.0046 -0.1411
15156W        W35436   7.271   2.039  11.663 -0.4630  0.1086 -0.0614
15157W        W35437  10.485  13.869   1.561  0.2352  0.2434 -0.0381
15158W        W35438   7.216   8.040  13.848  0.1881 -0.1145 -0.0859
15159W        W35439   6.713   3.032   3.914  0.1903  0.1131  0.2637
15160W        W35440   7.773  14.406  13.816  0.0654 -0.0546 -0.0418
15161W        W35441  10.958   6.269  15.261 -0.1740 -0.0820  0.0958
15162W        W35442   4.753  14.318   3.108  0.0249  0.0092  0.0824
15163W        W35443  12.726  17.059  13.559 -0.0534  0.1746  0.3564
15164W        W35444  11.206  15.922  16.684  0.3475  0.0617 -0.1172
15165W        W35445  14.598  16.731  14.673  0.1324 -0.2570 -0.3006
15166W        W35446   1.734  15.628   3.771 -0.2612  0.3533 -0.4356
15167W        W35447  12.001  17.716  13.226 -0.4353 -0.1815 -0.0945
15168W        W35448   0.793  17.518  13.478  0.0115  0.2116  0.2778
15169W        W35449   7.241  14.369  14.510 -0.0773 -0.0140 -0.0604
15170W        W35450   3.630   0.829  12.969  0.0295 -0.1004 -0.0463
15171W        W35451  12.731  17.912  16.029  0.3680 -0.1617 -0.1396
15172W        W35452   7.988  17.407  13.994 -0.0469  0.0540 -0.1918
15173W        W35453   4.447   1.174   2.307 -0.1712  0.0527  0.1045
15174W        W35454   8.007  17.461  12.874 -0.0602  0.0655 -0.1978
15175W        W35455   5.307  17.091   0.718 -0.0846  0.0711  0.1420
15176W        W35456   7.274   7.741   4.210 -0.0880 -0.3494  0.1969
15177W        W35457   7.740   5.994  16.570  0.1050  0.3319  0.0812
15178W        W35458   6.735   0.210   4.577  0.0427 -0.3400  0.4893
15179W        W35459   8.005  10.225   2.869  0.0346 -0.3174 -0.0385
15180W        W35460  10.044   5.524  13.155  0.1164  0.2044  0.1142
15181W        W35461   3.911   8.022  13.491  0.0250  0.0249 -0.1442
15182W        W35462  10.888   6.789  16.153  0.0670  0.1554  0.1739
15183W        W35463   6.423  12.598   2.830 -0.2558 -0.0295  0.0315
15184W        W35464   4.353  13.962  13.778  0.0659 -0.4858  0.2408
15185W        W35465   7.189  11.520   3.951  0.0288  0.2687  0.3183
15186W        W35466   5.217  11.236  13.180 -0.1586  0.0093 -0.0931
15187W        W35467  16.052  14.653   4.659 -0.0737 -0.2962 -0.5415
15188W        W35468   1.761  16.888   4.083 -0.2088  0.1899 -0.2503
15189W        W35469   6.977   7.036   1.901  0.1916  0.2107  0.0672
15190W        W35470  17.260  12.162   2.042 -0.0450  0.0111 -0.1206
15191W        W35471   6.275  16.499  15.393  0.3144  0.3469  0.0473
15192W        W35472   3.484   5.018   2.025 -0.0261  0.1599  0.1226
15193W        W35473  11.690  12.233   0.886  0.0742 -0.0300  0.0545
15194W        W35474   7.009   6.422  12.189  0.0394 -0.3259  0.0727
15195W        W35475   5.048  15.281   0.567  0.1220  0.0838 -0.2633
15196W        W35476   2.487  14.497   3.275 -0.0622  0.1727 -0.3627
15197W        W35477   2.515  16.682  13.673 -0.2803 -0.1881  0.1734
15198W        W35478   1.610   3.112  14.165  0.0236 -0.1178  0.3344
15199W        W35479   8.780   5.374  13.212  0.5319  0.0020 -0.3199
15200W        W35480  14.581   1.737  13.303  0.0719  0.0064 -0.1287
15201W        W35481  16.638   3.836   1.273  0.0203 -0.0452 -0.2386
15202W        W35482  12.099  16.209   3.394  0.1007 -0.1365  0.1494
15203W        W35483  13.808   4.753   2.648 -0.1632 -0.0843 -0.2212
15204W        W35484  14.645  11.092  16.487  0.1743  0.0431 -0.0778
15205W        W35485   8.770  11.066   1.504  0.2330 -0.0250 -0.0319
15206W        W35486   8.706  15.785   1.598  0.2505 -0.0525 -0.1794
15207W        W35487   9.440  16.341   0.336 -0.2490 -0.0476 -0.1174
15208W        W35488   4.751   6.014  13.631 -0.3240  0.1092 -0.1358
15209W        W35489   9.644   7.713   1.048  0.0945 -0.0627  0.1510
15210W        W35490   3.094  10.295   0.247 -0.1154  0.4407 -0.1357
15211W        W35491  14.833   1.735   4.161 -0.1588 -0.1804  0.1781
15212W        W35492  12.913   7.314   3.182  0.0414  0.0723 -0.0927
15213W        W35493   2.417  10.376   1.042 -0.0166  0.1046 -0.1564
15214W        W35494   3.502  15.308  13.154 -0.0056 -0.0674 -0.0430
15215W        W35495   9.395   0.541  12.986 -0.0951 -0.2589  0.2376
15216W        W35496  15.472   0.041  13.735 -0.2702 -0.0709  0.2227
15217W        W35497  16.631   1.085   0.512 -0.1696 -0.2156  0.1414
15218W        W35498  14.171   7.144  13.245  0.1531 -0.0752  0.1431
15219W        W35499   8.131  16.922   0.240 -0.1130 -0.2166 -0.1462
15220W        W35500   9.998   3.484   3.506 -0.1908 -0.2716  0.3269
15221W        W35501   9.740  14.798  15.808  0.0458 -0.1382  0.0419
15222W        W35502  12.133  16.699   3.299  0.0807 -0.1741 -0.2167
15223W        W35503  11.272   8.634  15.939 -0.0272  0.1460 -0.4070
15224W        W35504   1.402  12.861  13.241 -0.0879 -0.2783 -0.3524
15225W        W35505  15.954   6.342  15.298  0.2821  0.2092  0.1188
15226W        W35506   2.285  16.011   0.232 -0.2421 -0.0057 -0.0288
15227W        W35507  15.315  11.440   0.601 -0.0747  0.1269  0.0382
15228W        W35508   6.997   6.290   0.735 -0.0806  0.0519  0.0870
15229W        W35509  11.973  10.809  16.295  0.1029 -0.0293  0.2424
15230W        W35510   7.167   1.584   2.853  0.3346 -0.1656  0.3093
15231W        W35511   8.081  11.189  14.308 -0.5036  0.1597 -0.0979
15232W        W35512  10.485   9.033   3.612 -0.1567 -0.0306 -0.2342
15233W        W35513  15.490   8.733  14.230  0.0669 -0.1788  0.3244
15234W        W35514   5.811   5.668   3.830  0.0078 -0.1981 -0.0651
15235W        W35515   0.562   1.641  12.913 -0.0981 -0.1239  0.0396
15236W        W35516  15.412   4.416   4.476 -0.4014 -0.1768 -0.0744
15237W        W35517  17.713   3.376  14.068 -0.2380 -0.2120  0.1826
15238W        W35518   8.142   3.935   0.479 -0.2584 -0.1154 -0.1664
15239W        W35519   7.422  16.868  15.587 -0.1263  0.0162 -0.2058
15240W        W35520  15.248  10.270   1.969  0.0583  0.0743  0.1454
15241W        W35521  14.452  16.059  15.148 -0.1986  0.0325 -0.0637
15242W        W35522  10.921  15.512   2.209 -0.1321  0.2735 -0.1080
15243W        W35523   7.150   8.244   2.261  0.0239 -0.2554 -0.0027
15244W        W35524   1.286  12.619   2.936 -0.1716  0.0824 -0.4529
15245W        W35525   8.018   0.868   4.064 -0.2083 -0.0997 -0.3745
15246W        W35526  15.830   1.051   4.025 -0.0125  0.0952  0.0378
15247W        W35527   5.378  16.958  12.590 -0.0780  0.1601 -0.0917
15248W        W35528  12.616   7.495  12.300 -0.0484 -0.1699 -0.0689
15249W        W35529   2.055  11.284  12.493 -0.0517  0.0415 -0.0330
15250W        W35530   3.400   5.940  14.070 -0.1113  0.0587  0.1710
15251W        W35531  10.785  16.315  13.223 -0.1283  0.0970  0.2471
15252W        W35532  17.644   7.766   5.957 -0.2361  0.3837  0.2277
15253W        W35533   5.888   4.073   3.623 -0.0538 -0.0039 -0.1424
15254W        W35534   1.984   0.728   3.077 -0.0366  0.1295  0.3366
15255W        W35535  11.914  17.974   1.765 -0.0392  0.0030 -0.0524
15256W        W35536   7.208   5.301  13.814  0.0996 -0.1618 -0.2388
15257W        W35537   7.979  10.890  15.970 -0.0075 -0.2589 -0.2088
15258W        W35538  14.936  11.856  13.306 -0.1772  0.0681  0.0181
15259W        W35539  10.880  15.687   0.892 -0.0003  0.0690 -0.1529
15260W        W35540  14.105  16.972   4.621 -0.0140  0.1297  0.2365
15261W        W35541  11.702   2.598  16.126 -0.1014 -0.0857  0.1626
15262W        W35542  13.137   1.377  15.232  0.0886 -0.1072  0.1175
15263W        W35543   4.151  12.332  16.636  0.0513 -0.0170 -0.1605
15264W        W35544   6.672   0.574  16.543 -0.1561 -0.0372 -0.0639
15265W        W35545  14.817   4.856  12.722 -0.0784  0.0876 -0.0778
15266W        W35546   0.626  15.059  15.187  0.2051 -0.0319  0.0650
15267W        W35547  14.996   2.464  14.061  0.3072  0.1948 -0.2731
15268W        W35548   0.110   1.307   1.004 -0.0324  0.0346  0.1643
15269W        W35549   1.878  16.014  14.651  0.0621 -0.0798 -0.2258
15270W        W35550  15.699   8.017  12.543  0.0356 -0.2816  0.2600
15271W        W35551   8.907  17.895   2.695 -0.0719 -0.2213 -0.2427
15272W        W35552   8.595   2.415   0.552 -0.1012 -0.1028  0.2640
15273W        W35553  12.770   3.149  12.903  0.3350 -0.0151 -0.1486
15274W        W35554  10.245   2.358  12.686 -0.4459  0.1292  0.0491
15275W        W35555   0.823  14.337  13.086 -0.2507  0.0100 -0.0773
15276W        W35556   7.391   5.297  14.717  0.3844  0.3277 -0.1980
15277W        W35557   4.382   2.100  12.138 -0.1640  0.1417 -0.2750
15278W        W35558  12.102   1.216  12.219  0.0502 -0.0702  0.1457
15279W        W35559   9.638  11.245   1.930  0.2048 -0.1282 -0.0921
15280W        W35560   4.294   1.988  15.487 -0.2152  0.3577 -0.1051
15281W        W35561  15.441   7.428   4.474  0.2333  0.1649 -0.0695
15282W        W35562   4.753  17.840   0.559  0.2519  0.2116  0.0376
15283W        W35563   5.543   2.348  13.813  0.0526 -0.0028  0.0358
15284W        W35564  10.280  17.217  15.412 -0.0533 -0.1565 -0.2865
15285W        W35565  11.709  17.475   1.448  0.1086 -0.1082 -0.2653
15286W        W35566  15.442   1.679  14.311 -0.1211 -0.2071  0.2339
15287W        W35567   5.917  15.834   2.595  0.1067  0.1893  0.1747
15288W        W35568  15.754   0.030  13.205 -0.2145  0.1319 -0.1842
15289W        W35569  14.412   2.291   3.430  0.1258  0.0369  0.0753
15290W        W35570  17.358   1.055   2.527 -0.0306  0.2185  0.0799
15291W        W35571   2.759   0.360   1.490  0.0121  0.2101  0.3445
15292W        W35572   6.737   0.895  14.203  0.3066  0.0547  0.0284
15293W        W35573  12.841  16.002  15.808 -0.1296 -0.2727 -0.1206
15294W        W35574   8.978  16.458  13.689 -0.2559  0.0033 -0.0842
15295W        W35575  13.646  11.597  14.313 -0.0316 -0.1889  0.0858
15296W        W35576   6.338   1.195  11.966 -0.1837 -0.2534  0.3125
15297W        W35577  13.595  13.904   2.903  0.1064 -0.2155 -0.0298
15298W        W35578   7.011   2.331  15.000 -0.2484  0.2174  0.0135
15299W        W35579   5.642   2.307  12.475 -0.1889  0.1903 -0.3176
15300W        W35580   6.558  10.960  13.776 -0.1778 -0.1157  0.0560
15301W        W35581  13.896   0.405  14.989  0.3788  0.1028 -0.0635
15302W        W35582  12.261   3.136   0.970  0.0419 -0.0417  0.0864
15303W        W35583   8.535   9.530   3.720 -0.1267  0.0718 -0.2679
15304W        W35584   4.642   8.646   3.632  0.2792  0.0848  0.0986
15305W        W35585  12.068   7.322   0.681 -0.0786  0.1168  0.4572
15306W        W35586  10.665   7.095   1.793  0.1658  0.1354  0.2916
15307W        W35587  10.056  15.766  15.781 -0.1063  0.4305 -0.0767
15308W        W35588  15.881   1.965   2.662 -0.0760  0.0455  0.4357
15309W        W35589  15.856   6.953  14.062 -0.1129 -0.1991  0.0037
15310W        W35590  11.580  16.241  15.246 -0.0222  0.2839 -0.1104
15311W        W35591  16.705  14.410   1.373  0.0530 -0.1397 -0.1382
15312W        W35592   3.426  14.363   1.665 -0.1119 -0.0015 -0.0098
15313W        W35593   9.287  11.599   5.533 -0.0783 -0.1877  0.0851
15314W        W35594   0.713  15.091  16.068  0.3610  0.0122  0.0295
15315W        W35595   7.089   1.295  16.264 -0.0838 -0.1360 -0.3260
15316W        W35596   8.747   1.394  12.538 -0.0139 -0.0325  0.1002
15317W        W35597  16.772   7.034   0.786 -0.0462 -0.2710 -0.3731
15318W        W35598   6.482   9.623  13.030 -0.2033  0.0862 -0.0015
15319W        W35599   6.171  11.374  13.858  0.0669  0.3120  0.0288
15320W        W35600  12.251   4.037  11.730  0.0335  0.0100  0.1696
15321W        W35601  11.112   8.743  14.779 -0.0262  0.0804  0.1032
15322W        W35602   7.674   8.462  16.299  0.1587  0.0390 -0.2135
15323W        W35603  13.190   0.274   1.457 -0.1003  0.1956 -0.1371
15324W        W35604   9.579   2.364   1.747 -0.1558 -0.1266  0.0030
15325W        W35605  16.416   6.382   3.420 -0.1778  0.0219  0.2702
15326W        W35606   0.477   6.984   2.442  0.3136  0.1643 -0.0752
15327W        W35607   8.091  10.166  13.193 -0.0552  0.3700 -0.2814
15328W        W35608  16.619   3.836  14.897 -0.0309 -0.0506  0.0293
15329W        W35609  13.547   9.195  14.271  0.2448  0.3213  0.0634
15330W        W35610  17.456   9.872   0.167 -0.3596 -0.0079 -0.0537
15331W        W35611  13.369   4.569   4.621  0.3521  0.0013 -0.0997
15332W        W35612   5.234  15.620   4.694 -0.0164 -0.1945 -0.4081
15333W        W35613   7.585   0.155  14.281 -0.1468  0.0614  0.1897
15334W        W35614   0.095   1.622  14.932  0.0771  0.0660  0.0243
15335W        W35615   5.008   5.686  15.507 -0.3076  0.1142  0.0488
15336W        W35616   5.165   3.338   3.762  0.0616  0.1798  0.1352
15337W        W35617   8.931  16.062  16.125 -0.2661  0.0940  0.0496
15338W        W35618   2.271   5.603  14.566  0.0480 -0.1440  0.0870
15339W        W35619   0.563  17.969  16.012 -0.1607  0.2837 -0.3157
15340W        W35620   8.867   6.508  13.339  0.1872  0.0530  0.0624
15341W        W35621  13.313   0.608  12.059  0.2373 -0.2512  0.0284
15342W        W35622  13.604   1.329  14.042  0.0314  0.0492 -0.2503
15343W        W35623  13.192  16.645   1.684  0.1185 -0.0191  0.0120
15344W        W35624   5.141   9.921   2.895 -0.1724  0.0559 -0.1300
15345W        W35625   9.604  10.800   5.198 -0.1893 -0.2381 -0.2428
15346W        W35626   1.313   6.999  16.309 -0.0025 -0.1695  0.1461
15347W        W35627   5.451  11.380   0.285  0.0750  0.0713 -0.0828
15348W        W35628  11.367   5.602   2.053 -0.2654 -0.1991  0.0440
15349W        W35629   8.837  15.934  13.525  0.2386 -0.2267  0.0123
15350W        W35630  16.673  17.607  15.327 -0.0146  0.1490  0.1366
15351W        W35631  15.889  11.847  14.140  0.0730  0.2600  0.2915
15352W        W35632   1.222   0.990   0.323  0.2039  0.0834 -0.0244
15353W        W35633  17.391   0.926   0.139  0.0459 -0.0911  0.0112
15354W        W35634   8.747   8.256   2.137 -0.0154  0.1584  0.1146
15355W        W35635  17.587   3.145   3.985 -0.3432  0.1431 -0.2003
15356W        W35636   8.173   5.937  12.268  0.0876  0.1375  0.0798
15357W        W35637   5.602   6.120  12.114  0.1626  0.0700  0.1602
15358W        W35638  15.451   9.279   2.728  0.1452  0.2790 -0.1950
15359W        W35639   3.504  10.766   1.992  0.3243 -0.1497  0.2914
15360W        W35640  17.371  10.563   3.552  0.2701 -0.0241  0.0041
15361W        W35641  17.024  13.951  15.883 -0.5440  0.0325  0.1869
15362W        W35642   2.271  14.243  14.878 -0.2559  0.3312 -0.4358
15363W        W35643   8.985  15.966  12.867  0.1286  0.0267 -0.2356
15364W        W35644  11.299  15.733  12.684  0.0100  0.1208 -0.2342
15365W        W35645  12.161   8.069  13.018 -0.0849 -0.1064 -0.1566
15366W        W35646   4.948   6.817   3.099 -0.1040  0.1654 -0.4387
15367W        W35647   3.145   0.860   2.127  0.2045  0.1130  0.1092
15368W        W35648  13.788   8.483  13.834  0.1247 -0.1702 -0.0786
15369W        W35649   1.858  17.713   0.595  0.2485 -0.0925  0.0804
15370W        W35650  15.059   0.993  15.689  0.0141  0.2577  0.1042
15371W        W35651   7.055  13.753   0.854 -0.1834  0.4235  0.1104
15372W        W35652  12.405   0.867  16.292 -0.0710  0.3112  0.0263
15373W        W35653   0.108  12.389   2.399  0.0515  0.1927  0.1468
15374W        W35654  11.002   2.682   0.036  0.0124  0.1137 -0.0228
15375W        W35655  12.674   2.243  12.642 -0.1904 -0.0125  0.1362
15376W        W35656   0.891  11.524   3.555  0.0082  0.0196 -0.0135
15377W        W35657   7.302  16.055  13.167  0.0854  0.0116 -0.1462
15378W        W35658   1.064   3.394  13.132  0.2628 -0.1770  0.1141
15379W        W35659   6.825   0.199   0.255 -0.2348  0.4763  0.2044
15380W        W35660  13.370  12.449  11.648 -0.0030  0.0150  0.1143
15381W        W35661  10.757   6.600  16.656  0.2073 -0.1376 -0.0729
15382W        W35662   3.581  12.245  14.018 -0.3890  0.1245 -0.0080
15383W        W35663  10.319  16.641   2.866  0.0764 -0.0254  0.1756
15384W        W35664   3.425  11.967  16.103 -0.1679  0.0469 -0.0628
15385W        W35665  12.361   2.917   1.432 -0.1206  0.3588 -0.1407
15386W        W35666   0.060  16.929  13.401 -0.0681  0.2265 -0.1855
15387W        W35667   0.277  12.353  12.730  0.1426 -0.0971  0.3083
15388W        W35668   9.828   4.576  15.181 -0.0306 -0.2239  0.0795
15389W        W35669  17.608  11.554  15.267  0.2022 -0.0942 -0.0008
15390W        W35670   6.848  15.885   1.880 -0.2700 -0.0370 -0.0791
15391W        W35671   7.045  11.178   3.245 -0.2263  0.1893  0.2533
15392W        W35672  16.823  11.879   4.914  0.1894  0.0019  0.1493
15393W        W35673  15.006   4.869  15.889 -0.0265 -0.0001 -0.1023
15394W        W35674   2.250   3.002  13.834  0.0742  0.2208 -0.0554
15395W        W35675   2.894  16.440  15.879 -0.2761  0.2932 -0.1804
15396W        W35676  17.060  14.199  12.701 -0.1861 -0.2358 -0.1953
15397W        W35677  17.752   2.696   3.697  0.0201 -0.1129 -0.0922
15398W        W35678   7.815   3.652   0.164  0.0287 -0.1356 -0.3604
15399W        W35679  11.154   6.594   4.119 -0.0600  0.0542  0.2192
15400W        W35680  11.412   6.997  13.072  0.0878  0.0068 -0.3455
15401W        W35681  12.119  15.836  14.932 -0.1847  0.4966  0.2950
15402W        W35682  15.385  14.961  14.950 -0.4270  0.0808 -0.0050
15403W        W35683  11.444   4.863  12.665  0.1202  0.4036 -0.4992
15404W        W35684   8.381   4.404  16.112 -0.0811  0.1515 -0.3640
15405W        W35685  13.266   9.969  16.239 -0.1347 -0.0322  0.0309
15406W        W35686   8.095   8.823  13.328  0.1752  0.2308  0.0222
15407W        W35687   9.293  14.568   1.925  0.0549 -0.2115 -0.3478
15408W        W35688  12.319   1.435  13.922  0.5137  0.0759 -0.0608
15409W        W35689  10.833  13.049   3.069  0.0143 -0.0570  0.0068
15410W        W35690  16.267  14.086   1.588  0.1973  0.1535  0.1071
15411W        W35691   2.331   6.350   3.808  0.0791  0.0397 -0.0959
15412W        W35692  13.009  16.008   2.325 -0.1476  0.2635  0.1942
15413W        W35693   5.069  16.112   2.633  0.1496 -0.0394 -0.0819
15414W        W35694   9.004   3.852   3.408  0.0827  0.0476 -0.0832
15415W        W35695  14.002  16.229  12.656 -0.0429  0.1131 -0.1771
15416W        W35696   1.983   9.324   5.604  0.0747 -0.5197 -0.1863
15417W        W35697  15.476   4.339  11.689 -0.0862  0.0346 -0.0925
15418W        W35698  16.112   7.386   1.943 -0.2058  0.3444 -0.1419
15419W        W35699   0.330   1.155   4.456 -0.0080 -0.0991  0.3492
15420W        W35700   7.056   9.019   3.493  0.0436  0.2392 -0.0951
15421W        W35701   6.186  11.699  16.275 -0.1435 -0.2096  0.0774
15422W        W35702  14.950  15.743  14.573  0.2263  0.4237 -0.0813
15423W        W35703  12.117   9.912   3.208  0.2545  0.2363 -0.1712
15424W        W35704  10.146   5.201   3.543  0.0891  0.3135  0.3405
15425W        W35705   3.695   2.951  16.650  0.0695  0.2946  0.0152
15426W        W35706  17.516  14.331  12.988 -0.0178 -0.0335  0.0218
15427W        W35707   5.462  16.452   2.824 -0.0243  0.0131  0.2930
15428W        W35708   7.098   1.065   0.447  0.3707  0.2944  0.1505
15429W        W35709   7.182   6.288   4.676  0.1561  0.0698 -0.0983
15430W        W35710  12.762  14.524  15.057  0.0425 -0.0052  0.1704
15431W        W35711  12.773   4.605  14.392  0.0406  0.0294  0.0933
15432W        W35712   3.307   1.911   1.311  0.1097  0.0307 -0.1551
15433W        W35713  10.869  17.834   1.624 -0.3338 -0.2112 -0.4420
15434W        W35714   8.799   7.415   0.833  0.2066 -0.4320  0.1157
15435W        W35715   9.277   8.939  12.222  0.0716  0.0019 -0.3489
15436W        W35716  15.277   2.644  16.690  0.1137 -0.0623 -0.1634
15437W        W35717  12.578   2.090  10.498  0.0853 -0.3067 -0.1799
15438W        W35718   1.913  10.494   4.527 -0.0393 -0.0886  0.0802
15439W        W35719  10.025  14.775  12.081 -0.0751  0.1519  0.1746
15440W        W35720   9.162  12.009   3.738 -0.0663 -0.0495 -0.0018
15441W        W35721   1.564  15.394  12.603 -0.1435 -0.3864  0.3074
15442W        W35722   1.832   3.655  15.684  0.2988  0.0980 -0.0310
15443W        W35723   8.491  13.013  16.500  0.1874 -0.4248 -0.1572
15444W        W35724   9.975  13.258   4.364 -0.1899  0.2588 -0.1972
15445W        W35725   6.972  17.326   0.789  0.0707  0.1214 -0.0254
15446W        W35726   0.250  13.487   0.243  0.2859 -0.1666  0.1940
15447W        W35727  14.041  11.718   4.347 -0.0792 -0.1185  0.0868
15448W        W35728  11.387  12.832  12.133  0.1177 -0.2041  0.0248
15449W        W35729  12.703  13.348   4.833 -0.0284 -0.1890 -0.0981
15450W        W35730  12.886  14.030   2.354  0.0050 -0.1447  0.1323
15451W        W35731   3.943   2.283   3.566  0.0107  0.1756  0.3573
15452W        W35732   1.498  10.396  12.591 -0.1784  0.1352 -0.0216
15453W        W35733   9.422   7.093  12.724  0.1525 -0.0330  0.0477
15454W        W35734   2.344  12.701  16.053 -0.2945 -0.0326 -0.3196
15455W        W35735   1.997  11.495   2.954  0.0750  0.2975 -0.1741
15456W        W35736   1.916  16.051   3.989 -0.1343  0.0826  0.0337
15457W        W35737   9.084  15.694   2.023 -0.2243 -0.1043 -0.2074
15458W        W35738  13.766  16.503   2.360  0.0430 -0.0990 -0.0228
15459W        W35739  14.093   5.782   3.530  0.2343 -0.1472  0.0776
15460W        W35740  16.559   1.642  14.462  0.0796 -0.1415  0.0669
15461W        W35741  14.440   6.726   2.465  0.3717  0.0430 -0.1867
15462W        W35742   3.207   1.079  12.285  0.3426 -0.3514  0.2723
15463W        W35743   4.762  13.848  14.073 -0.0282  0.4775 -0.2929
15464W        W35744   8.391   0.263  14.788  0.1034 -0.1489  0.2897
15465W        W35745  10.833   1.615   4.628 -0.0266 -0.1664 -0.0356
15466W        W35746   7.699  14.215   2.189  0.1651  0.3970 -0.0232
15467W        W35747   7.951   5.433  12.156 -0.3638 -0.1984  0.0030
15468W        W35748   3.919  16.771   0.001 -0.0730 -0.0372  0.0231
15469W        W35749   5.880   2.955   3.886  0.1384 -0.3512  0.2204
15470W        W35750  13.003   7.627  16.230 -0.3237  0.0011  0.0803
15471W        W35751   3.779  16.854  13.800 -0.1110 -0.2683  0.1738
15472W        W35752   0.811  11.660   4.029 -0.0885 -0.1916 -0.2550
15473W        W35753   6.003  16.327   3.588  0.3564  0.2223 -0.2813
15474W        W35754  11.170   6.353  15.743  0.0861  0.1270 -0.0549
15475W        W35755  11.816  13.231  15.738 -0.2821 -0.3280  0.0905
15476W        W35756   9.644   8.885   1.800 -0.2618 -0.3879  0.2937
15477W        W35757   1.557  10.573   2.620 -0.0900 -0.0380  0.3280
15478W        W35758  13.276  17.605   4.394 -0.3907  0.0909 -0.2932
15479W        W35759   6.399   4.111   1.799 -0.3444  0.1505 -0.2013
15480W        W35760   8.744  17.527  14.580  0.2809  0.4088 -0.1728
15481W        W35761  10.059   8.566   1.471  0.1417  0.1147 -0.1674
15482W        W35762  11.769   1.875   0.021 -0.1768  0.0624 -0.0734
15483W        W35763   2.345  14.361  16.459  0.0254 -0.1558  0.2102
15484W        W35764  10.069  16.749   2.437  0.0991 -0.3434 -0.1893
15485W        W35765  13.592   6.148  14.834  0.1584 -0.1554  0.3517
15486W        W35766  15.632  10.572   0.152  0.1025 -0.3177 -0.3438
15487W        W35767   8.431   2.496  15.752 -0.1619  0.0184  0.1493
15488W        W35768  16.020   5.980   0.728  0.0102 -0.1237 -0.1826
15489W        W35769   8.009  17.135   4.547 -0.0668 -0.1279  0.2320
15490W        W35770   9.109   4.115   1.160  0.1600 -0.1544 -0.0889
15491W        W35771  12.702   8.113  13.198 -0.0326 -0.0644 -0.3220
15492W        W35772  12.566   0.457  13.707  0.0145 -0.0616 -0.1263
15493W        W35773  17.669   2.440  13.097  0.2373 -0.0712  0.0118
15494W        W35774   3.330   5.166  15.577 -0.2390 -0.1551 -0.3925
15495W        W35775  14.236  13.995  15.989 -0.1919  0.1440  0.2212
15496W        W35776   9.850  10.876   4.227 -0.0422  0.1843  0.0036
15497W        W35777  17.194  11.958  14.707  0.1550 -0.1640 -0.1268
15498W        W35778  10.530  10.993   3.191 -0.0777 -0.0948  0.0800
15499W        W35779  14.292   5.180   0.557  0.0463  0.3601 -0.1762
15500W        W35780   4.587   4.743  13.506  0.1960  0.0823  0.2082
15501W        W35781  11.726   4.710   4.193 -0.1973  0.2594 -0.0463
15502W        W35782  12.691  17.780   0.538  0.0837  0.0789 -0.0901
15503W        W35783   3.315  17.738   1.136 -0.2285 -0.1387 -0.3872
15504W        W35784   0.027  16.711  15.374 -0.0233  0.3746 -0.0611
15505W        W35785   7.096   5.748   0.528 -0.0372  0.2817  0.0860
15506W        W35786   1.347   0.243   2.506  0.0240  0.1672 -0.1573
15507W        W35787   0.634  11.658   2.323  0.1457  0.3991 -0.1624
15508W        W35788  13.556   0.137  13.223  0.1848 -0.0260 -0.0602
15509W        W35789   1.026  12.104   4.068  0.1843 -0.1009  0.1528
15510W        W35790  12.792  14.056  12.024 -0.0230 -0.0268  0.0247
15511W        W35791   5.840   1.246  12.469 -0.0292  0.2687  0.3212
15512W        W35792  15.401  14.887  13.075  0.1423  0.0460 -0.0060
15513W        W35793   2.842   6.103   5.527 -0.2701 -0.1213  0.0253
15514W        W35794  17.662   6.750   1.867 -0.0760  0.1616  0.0322
15515W        W35795  12.837   8.639   4.113 -0.1026 -0.0685  0.1450
15516W        W35796  16.406  10.139  13.187 -0.1425 -0.2940  0.0559
15517W        W35797  15.971  15.122   0.021 -0.1132 -0.1354  0.1909
15518W        W35798  15.079  13.602   2.014 -0.1096 -0.1225 -0.1225
15519W        W35799  13.199  13.686   3.995  0.1396 -0.1071  0.1050
15520W        W35800   0.720   6.705  14.518  0.0005 -0.2437  0.0524
15521W        W35801   3.635  12.661   3.196  0.1291 -0.1916  0.0559
15522W        W35802   0.302   3.446   0.965  0.0264  0.1005  0.3061
15523W        W35803   1.289   6.466  12.158  0.1527  0.1427 -0.1048
15524W        W35804  15.769   4.690   1.031 -0.2084 -0.1570 -0.0317
15525W        W35805   2.852   7.865   1.029 -0.1676 -0.0640 -0.0749
15526W        W35806   7.916   5.778  12.738  0.1504 -0.0365  0.0088
15527W        W35807   9.524   5.029  15.088 -0.0006  0.3628  0.1352
15528W        W35808  17.815   0.962  15.959  0.1207 -0.0533 -0.1801
15529W        W35809   8.309   4.139  12.947  0.1887  0.2320 -0.0318
15530W        W35810  10.110   3.380   1.571 -0.2893 -0.3032  0.1201
15531W        W35811   0.754  11.283  15.270 -0.3029 -0.1013  0.0011
15532W        W35812   2.097  10.188  12.027 -0.2372 -0.1009  0.3333
15533W        W35813  12.966   2.902   2.666 -0.2879  0.0079  0.1008
15534W        W35814   8.330   2.864   2.439  0.1548  0.0525  0.1573
15535W        W35815   2.376   4.216   0.042 -0.0450 -0.1661  0.1524
15536W        W35816   4.172  16.975  13.340  0.2552 -0.0911  0.3552
15537W        W35817  11.092  15.857  13.149  0.2373  0.1476  0.1480
15538W        W35818   8.466   8.000   2.597 -0.0040 -0.0303 -0.2237
15539W        W35819  10.206   3.056  16.590  0.1306  0.0781  0.0166
15540W        W35820  15.250  11.466  15.918  0.1240 -0.0848 -0.1268
15541W        W35821  12.183   9.637  15.062 -0.1877 -0.0858  0.0262
15542W        W35822  12.705  17.300   0.648  0.0712 -0.1976 -0.2149
15543W        W35823   8.364  12.096  15.570  0.1013  0.0952 -0.0192
15544W        W35824   4.665   0.188   3.163 -0.1329 -0.3159 -0.2322
15545W        W35825   5.077   1.993   2.043 -0.0133  0.2153  0.0441
15546W        W35826   1.990  15.776  12.597 -0.1354  0.3431  0.2245
15547W        W35827   3.486   9.491   2.762  0.2009 -0.2526  0.0071
15548W        W35828  17.039   5.156  12.084  0.3450 -0.2591  0.4312
15549W        W35829  11.173   8.406   2.948  0.0558 -0.2993 -0.0931
15550W        W35830   2.221  16.270   4.908  0.3424 -0.1355 -0.0676
15551W        W35831   0.679  11.237   2.631 -0.1169 -0.2355  0.5946
15552W        W35832   3.141  16.244   3.344  0.2541 -0.5349  0.0431
15553W        W35833  17.718  15.501   1.461 -0.0625  0.1887 -0.4437
15554W        W35834   9.200   6.650   1.732  0.0426  0.0895  0.3262
15555W        W35835   8.258   0.543   2.860  0.1729  0.1319 -0.0301
15556W        W35836   4.427   5.732   3.456  0.1987 -0.2090 -0.0510
15557W        W35837   3.366  10.313  12.317  0.1674 -0.3778 -0.2032
15558W        W35838  16.302   8.668   2.461 -0.0506 -0.0893  0.0706
15559W        W35839   3.724   5.256  14.086  0.0912 -0.0919  0.0379
15560W        W35840   1.624  13.709   0.999  0.2409 -0.0960  0.2446
15561W        W35841  17.231   2.609  16.104 -0.0827 -0.1353  0.1967
15562W        W35842   0.906   0.014  15.096 -0.0123  0.1375 -0.0770
15563W        W35843   5.847  17.788  15.813  0.0068  0.0473  0.1613
15564W        W35844  16.084   0.662   3.785 -0.0808  0.0017 -0.2255
15565W        W35845  10.028  11.798   2.143  0.1777  0.3340 -0.0214
15566W        W35846  17.272   1.212   3.028 -0.2474 -0.0278  0.1098
15567W        W35847   0.850  12.410  16.509  0.2036  0.2857  0.4591
15568W        W35848  16.895   4.651  15.295 -0.0739 -0.3951 -0.0252
15569W        W35849   2.304  12.004  11.913 -0.1876 -0.3182 -0.3277
15570W        W35850   9.804   8.141   2.951 -0.1472 -0.0416  0.3550
15571W        W35851   4.436  16.665  14.404 -0.2202 -0.3565  0.1829
15572W        W35852  10.208   5.274  11.671 -0.1137 -0.1969  0.0619
15573W        W35853  17.175   1.168   0.712  0.1606 -0.0837  0.2795
15574W        W35854   8.515  16.263   3.978  0.1594  0.0517  0.3557
15575W        W35855  15.724   2.444   0.379 -0.2824  0.2295 -0.2796
15576W        W35856  17.559  16.863   3.429 -0.2053  0.1342 -0.1517
15577W        W35857  17.518   4.299   3.763  0.0355  0.0484  0.1296
15578W        W35858   1.924   8.610   5.186  0.0590 -0.2603 -0.1538
15579W        W35859   6.062   4.121   3.118  0.0940 -0.0859  0.0082
15580W        W35860   2.486   5.669  16.032  0.3342 -0.2559 -0.2311
15581W        W35861   6.143  14.576   4.070  0.1746 -0.0654  0.0104
15582W        W35862  16.393   2.990   1.798 -0.0518  0.1254 -0.0604
15583W        W35863   5.786   2.813   3.013 -0.2709 -0.2689  0.4637
15584W        W35864   4.856   9.375   1.472 -0.0120  0.4042  0.0361
15585W        W35865   8.584  17.510   3.700  0.3427 -0.0757  0.1221
15586W        W35866  16.958   2.439   3.916 -0.2291  0.3874  0.0686
15587W        W35867  14.507  16.645   5.487  0.1184 -0.1126 -0.6770
15588W        W35868   6.771  17.877   4.160 -0.2600  0.1100  0.0922
15589W        W35869  11.602   5.823  11.652 -0.0344  0.1028  0.2936
15590W        W35870   0.300   7.912  12.549  0.1238 -0.0297 -0.1351
15591W        W35871   3.346  14.695  12.462 -0.0720  0.1649 -0.2641
15592W        W35872   6.508   3.446  12.119  0.3305  0.3415 -0.1554
15593W        W35873  12.075  10.930   0.677 -0.0170 -0.0935 -0.1259
15594W        W35874   1.794  11.484  14.770 -0.2008  0.2501 -0.1704
15595W        W35875  14.503   1.850  16.457  0.0367 -0.1220 -0.2422
15596W        W35876   2.153  14.745  15.086 -0.3450 -0.0495 -0.0873
15597W        W35877   9.858   2.323  15.165 -0.0896  0.0197 -0.0040
15598W        W35878   3.160  16.847  15.918 -0.0616 -0.2032  0.1187
15599W        W35879  11.948  16.508   1.897  0.0271 -0.0597  0.1101
15600W        W35880   4.722   8.520  15.729  0.0648 -0.0246  0.0087
15601W        W35881   5.989   2.009  12.770  0.1652  0.1763  0.1332
15602W        W35882  13.808  14.852  13.454 -0.0560 -0.2291 -0.3023
15603W        W35883  13.990   5.879  11.645 -0.2499  0.4353  0.0944
15604W        W35884  11.239  14.573  13.223 -0.2089 -0.0855 -0.0344
15605W        W35885   6.347   9.422   3.191  0.0190  0.0717  0.0643
15606W        W35886   8.136  14.973  12.753  0.2229  0.0466  0.0874
15607W        W35887   5.560   9.262  14.593 -0.3059 -0.1441 -0.1081
15608W        W35888   0.767   0.741  15.779  0.2406 -0.0718  0.0817
15609W        W35889   5.588   7.559   0.241 -0.0817 -0.1771  0.3932
15610W        W35890   7.027   3.755   2.320  0.4792 -0.2077 -0.0051
15611W        W35891   5.177   9.435  15.725  0.1482 -0.0466 -0.0119
15612W        W35892   8.227  13.945  12.274 -0.1357  0.0687  0.1638
15613W        W35893   6.900  10.636   3.523  0.3926  0.2760 -0.0601
15614W        W35894  15.203   3.515   4.283  0.2318 -0.1835  0.0074
15615W        W35895   5.850   5.431  14.295 -0.0631 -0.0823  0.2397
15616W        W35896  14.182   4.013  11.862  0.0414  0.1135  0.2261
15617W        W35897   8.109   6.725  11.942  0.1217 -0.1635  0.1547
15618W        W35898  10.330   6.207  12.428  0.1409  0.2202  0.1844
15619W        W35899  10.444   9.560  13.129 -0.0414 -0.0846  0.0036
15620W        W35900  10.092  11.275   1.498 -0.4429 -0.3167  0.0136
15621W        W35901  14.948  15.195  13.053 -0.0264  0.0102 -0.1210
15622W        W35902  17.915  17.865  15.298  0.1686 -0.0179  0.4835
15623W        W35903   2.624   5.487  14.963  0.1359  0.1707  0.2422
15624W        W35904   1.271   6.330  16.037 -0.1611 -0.1878 -0.1749
15625W        W35905  10.193   7.202  16.389 -0.1316  0.1179 -0.0247
15626W        W35906  14.804  14.758  14.311  0.3021 -0.2886 -0.0047
15627W        W35907  15.696   0.975   0.730  0.0240  0.0562  0.0133
15628W        W35908  13.314   4.115   3.741 -0.1968  0.0361  0.1150
15629W        W35909   0.987  10.997   4.468 -0.1654 -0.0283  0.0088
15630W        W35910   2.412  16.696   4.600  0.1016  0.1722 -0.0858
15631W        W35911   2.008   0.468  14.611  0.4297 -0.1101  0.1249
15632W        W35912   3.314   9.688   4.202 -0.0631 -0.1272 -0.0504
15633W        W35913  13.424   3.531   3.881  0.2691  0.0466 -0.0960
15634W        W35914  14.657   6.129  12.205 -0.0577 -0.1039  0.0153
15635W        W35915  12.998  14.531  14.106 -0.3116 -0.2021  0.3142
15636W        W35916   9.703  17.082  15.493  0.0402 -0.3144  0.0722
15637W        W35917  15.578  12.442  16.132  0.1391 -0.2951 -0.2648
15638W        W35918  13.347  14.765   2.664  0.2655 -0.0689 -0.0484
15639W        W35919  11.501   4.386  12.757  0.1573  0.0301  0.0764
15640W        W35920  11.279  11.858  14.297  0.2886 -0.5955  0.1119
15641W        W35921  16.503   7.485   1.173  0.0176 -0.2209 -0.4569
15642W        W35922  15.547   3.843   0.799  0.2308 -0.3297  0.3135
15643W        W35923   5.369  16.515   3.651  0.2425  0.1945 -0.1074
15644W        W35924   6.196   9.661   1.623  0.1372 -0.1462  0.1384
15645W        W35925  11.455   7.269  16.029 -0.1040 -0.1168 -0.0329
15646W        W35926   3.822   5.186  15.793  0.1845  0.0533 -0.0774
15647W        W35927   9.183   0.708  13.581  0.2025  0.1405 -0.0674
15648W        W35928   4.893   5.016  12.572 -0.2348  0.2555 -0.0589
15649W        W35929   3.169  15.204  13.614 -0.3446  0.1062 -0.2069
15650W        W35930   0.774   0.396   0.889  0.1859 -0.0425 -0.1546
15651W        W35931   7.230   3.048   2.692  0.3122  0.0393  0.0103
15652W        W35932   0.311   5.864  16.089  0.0585  0.0487 -0.1480
15653W        W35933  14.819   1.467   2.861  0.1753  0.1832  0.1592
15654W        W35934   1.260  14.166  16.628  0.0907  0.0044  0.0747
15655W        W35935   5.878   0.471  13.610 -0.0022  0.1105  0.4677
15656W        W35936  11.316  14.485   3.183  0.1818  0.0764 -0.2872
15657W        W35937  14.258   1.314   0.437  0.0612 -0.1564  0.4209
15658W        W35938   8.489  16.267  13.762 -0.3372  0.1085  0.0546
15659W        W35939  17.234  11.382  16.691  0.3073 -0.1529 -0.0989
15660W        W35940   0.301   0.923  15.844  0.3399 -0.1599 -0.0353
15661W        W35941   5.135   2.783  15.692  0.0120  0.0193  0.0803
15662W        W35942  12.836  14.390   1.019  0.0221 -0.0297  0.4303
15663W        W35943  16.509   6.641   0.556 -0.0344 -0.0431 -0.1091
15664W        W35944  14.217  14.968   3.004 -0.4686 -0.0263 -0.0851
15665W        W35945  10.857   4.643   4.589 -0.0477 -0.0752 -0.1118
15666W        W35946   6.334   0.282   4.263  0.1000  0.1934 -0.1229
15667W        W35947  14.593   3.514   1.753 -0.1969 -0.2907 -0.1370
15668W        W35948  11.796   4.567  13.995  0.3899  0.1256 -0.3764
15669W        W35949  15.043   4.015   2.325 -0.2570  0.1185  0.0051
15670W        W35950   4.545  16.997  12.962  0.1434  0.1610  0.0285
15671W        W35951   4.722  13.890   3.340 -0.0746  0.0473 -0.0847
15672W        W35952  11.929   6.412  12.521 -0.0454  0.1094 -0.3506
15673W        W35953  10.309  12.662   3.379 -0.0001  0.0373  0.1950
15674W        W35954  13.631   3.389  14.252  0.0095 -0.4371  0.0692
15675W        W35955   9.951   8.612   4.382 -0.3806 -0.2282  0.2591
15676W        W35956   4.586   7.285  14.317  0.0599  0.0163  0.1397
15677W        W35957   5.415   8.337   4.311  0.0493  0.0589  0.0743
15678W        W35958   1.833   8.804   2.313  0.1378  0.3713  0.0172
15679W        W35959   2.183   1.160   3.189  0.0667 -0.4561  0.0539
15680W        W35960   4.667   6.874  15.682  0.1087 -0.0044  0.1594
15681W        W35961   1.115   0.251  14.282  0.1166  0.2824  0.1387
15682W        W35962   3.387  14.796   3.117 -0.1381 -0.2344 -0.1437
15683W        W35963   9.895   2.987   3.106 -0.0764 -0.0225 -0.1770
15684W        W35964  13.273   2.201  15.622 -0.0088 -0.2145  0.4393
15685W        W35965  11.683   6.675   3.509 -0.0077 -0.1333  0.2164
15686W        W35966   5.791   2.196   4.872 -0.2255  0.1163  0.0381
15687W        W35967   7.165   9.666  16.545  0.2369  0.0608 -0.2010
15688W        W35968   2.377   7.258   3.087  0.3528  0.0250  0.2370
15689W        W35969   0.643  12.585  16.098 -0.1810  0.2663 -0.0600
15690W        W35970   2.355   0.819  12.267  0.0058 -0.1036  0.0172
15691W        W35971  13.903  15.601   1.942  0.1453  0.4340 -0.0345
15692W        W35972   6.248  17.725   4.109  0.0268 -0.0205 -0.1430
15693W        W35973   4.745   9.578   3.877  0.0431 -0.0380 -0.1440
15694W        W35974   0.309   3.790   4.079  0.1568  0.1965  0.1020
15695W        W35975  14.945  11.382   4.801  0.0047  0.0691 -0.0643
15696W        W35976   2.410   6.051  15.517 -0.0932 -0.0168  0.2292
15697W        W35977   7.343  17.120   1.661  0.0024  0.3350  0.0120
15698W        W35978  15.877   7.261   3.248  0.0732 -0.2884 -0.2345
15699W        W35979  12.972  13.612  14.893  0.1248 -0.1252  0.4242
15700W        W35980  17.554   0.384  14.747  0.0420  0.0106  0.1423
15701W        W35981   4.472  15.527  13.036 -0.0297  0.0763  0.0043
15702W        W35982   8.931  13.463  14.695  0.1257 -0.3371  0.0288
15703W        W35983   2.027   7.768   0.870 -0.0968  0.0278 -0.1580
15704W        W35984   6.109   5.638   0.996 -0.1488 -0.3164 -0.2256
15705W        W35985   1.588  17.215   0.949  0.2713 -0.1733  0.3647
15706W        W35986   6.145  15.677  16.426  0.0174 -0.1428  0.2995
15707W        W35987   3.598  15.151  15.685  0.2436  0.1931 -0.1567
15708W        W35988   6.083   3.986   2.191  0.0497  0.0377  0.2784
15709W        W35989  10.135  13.450  14.718  0.0243  0.0604 -0.1929
15710W        W35990  16.804  15.493   0.491 -0.1572 -0.1177  0.2742
15711W        W35991  10.043   7.127   3.428 -0.2143 -0.0001 -0.0542
15712W        W35992   9.960  12.035   4.139  0.1444 -0.2061 -0.4562
15713W        W35993   8.390   8.676   3.692 -0.0236 -0.0951 -0.1980
15714W        W35994  14.160   0.514   2.356 -0.1014  0.0545 -0.1643
15715W        W35995  14.202  15.091  13.703 -0.0377 -0.2103 -0.1173
15716W        W35996   8.412   1.293  13.441  0.0406  0.1639  0.0816
15717W        W35997   6.370  10.104  13.051  0.2106 -0.1627 -0.1660
15718W        W35998   7.361  14.277  15.379 -0.0230  0.0940  0.0448
15719W        W35999   2.212   1.357   0.663 -0.4316  0.1552  0.0243
15720W        W36000   5.349   7.006  12.394  0.0811 -0.0800  0.1128
15721W        W36001   7.840   8.440  13.011  0.1531  0.1148 -0.1213
15722W        W36002  15.249  17.485  13.402 -0.2525  0.0983  0.0368
15723W        W36003  15.831   1.398   0.240  0.2366 -0.6276  0.0232
15724W        W36004  12.528  17.930  13.890 -0.1877  0.1507 -0.0425
15725W        W36005  15.746   2.949   0.570  0.0767 -0.0543  0.0462
15726W        W36006  10.964  14.241   1.713 -0.0475 -0.2303  0.2100
15727W        W36007  11.394   3.791  15.039  0.1223  0.0578 -0.1045
15728W        W36008   2.918   7.135   3.820  0.1364 -0.1220  0.2782
15729W        W36009   9.876   5.189   2.603 -0.1641 -0.0378  0.0019
15730W        W36010   8.872  11.680   0.743  0.0576 -0.0142 -0.3297
15731W        W36011   9.049   0.863  16.085  0.0053  0.2084  0.2994
15732W        W36012  10.997   3.064   1.245 -0.1131  0.0090  0.1822
15733W        W36013  11.558  10.721  13.783  0.1813 -0.0675 -0.0142
15734W        W36014   2.389  17.474   4.405  0.1177 -0.0676  0.0658
15735W        W36015   7.321  12.450   0.686 -0.1015  0.0320 -0.3714
15736W        W36016  17.836   1.818   4.164  0.5440 -0.1501 -0.0625
15737W        W36017  17.596   2.313  12.553 -0.1533 -0.1426 -0.0028
15738W        W36018   2.603  13.913  14.585  0.0617 -0.0732  0.3605
15739W        W36019   7.602  10.281  15.418  0.2079  0.1706  0.1294
15740W        W36020  13.980   4.578  13.878 -0.2250 -0.0575  0.0613
15741W        W36021   5.272  13.052   3.699 -0.0659  0.1493  0.0774
15742W        W36022  10.937  10.373  13.060 -0.1074 -0.0756 -0.1383
15743W        W36023   3.351  13.084   4.992  0.1028  0.0009  0.0119
15744W        W36024  12.215  14.521  13.063  0.0211  0.0046  0.1288
15745W        W36025   4.072   3.179  13.469  0.0026  0.1279  0.1187
15746W        W36026   2.243   8.560   3.504  0.1770  0.2491 -0.1014
15747W        W36027   9.961  15.273  13.506  0.0619  0.0563 -0.0083
15748W        W36028   4.331   6.343   4.869 -0.2740  0.0749 -0.0726
15749W        W36029  14.276  14.557   4.764  0.3047  0.0003  0.0920
15750W        W36030   7.529   1.885  14.884  0.2474 -0.2319  0.0088
15751W        W36031   6.155  16.321  12.618 -0.1601 -0.0487 -0.3795
15752W        W36032   7.391  11.001   1.590 -0.0842  0.3025 -0.1348
15753W        W36033   2.231   9.531  15.386 -0.2946  0.0673 -0.2896
15754W        W36034   8.973   1.710  15.557 -0.1748  0.1371 -0.1274
15755W        W36035  17.866  10.991  16.223 -0.1252 -0.3183 -0.1173
15756W        W36036  10.047   2.573   2.825 -0.0671  0.1426  0.1839
15757W        W36037   5.691  15.462  12.621 -0.0049 -0.0102 -0.0239
15758W        W36038   9.735  17.098   2.474 -0.0082 -0.1164 -0.1043
15759W        W36039   2.537   4.802   1.933  0.0129  0.3156  0.1813
15760W        W36040   6.324  16.169   1.314 -0.2888  0.0377  0.2755
15761W        W36041  10.594   3.530  13.259 -0.0483  0.1787  0.2193
15762W        W36042  16.979   4.353  16.570 -0.0492  0.2766  0.0514
15763W        W36043   9.363  11.447  15.857 -0.1811  0.0451 -0.1811
15764W        W36044  13.698  14.676   1.951 -0.1099  0.0009 -0.2169
15765W        W36045   4.001  10.978   5.136  0.1216  0.1217 -0.2106
15766W        W36046  13.867   8.404  14.794  0.2084 -0.1932  0.0950
15767W        W36047  16.642  14.531   2.859 -0.1248 -0.1645 -0.0073
15768W        W36048   1.038  11.438  11.064  0.0557 -0.1740  0.0894
15769W        W36049   8.582   8.787  13.270 -0.0890  0.0438  0.0732
15770W        W36050  10.984   9.569   0.456  0.0734  0.0747 -0.0199
15771W        W36051   5.568  17.064  13.573  0.1139  0.0339  0.4682
15772W        W36052  16.439  10.891  13.903  0.1138 -0.2573  0.0038
15773W        W36053  11.120  10.475   3.840 -0.0285 -0.1914 -0.1641
15774W        W36054   8.833   3.748  12.520 -0.0097  0.1746 -0.2945
15775W        W36055   2.008   9.789  15.852  0.1894  0.0719 -0.0097
15776W        W36056   8.348  16.376  14.262  0.2419 -0.6609  0.1018
15777W        W36057   4.487  14.794   5.056  0.3130  0.1055 -0.0704
15778W        W36058  10.704   9.518   4.753  0.0050 -0.1500  0.1810
15779W        W36059   6.391  14.990  13.781  0.0707 -0.0991  0.1349
15780W        W36060   6.784   9.533   4.729 -0.0976 -0.1794  0.0882
15781W        W36061  10.035   9.148  15.031 -0.2107  0.0881 -0.1355
15782W        W36062  13.208   2.621   3.636 -0.0526 -0.2890 -0.0814
15783W        W36063  11.664   3.113   4.534 -0.1309  0.1050 -0.0263
15784W        W36064  15.701   8.439  12.314 -0.1859  0.2428  0.0484
15785W        W36065  10.144   2.622  16.293 -0.2193  0.0434  0.4015
15786W        W36066   8.514  17.319   0.223  0.1193 -0.0157  0.0488
15787W        W36067  11.485   5.326  13.378 -0.1172 -0.1478  0.0330
15788W        W36068   0.893  12.315   3.222 -0.0298 -0.1909 -0.1246
15789W        W36069  10.253   6.865  12.869  0.1070  0.3189  0.0434
15790W        W36070  17.510  10.772  15.816  0.0063  0.1880  0.0977
15791W        W36071   7.841  17.309   1.803  0.3494 -0.1228 -0.1265
15792W        W36072   6.012   0.655  12.702  0.0922 -0.0729  0.0939
15793W        W36073   8.628   1.000   2.085 -0.1612  0.1535 -0.0422
15794W        W36074  11.456   3.978  12.363  0.2181  0.0923  0.1096
15795W        W36075  15.077  11.068   3.077  0.1562 -0.0067 -0.1799
15796W        W36076  12.174   1.629   3.469  0.0299 -0.0311 -0.0076
15797W        W36077   3.114  16.377  14.956  0.1022  0.2691 -0.0950
15798W        W36078   9.782   8.296  15.245  0.0506  0.0834 -0.1275
15799W        W36079  17.812   0.931   2.384 -0.1748  0.1139  0.1689
15800W        W36080   9.197   0.311  13.904 -0.0220 -0.0756 -0.2105
15801W        W36081   0.913   2.566  14.128 -0.0743  0.0569 -0.3993
15802W        W36082   6.006   2.659  15.836  0.3093 -0.0165  0.0239
15803W        W36083  13.626  15.171   2.770 -0.1624  0.1194  0.1627
15804W        W36084  10.434   4.524   2.332  0.0134 -0.1034 -0.1491
15805W        W36085   4.504   8.391  15.236  0.1388  0.2223 -0.1607
15806W        W36086  15.248   9.139  12.800  0.0963  0.1745  0.2330
15807W        W36087   0.071  13.696  13.365 -0.1690 -0.0303 -0.3303
15808W        W36088   7.671  11.457  15.163 -0.0720  0.2192  0.3231
15809W        W36089   1.092  14.627   0.128  0.0426  0.0598 -0.0463
15810W        W36090   1.751  10.071   6.086 -0.1585 -0.2121  0.1851
15811W        W36091  13.302  12.535   0.112  0.1461  0.0203  0.0124
15812W        W36092  11.497  11.037  16.432  0.0012 -0.0563  0.0290
15813W        W36093  10.703  10.686  14.982  0.2007  0.0028  0.0289
15814W        W36094   3.744  13.394  15.493 -0.1751  0.0372 -0.0130
15815W        W36095   0.188   2.478  13.214  0.5497  0.0196 -0.3097
15816W        W36096   3.048   6.953   1.100 -0.2237 -0.0966  0.2880
15817W        W36097   3.815   6.749  15.345  0.0538 -0.1491 -0.1128
15818W        W36098   4.454  13.455  13.750  0.4694  0.4300  0.1882
15819W        W36099   7.847   9.706  12.329  0.1029  0.0626  0.2663
15820W        W36100  14.081  14.463  11.198  0.1071  0.4219 -0.5358
15821W        W36101  11.515  10.785  15.145 -0.2076 -0.1838  0.1680
15822W        W36102   7.159  15.916  13.676 -0.1186  0.1567  0.1515
15823W        W36103  10.984   9.030  15.394 -0.1829 -0.1306  0.1420
15824W        W36104  14.857  12.311   3.134  0.4007 -0.0601  0.1253
15825W        W36105  15.346   0.361   3.182  0.1299  0.0695 -0.0371
15826W        W36106  16.932  11.087  14.646 -0.0864  0.0755 -0.0535
15827W        W36107  13.539   1.944   4.008  0.0346 -0.1219  0.0529
15828W        W36108   6.753   3.165  16.041  0.0463  0.1534  0.2439
15829W        W36109   8.900  15.834  16.635  0.0089 -0.2442 -0.0278
15830W        W36110   1.663   9.954   1.038 -0.0328 -0.1826 -0.1067
15831W        W36111   6.072  16.135  13.046  0.1696 -0.1377  0.1879
15832W        W36112   9.034  10.584   2.419  0.1525  0.3464  0.1708
15833W        W36113   4.245   5.836   4.859  0.0506 -0.1826  0.0478
15834W        W36114  10.360  11.667   0.174  0.2657  0.0163 -0.3506
15835W        W36115   6.170  14.336  15.533  0.3383  0.2074 -0.1784
15836W        W36116  12.683   0.828   2.264  0.0391  0.0559  0.1242
15837W        W36117   0.236   9.244  13.872  0.0822 -0.3228  0.0610
15838W        W36118   9.237  14.608  16.500  0.1429  0.2515 -0.0936
15839W        W36119   3.397   6.756   0.099 -0.2227 -0.1408 -0.0846
15840W        W36120   3.179   3.906  12.345  0.1310  0.3213 -0.2989
15841W        W36121   6.926   2.814  12.439 -0.1071 -0.4321  0.1143
15842W        W36122   6.675   1.476  12.094 -0.1833  0.0858  0.0556
15843W        W36123   9.119  15.979   4.282  0.1276  0.0960  0.2463
15844W        W36124  13.080   2.992  14.050 -0.0083 -0.1868  0.0121
15845W        W36125  14.091  16.984  14.770 -0.1797 -0.1716 -0.1120
15846W        W36126   7.650   2.552  14.438  0.1361  0.2243 -0.2499
15847W        W36127   9.795  14.655   3.051 -0.0335 -0.0546 -0.2163
15848W        W36128  15.593  15.018  14.498 -0.0977 -0.2390 -0.1939
15849W        W36129   2.566  16.262   0.692 -0.2625  0.0523  0.1712
15850W        W36130   8.970  16.422  12.699  0.2198 -0.3289 -0.0142
15851W        W36131  12.389  11.198  15.263  0.1757 -0.1197 -0.2551
15852W        W36132  10.259   8.987   1.695  0.1708  0.0250 -0.0421
15853W        W36133   0.073   5.738   4.852  0.0419  0.1654 -0.0164
15854W        W36134  14.258   6.603   3.702 -0.1800 -0.0407  0.1055
15855W        W36135   6.020  12.087   0.973  0.0844  0.1825  0.3596
15856W        W36136   9.607  17.207   3.696  0.3051  0.0226 -0.1796
15857W        W36137  16.121   1.661   2.944  0.1211 -0.0998  0.1792
15858W        W36138   4.190  16.040  13.699  0.0737 -0.1841 -0.1314
15859W        W36139   7.631  15.479  15.104  0.0604  0.2185 -0.2498
15860W        W36140   6.142  14.446   0.000  0.0420  0.1045 -0.0290
15861W        W36141   5.594   2.021   2.305  0.0448 -0.1062 -0.0385
15862W        W36142  13.844   4.329   4.569  0.0067  0.1100  0.1047
15863W        W36143  16.307   3.528   2.780  0.0361 -0.0286 -0.0410
15864W        W36144  12.037   8.961  12.906  0.2515  0.2191  0.1882
15865W        W36145  14.324   6.805  14.222 -0.0288 -0.2996 -0.1663
15866W        W36146   0.543   5.167  15.188  0.1192 -0.1898 -0.2251
15867W        W36147  17.939  11.542  12.193 -0.6216 -0.1694 -0.0460
15868W        W36148   5.177   5.504   4.082 -0.0991 -0.3239 -0.0623
15869W        W36149  12.235  11.064   2.455 -0.2956  0.1715  0.2839
15870W        W36150  13.799   0.358  14.513  0.1666  0.0697 -0.1160
15871W        W36151  12.891  11.962   1.976 -0.1068 -0.1117 -0.0020
15872W        W36152  12.077   8.986  14.545 -0.1932  0.2939 -0.0495
15873W        W36153  15.098   6.846   2.280  0.1632  0.0239 -0.4464
15874W        W36154   2.143  16.606  12.146 -0.2606 -0.1236 -0.6080
15875W        W36155   4.479  12.777   0.137 -0.0229 -0.2292  0.3049
15876W        W36156   0.414  15.365  14.885  0.1541 -0.2959  0.1516
15877W        W36157   5.688   6.610  14.616 -0.2047 -0.0072 -0.2822
15878W        W36158   1.891  11.452   0.522  0.3307  0.3031  0.0515
15879W        W36159  15.517   2.969  15.313 -0.1303 -0.2510  0.4764
15880W        W36160   7.912   3.706  16.302  0.1056  0.0862 -0.2661
15881W        W36161  14.332   4.762   2.448  0.0547  0.1651  0.0117
15882W        W36162  12.343   4.456   3.610 -0.3096 -0.1863  0.1828
15883W        W36163   3.048  12.384  13.889  0.0149  0.2878 -0.0303
15884W        W36164   6.737   4.992   1.498 -0.3378 -0.2769 -0.0492
15885W        W36165   8.761  10.405   3.632  0.1501 -0.0102  0.0921
15886W        W36166   6.731  15.515  15.748 -0.1093  0.0578 -0.2034
15887W        W36167   0.200  12.803   3.107  0.0213 -0.3279  0.0126
15888W        W36168   8.872  15.301   3.728  0.0704 -0.0144 -0.1297
15889W        W36169   4.219   6.972  16.663  0.1268  0.0600 -0.4098
15890W        W36170   3.477  13.105   3.358 -0.1819 -0.1099  0.0188
15891W        W36171   0.872  17.271  14.481  0.0171 -0.0623 -0.1952
15892W        W36172  14.357   1.373  13.597  0.0014  0.1372  0.1627
15893W        W36173  14.441  11.618  13.180  0.1401  0.1224 -0.2032
15894W        W36174   6.444   1.773  12.945 -0.1614 -0.0378 -0.0875
15895W        W36175  10.374  16.679   3.977  0.0643 -0.0048  0.1397
15896W        W36176  17.739  10.841   4.004 -0.0121  0.0807 -0.0788
15897W        W36177   8.311   2.266  11.665  0.0524  0.1769 -0.1895
15898W        W36178   8.481  15.954   1.160 -0.0331  0.0078 -0.1296
15899W        W36179   5.471  12.278  13.214  0.0916 -0.0360 -0.0235
15900W        W36180   0.767   7.586   2.247 -0.0800  0.0981 -0.0060
15901W        W36181   3.053  11.872   3.423  0.0309  0.1517 -0.0361
15902W        W36182  14.937  16.180  15.991  0.0947 -0.0477  0.1385
15903W        W36183  17.699  10.398   3.189 -0.0225 -0.3259  0.0043
15904W        W36184  15.989   4.835   2.837  0.0935 -0.1532  0.2487
15905W        W36185  17.959   1.686   2.109  0.0179 -0.1171  0.0267
15906W        W36186   2.868  15.877   0.556 -0.1500  0.2326 -0.0151
15907W        W36187   1.824   5.955  15.426 -0.2725 -0.2139 -0.1733
15908W        W36188  15.904  17.972   0.644 -0.1505 -0.0897  0.1490
15909W        W36189   9.689   7.203  13.981  0.1140  0.1025 -0.2120
15910W        W36190   6.618  12.682   0.436  0.0467 -0.2549  0.0325
15911W        W36191  13.934   7.127   0.430 -0.0359 -0.1518 -0.1150
15912W        W36192  12.402   0.233  15.818 -0.1274  0.1171  0.1003
15913W        W36193   4.026   7.646   4.185  0.1820  0.2553 -0.0014
15914W        W36194  12.335  13.824  16.614 -0.1729 -0.4947  0.0461
15915W        W36195   3.013  15.545   1.010 -0.0200 -0.4044 -0.0745
15916W        W36196  10.907  12.485   1.324  0.3632 -0.1396  0.1215
15917W        W36197   7.540   7.855  14.321  0.0006 -0.1480  0.0355
15918W        W36198  16.845   8.178   1.761  0.0451  0.0895 -0.0950
15919W        W36199  10.219   0.534  13.975  0.2936 -0.2380 -0.1773
15920W        W36200  12.980   6.051  11.455  0.6078 -0.2997  0.2242
15921W        W36201  14.281  14.386  14.245  0.1263 -0.2412  0.1775
15922W        W36202  15.325   5.581  14.659 -0.0619 -0.3479  0.0181
15923W        W36203  12.092   7.751  15.170 -0.0085 -0.0147 -0.0191
15924W        W36204  10.264   4.649  15.452 -0.3500  0.2367 -0.2175
15925W        W36205  12.313  14.149  12.166  0.3609  0.1024  0.0953
15926W        W36206  11.321   0.596   2.326 -0.0471 -0.1432  0.0398
15927W        W36207   4.970  15.205  15.665  0.2252 -0.0273  0.0828
15928W        W36208   0.200   6.911   1.280  0.0879 -0.0352 -0.0139
15929W        W36209  16.745   2.447   2.446  0.0081 -0.1066  0.0970
15930W        W36210   9.146   0.945  14.004  0.0012  0.0748  0.0334
15931W        W36211   9.492   2.945  12.315 -0.0297  0.0597 -0.1692
15932W        W36212   7.468  14.115   3.613 -0.1047  0.1296  0.3220
15933W        W36213  12.354  10.476   1.624  0.2883  0.2205 -0.0779
15934W        W36214  13.828  12.752   2.275 -0.0717 -0.0366 -0.1203
15935W        W36215  11.002   4.364   2.370  0.3250  0.0424  0.0810
15936W        W36216  13.506   0.375  13.733  0.0705 -0.2771 -0.1273
15937W        W36217   8.565   4.663   4.199 -0.0688  0.0037  0.1855
15938W        W36218  12.433  13.136  16.478  0.0391  0.3183 -0.0331
15939W        W36219   2.080  14.263  15.858  0.0193 -0.1814  0.0230
15940W        W36220  16.135   0.472   2.840  0.4623 -0.0171 -0.0627
15941W        W36221  17.151   4.581  12.346 -0.4199 -0.1475  0.0010
15942W        W36222  14.236   9.096  16.536 -0.1867 -0.1859  0.2819
15943W        W36223  11.685  15.106   3.858  0.2953 -0.0496 -0.3406
15944W        W36224   4.315  11.812  15.666  0.0832 -0.2505 -0.6665
15945W        W36225  17.782  17.180  15.191  0.1489  0.0917 -0.1904
15946W        W36226  13.825   3.218  16.305 -0.0230  0.0800  0.0496
15947W        W36227   9.250   5.305  12.268 -0.2254  0.0511 -0.2696
15948W        W36228   1.150   7.404   4.525  0.1025 -0.1972  0.1921
15949W        W36229   1.074   2.088   3.495  0.2382  0.2019 -0.2530
15950W        W36230   0.794   4.765  15.412  0.1177  0.0271 -0.1363
15951W        W36231   1.493  12.259   4.005 -0.2165 -0.2059  0.3358
15952W        W36232   9.261  12.488  12.869 -0.0975  0.2011  0.1983
15953W        W36233  14.611   2.017  14.193  0.1190 -0.3396 -0.3569
15954W        W36234   6.485   4.202  14.942 -0.1163 -0.2227  0.0059
15955W        W36235   0.611   8.120   4.111  0.1096 -0.0390  0.3571
15956W        W36236  15.998   9.453  15.178  0.0210 -0.0257 -0.2190
15957W        W36237  12.401  13.766  13.850  0.0817 -0.0630  0.0648
15958W        W36238   6.083  17.035  16.321 -0.2121  0.0972 -0.0797
15959W        W36239   1.400   3.290   3.506  0.0827  0.0078  0.1141
15960W        W36240  15.126   1.352   0.139 -0.0784 -0.0693 -0.0441
15961W        W36241  14.516  12.302  14.104  0.1130  0.0378  0.2599
15962W        W36242   1.060  11.830   2.146  0.0643 -0.0532 -0.0426
15963W        W36243  16.978   4.376   1.244 -0.0619  0.2788 -0.0238
15964W        W36244   2.263  15.681  14.871  0.0687  0.1497  0.2759
15965W        W36245   5.377   0.077   0.260  0.2480  0.2148  0.3029
15966W        W36246  15.322  10.447  14.474  0.0152  0.1126 -0.0245
15967W        W36247   5.156   9.073   3.184 -0.2771 -0.0446 -0.0333
15968W        W36248  10.178   6.627  15.076  0.0016 -0.1159 -0.0317
15969W        W36249   0.027   4.349  16.519 -0.2335 -0.1243  0.2278
15970W        W36250  11.727  15.077   1.724 -0.2123 -0.0915 -0.2411
15971W        W36251   9.663  11.717  15.119 -0.1542  0.0519  0.2840
15972W        W36252   7.037   1.784  14.777 -0.1930  0.1103 -0.0356
15973W        W36253  14.395  16.203  16.162 -0.2686 -0.1276  0.0054
15974W        W36254  17.578   9.517  14.516  0.0641  0.0126 -0.1424
15975W        W36255   3.731   7.457   2.776 -0.3408 -0.1306 -0.0989
15976W        W36256  14.605   4.043   2.551 -0.3526  0.0005  0.1178
15977W        W36257  15.396  12.495   1.330 -0.2318 -0.1034 -0.0661
15978W        W36258  15.617   1.702   3.005  0.0737  0.1511 -0.0678
15979W        W36259  17.638  14.272  16.539  0.1814 -0.3239 -0.0780
15980W        W36260   8.612   3.740   2.522  0.1810  0.1238 -0.1148
15981W        W36261   3.596   8.220   3.499  0.0262 -0.3190 -0.0564
15982W        W36262   6.588  13.569   1.796 -0.2666  0.0279 -0.1086
15983W        W36263  16.147   2.812   2.375 -0.1954  0.0133 -0.3501
15984W        W36264  14.055   5.229  13.134  0.1297  0.1338 -0.0999
15985W        W36265   4.592  13.878   4.509  0.0929  0.0311  0.1209
15986W        W36266  15.569  17.702   2.046  0.1395 -0.0129  0.0781
15987W        W36267  11.401  13.594   3.614  0.1467 -0.2937  0.0062
15988W        W36268   4.979  13.464  14.351 -0.1895 -0.1296  0.1244
15989W        W36269  12.206  13.886  15.471  0.1930  0.0505  0.1490
15990W        W36270  13.469   8.826  15.431  0.1414  0.1572 -0.1273
15991W        W36271  15.308   4.138   0.465 -0.1425 -0.0786 -0.0018
15992W        W36272   9.870   9.086   2.497  0.0405  0.3117 -0.1089
15993W        W36273   8.356   0.078   2.645  0.3475  0.3009  0.5711
15994W        W36274   8.403   0.456   1.872 -0.1209  0.0676 -0.1267
15995W        W36275  12.085  10.357  13.259 -0.0560  0.0897 -0.1971
15996W        W36276  17.365   7.125   2.087  0.0803 -0.0686 -0.1073
15997W        W36277   6.673  10.117   2.063 -0.0578 -0.1266 -0.1990
15998W        W36278  16.172  11.659  16.519 -0.2014 -0.0834 -0.1796
15999W        W36279  12.049   3.094  12.536 -0.0688 -0.0405 -0.1680
16000W        W36280  16.218  14.003  14.470 -0.2533  0.3763  0.0342
16001W        W36281   3.015  10.068  12.620 -0.0836 -0.1866  0.1341
16002W        W36282  16.014   4.325   3.973 -0.0915 -0.0924  0.2610
16003W        W36283   7.183  11.325  16.478  0.0592  0.2934  0.2905
16004W        W36284   1.160  16.293   2.799 -0.0732  0.0663 -0.1499
16005W        W36285  11.120  13.425  14.012  0.1100  0.4242  0.0993
16006W        W36286   7.799  15.035  15.098 -0.0642  0.0087 -0.0352
16007W        W36287  16.201   6.636   1.364  0.0200 -0.1083 -0.1204
16008W        W36288   2.526   7.379   0.399 -0.4991 -0.2203  0.1134
16009W        W36289   6.457  16.674  15.978  0.0341  0.0312 -0.0116
16010W        W36290   4.823   1.263   4.181 -0.0653 -0.1185  0.0850
16011W        W36291  11.756  10.257   4.036 -0.2006 -0.2089 -0.1734
16012W        W36292   1.350  12.959  15.563 -0.0505  0.2256  0.1215
16013W        W36293  17.640   3.907   0.613 -0.0467  0.3540  0.0029
16014W        W36294   4.953  14.820  16.430  0.2444 -0.1131 -0.1495
16015W        W36295   4.028   6.032  13.407 -0.0842  0.0621 -0.0588
16016W        W36296   4.581   8.742  12.273  0.1121 -0.2283 -0.0279
16017W        W36297  12.595   9.994  15.226  0.0458 -0.0704 -0.0689
16018W        W36298   5.181  15.559   1.032 -0.0872  0.1835 -0.0317
16019W        W36299   8.570  11.089  14.705 -0.1134 -0.3821 -0.1518
16020W        W36300   5.750  12.858   3.591  0.0383 -0.2476 -0.1460
16021W        W36301   7.310  14.212   2.753  0.0473 -0.0480  0.0224
16022W        W36302  14.345  11.936   2.688 -0.0066 -0.0496 -0.0934
16023W        W36303  13.046  16.709  13.569  0.0246  0.0807 -0.1811
16024W        W36304  15.346   9.033   0.438 -0.2891  0.2826  0.2182
16025W        W36305  10.025  16.551  14.858  0.1716  0.1579  0.2411
16026W        W36306  15.995   3.118   1.473 -0.2379 -0.1093  0.2525
16027W        W36307   2.854  16.899   2.577 -0.0951  0.0101 -0.2118
16028W        W36308   0.957  12.356   2.697 -0.0211  0.0068  0.0571
16029W        W36309  12.881  11.275   0.224  0.0337  0.2359 -0.2476
16030W        W36310   8.832  13.201  12.572 -0.4100  0.0083  0.0691
16031W        W36311   3.405  10.397  12.909  0.0092 -0.2546 -0.1611
16032W        W36312   3.341  10.492  13.931  0.0882 -0.2232 -0.1965
16033W        W36313  15.883   8.677  14.951  0.1307 -0.4075 -0.1552
16034W        W36314   6.475   9.142   4.812  0.0965 -0.0235 -0.1246
16035W        W36315   0.425   6.451   4.451  0.2982  0.0644 -0.2872
16036W        W36316  13.318   8.362   4.729 -0.1031  0.1415 -0.0393
16037W        W36317  14.563  14.430  14.697  0.0859 -0.1772 -0.1595
16038W        W36318  11.093   0.125   2.347 -0.0770  0.3450 -0.1154
16039W        W36319  10.643  13.593  16.138 -0.0762 -0.2183  0.2859
16040W        W36320  13.718   6.437  13.029  0.1429 -0.0300  0.0647
16041W        W36321  10.457   0.930   3.951 -0.0632 -0.1360 -0.0242
16042W        W36322  12.117  11.971   3.318 -0.1206 -0.2287  0.1928
16043W        W36323  16.696   7.221  15.224  0.0110 -0.1774  0.0751
16044W        W36324  12.520   3.577   0.749 -0.0305 -0.0491  0.0219
16045W        W36325   1.683  14.429   3.006 -0.1202 -0.0004 -0.0178
16046W        W36326  13.970  10.101  15.664  0.2097 -0.1609 -0.0719
16047W        W36327  16.161  11.559  16.025  0.0370 -0.0117  0.0507
16048W        W36328   6.374  10.006  13.652  0.1994  0.0264  0.2285
16049W        W36329   6.381   1.043  15.145 -0.1184 -0.0746 -0.1640
16050W        W36330   8.527   0.994  15.453 -0.0934 -0.3971 -0.0170
16051W        W36331   1.202   2.154  14.269  0.2181 -0.1632  0.0088
16052W        W36332   9.058   9.115  14.008  0.1768 -0.2034 -0.1576
16053W        W36333   2.002   2.624  14.878  0.0110  0.2392  0.0496
16054W        W36334   5.237  16.731  13.090 -0.0276 -0.0029 -0.0186
16055W        W36335   9.530  15.756   4.451  0.0326 -0.1916  0.3613
16056W        W36336   3.722  17.217  16.643 -0.1022  0.1544  0.1811
16057W        W36337   7.755   4.751  11.843 -0.2831 -0.0655  0.1678
16058W        W36338   5.352  16.776  14.920 -0.2282  0.0080  0.0025
16059W        W36339  16.163   3.079   2.837  0.1247 -0.1619 -0.0488
16060W        W36340  10.705   9.205   4.393  0.0995  0.2920  0.1705
16061W        W36341  10.065  14.815   2.598 -0.0748  0.1026 -0.0319
16062W        W36342  16.561  16.918  13.522  0.2100  0.1793 -0.0410
16063W        W36343   7.796   3.838  15.778 -0.0456 -0.0945 -0.1101
16064W        W36344  10.124   7.030   2.423  0.2722 -0.1179 -0.1067
16065W        W36345  14.203   7.559  14.904 -0.0090 -0.2086 -0.1156
16066W        W36346   3.265  10.091   1.385  0.2250 -0.1181  0.0397
16067W        W36347   2.501  12.314  13.669 -0.2815  0.2453  0.2285
16068W        W36348   7.065  12.786   1.130 -0.0434 -0.0870 -0.1699
16069W        W36349  16.902   7.903   2.469 -0.3057  0.0152 -0.0654
16070W        W36350   0.151   9.020  13.137 -0.1000 -0.0654  0.0563
16071W        W36351  16.624   3.373  11.865  0.1030  0.2493  0.2220
16072W        W36352   6.064  12.572  15.366  0.1741 -0.0499  0.0502
16073W        W36353  15.149  15.176   4.607  0.0119 -0.1095 -0.0331
16074W        W36354  14.632   0.231  12.542  0.0805  0.2057 -0.0401
16075W        W36355   8.217   6.576   2.459 -0.4424  0.4611  0.2840
16076W        W36356  15.078   8.442  14.491  0.1585  0.2621 -0.0863
16077W        W36357   2.945   9.774   5.622  0.0260 -0.2021 -0.0492
16078W        W36358  11.748  12.984  14.794  0.2112 -0.1482  0.2802
16079W        W36359   7.468  14.454   1.770  0.0322  0.1313  0.0799
16080W        W36360  13.555  11.336   4.410 -0.4341  0.1310  0.0635
16081W        W36361   4.340  11.272  14.189 -0.1647  0.2330 -0.1198
16082W        W36362   4.018  12.702   3.872  0.5198  0.0943 -0.1090
16083W        W36363  15.378  11.640   0.076 -0.3459  0.0082  0.0900
16084W        W36364   2.889  13.864  12.800  0.2210  0.1482 -0.0649
16085W        W36365   4.707   2.576  11.701 -0.0599  0.1551 -0.1091
16086W        W36366   5.798   1.619   2.546 -0.2201 -0.0987  0.0154
16087W        W36367   5.662   5.418  12.635  0.1852  0.2489 -0.4832
16088W        W36368  11.069   5.512  16.074  0.2089 -0.0463 -0.1263
16089W        W36369  11.756   0.016  15.295 -0.2083  0.0862 -0.1361
16090W        W36370   3.988   6.623   0.253  0.3197 -0.2085 -0.3881
16091W        W36371   7.323   9.518   4.787 -0.0097  0.2438  0.2067
16092W        W36372  12.378   8.329   4.195  0.0791  0.0813  0.0168
16093W        W36373  17.825   5.476  14.274 -0.2282  0.0277 -0.1899
16094W        W36374   9.929   4.945   3.087 -0.3441  0.1657 -0.0923
16095W        W36375  12.156  16.212  14.649  0.1356  0.0694  0.1614
16096W        W36376  14.936  16.630  16.474  0.2462 -0.2501  0.0169
16097W        W36377  17.971   1.793  12.133  0.0337  0.1491  0.1542
16098W        W36378   0.542  13.410  16.511 -0.1282  0.0793  0.1291
16099W        W36379  15.610  12.294   2.142 -0.3387 -0.1348  0.2422
16100W        W36380  17.083  17.356  14.388  0.2523  0.1616 -0.0179
16101W        W36381  13.158   9.980  12.065  0.0089  0.2699 -0.0171
16102W        W36382   1.857   6.219   3.872 -0.1297 -0.0532  0.1604
16103W        W36383  17.492   0.567  15.581  0.1495  0.0645 -0.1100
16104W        W36384   9.942   1.582  11.471  0.1791 -0.1326  0.2330
16105W        W36385  12.564   1.199   3.306  0.0242  0.0590 -0.3220
16106W        W36386   4.784   1.570  14.309 -0.2624 -0.2701 -0.1529
16107W        W36387   3.641   2.604  13.486 -0.0987  0.2069 -0.1664
16108W        W36388  10.856   2.497  13.819 -0.3047 -0.0317 -0.2230
16109W        W36389   7.392   7.757  13.394 -0.1125 -0.0265  0.1622
16110W        W36390  15.040  12.221  12.673 -0.0904  0.1259 -0.0012
16111W        W36391   3.664   5.655  12.851 -0.3522  0.0556  0.0448
16112W        W36392   4.438  17.169   1.067  0.3201 -0.0543  0.0854
16113W        W36393   9.685  13.355   1.301  0.2218  0.0723 -0.0918
16114W        W36394   9.210   4.648  14.149 -0.0242  0.2114  0.0162
16115W        W36395  10.335   2.368  13.723  0.1081 -0.2927  0.0549
16116W        W36396  11.668   3.579   3.045  0.2841  0.0702 -0.2001
16117W        W36397  12.421  11.437   0.077 -0.0816  0.3854 -0.0386
16118W        W36398   3.769   3.402   3.646 -0.2490 -0.1830  0.0064
16119W        W36399   4.224   4.159   0.774 -0.1113  0.2326 -0.5004
16120W        W36400  10.636   5.766  16.302 -0.2442 -0.2288  0.3609
16121W        W36401  10.332  12.269   1.942  0.0251  0.1172 -0.0133
16122W        W36402   3.819  16.710   0.525  0.5489 -0.0534  0.2209
16123W        W36403   3.029  11.108   2.060 -0.0663 -0.1197 -0.1130
16124W        W36404   3.113   8.322  14.146  0.1865 -0.0481  0.0540
16125W        W36405  16.942   6.215   0.956 -0.1900 -0.0035 -0.0253
16126W        W36406   5.768   2.165   1.057 -0.0181  0.3262 -0.2207
16127W        W36407  10.804  14.736   1.493 -0.2103  0.4148  0.1687
16128W        W36408  10.842   0.192   0.095 -0.1109  0.2730  0.0674
16129W        W36409   2.060   7.113  12.851 -0.0326  0.2461  0.0324
16130W        W36410  14.965   4.060  12.344  0.2027 -0.0417  0.2700
16131W        W36411  17.659  17.343   3.765 -0.0189  0.0629  0.1337
16132W        W36412  13.705   9.550   1.489  0.1209  0.1422 -0.0936
16133W        W36413  11.822  14.570  12.247  0.1580  0.1145 -0.1171
16134W        W36414   1.591   8.319   2.113 -0.1418  0.0837 -0.2671
16135W        W36415  12.185   5.745  12.956 -0.2416  0.0390  0.0607
16136W        W36416   3.615   9.411  13.046 -0.0684 -0.1351  0.0657
16137W        W36417   9.732  15.226   0.728 -0.0172  0.1652  0.1030
16138W        W36418   5.265   5.159  12.942 -0.0637 -0.0760 -0.2936
16139W        W36419  17.868   3.601   0.049 -0.3636  0.0951 -0.0056
16140W        W36420   9.915  12.805  15.408  0.2212  0.2745  0.1209
16141W        W36421   4.453   2.967   1.034 -0.0570  0.0397 -0.1857
16142W        W36422   0.085   1.530  12.971  0.2345 -0.1018 -0.0010
16143W        W36423  10.068  13.651  16.009  0.0078  0.3016  0.2190
16144W        W36424   8.092   5.500  14.376  0.3742  0.3488  0.1357
16145W        W36425  14.712  17.328   1.224  0.1236 -0.2128 -0.0558
16146W        W36426   6.044   2.145   3.085  0.2854 -0.1812 -0.2758
16147W        W36427  13.164  16.008  13.483 -0.4845  0.2452 -0.2099
16148W        W36428   9.740   7.416  14.707 -0.0338  0.1629 -0.0681
16149W        W36429  16.714  11.942  14.922  0.0636 -0.1501 -0.1128
16150W        W36430   1.428  13.777  16.313  0.1172 -0.1412 -0.0763
16151W        W36431   0.471  14.695   1.122 -0.1417 -0.0631  0.2967
16152W        W36432  16.231  11.610  11.803 -0.1292  0.2399 -0.0883
16153W        W36433   2.211   3.726  13.613  0.0957 -0.0931  0.1338
16154W        W36434   0.852   1.680  14.304 -0.1096 -0.0362 -0.0284
16155W        W36435  11.479   6.329  12.290  0.0832  0.0627  0.4128
16156W        W36436   9.249  17.558   0.929 -0.0541 -0.1340 -0.0712
16157W        W36437   9.346   9.998  13.911 -0.1525  0.0824  0.1058
16158W        W36438  15.171   1.129  12.205 -0.0926 -0.1115 -0.0828
16159W        W36439  16.235  12.707   2.749  0.1810 -0.0863 -0.2177
16160W        W36440  11.396  17.218   0.296 -0.2836 -0.0200 -0.2116
16161W        W36441   1.339  12.400  15.194  0.3448 -0.1653  0.0165
16162W        W36442   4.586   0.312   5.538 -0.1494  0.2553 -0.0599
16163W        W36443   9.880  13.715  16.503  0.1091  0.0518  0.1348
16164W        W36444  15.538   8.977  15.294  0.0510 -0.2208 -0.0242
16165W        W36445  13.315  16.726  15.362 -0.1602  0.2433 -0.2427
16166W        W36446  16.380   8.976   1.084  0.1585  0.1191  0.2512
16167W        W36447   0.279  10.832   3.279  0.2812  0.1253 -0.0152
16168W        W36448  17.799  13.779   2.272 -0.0535 -0.2045  0.0912
16169W        W36449  12.130  14.157  16.347  0.1833 -0.0651 -0.0450
16170W        W36450  16.030   7.741   4.554  0.0506  0.2356  0.2014
16171W        W36451  16.891  16.752  15.593 -0.4319  0.0421 -0.0987
16172W        W36452   3.478  16.482  13.553 -0.1839  0.1777 -0.3446
16173W        W36453  10.993  12.505  11.899 -0.1389  0.0610 -0.1909
16174W        W36454  16.877   6.706  12.663 -0.1062 -0.0012  0.1368
16175W        W36455  17.967  11.537   0.696 -0.0825 -0.3453 -0.1693
16176W        W36456   4.310   1.265  14.979 -0.1549 -0.0751  0.0765
16177W        W36457   0.877  15.477   0.173 -0.1167  0.0053 -0.0144
16178W        W36458   5.334   8.644  16.124  0.1143 -0.0645  0.2336
16179W        W36459   5.951   9.472  16.160 -0.0550  0.3778  0.0632
16180W        W36460   4.242   5.997   2.164  0.1730  0.2698 -0.1358
16181W        W36461   5.717  17.962   1.116  0.2124 -0.2955  0.0866
16182W        W36462  13.329   7.617  13.466 -0.1955  0.1581 -0.3145
16183W        W36463   6.709   4.365   0.581  0.0578  0.2082 -0.4613
16184W        W36464   1.486   8.483  14.369  0.0427  0.1155  0.0363
16185W        W36465   0.384   3.465  12.632  0.3190  0.0275  0.4465
16186W        W36466  17.652  17.555  14.350  0.0988  0.0037 -0.1682
16187W        W36467   3.306  14.350   0.739 -0.0285  0.0105 -0.2166
16188W        W36468  14.999   9.809  14.462 -0.1316 -0.2385  0.0775
16189W        W36469  13.457   9.279  12.442  0.1791 -0.1963  0.1790
16190W        W36470  15.377  15.572   2.233  0.3096 -0.0377 -0.0420
16191W        W36471   6.968  11.271   0.593 -0.3421  0.5157 -0.2708
16192W        W36472   4.932   0.042  15.421 -0.1470  0.2201 -0.1031
16193W        W36473  13.396   5.553  12.063 -0.2150 -0.1769 -0.0816
16194W        W36474   9.427  12.249   1.989 -0.0699 -0.1717 -0.0331
16195W        W36475   0.189   7.472   4.794 -0.3022 -0.1881  0.0175
16196W        W36476   7.750   1.256   2.277  0.1402 -0.2295  0.0734
16197W        W36477   8.537  13.738  14.181  0.1410  0.1720  0.1154
16198W        W36478  13.491  12.684  15.818  0.1946  0.2523 -0.3609
16199W        W36479   9.808  10.935   0.564 -0.2364 -0.1150  0.0623
16200W        W36480  16.763   3.616   4.677 -0.2962  0.0609  0.1385
16201W        W36481   6.987   7.700   3.441 -0.0084  0.2534 -0.0382
16202W        W36482   7.257  16.177   1.694  0.0344 -0.1931 -0.2030
16203W        W36483   0.761   5.922  13.866 -0.0821 -0.4470 -0.0491
16204W        W36484   8.258   7.161  13.976  0.1460  0.1173  0.0598
16205W        W36485   7.052   6.835  13.302  0.2610 -0.0580  0.2850
16206W        W36486   1.625   1.797   0.383  0.0144 -0.2486  0.2401
16207W        W36487  17.485  16.174   0.653 -0.0371 -0.0212  0.0607
16208W        W36488  15.174  10.115  12.767 -0.1433 -0.0367 -0.2940
16209W        W36489   4.890   0.167   0.982 -0.0596 -0.0747  0.2440
16210W        W36490  12.632  15.380   1.347 -0.2950 -0.2760  0.2129
16211W        W36491   6.582  13.105   3.061  0.1723 -0.0821 -0.3888
16212W        W36492   7.209  15.627   4.349  0.0129  0.1012 -0.0066
16213W        W36493  13.001   2.687   3.115  0.0945  0.1918  0.1134
16214W        W36494  10.757  16.990  15.406 -0.1087 -0.1059 -0.2418
16215W        W36495   3.158  16.148  13.277 -0.0726 -0.1839 -0.2064
16216W        W36496  11.621   8.539  13.544  0.1801 -0.1502 -0.0958
16217W        W36497  12.095  14.182  13.832  0.3297  0.3852 -0.2625
16218W        W36498   9.584   8.918  14.334 -0.1716  0.2475 -0.1919
16219W        W36499  11.038   1.978   0.878 -0.0082 -0.1852  0.0305
16220W        W36500   5.184   3.324   0.540  0.0814  0.0359 -0.2082
16221W        W36501   8.290   0.640   0.400  0.2487 -0.0629 -0.0685
16222W        W36502  16.353  11.223  16.460  0.0344 -0.0749 -0.1711
16223W        W36503  16.228  10.587  14.670 -0.0334  0.0950 -0.0073
16224W        W36504   8.982   6.485  15.112  0.1756  0.1584  0.1105
16225W        W36505   9.700  15.123   4.353 -0.2554 -0.1194 -0.1640
16226W        W36506   8.726   7.706  12.607  0.1823 -0.2645 -0.0925
16227W        W36507   2.635   9.515   4.925 -0.1759 -0.1137 -0.2551
16228W        W36508   3.057   6.302   3.076 -0.0104  0.1248 -0.1134
16229W        W36509  10.668   4.816  15.298  0.0178 -0.0220  0.2131
16230W        W36510  17.987  16.415  16.315 -0.1644  0.0991 -0.1919
16231W        W36511   5.304   3.414  16.148 -0.0931  0.0868  0.3732
16232W        W36512  13.873  13.921  14.963  0.3444 -0.0414  0.0832
16233W        W36513   9.280   8.410  13.389  0.2627  0.2204 -0.0852
16234W        W36514  10.190   7.658   0.980 -0.2773 -0.2280 -0.0952
16235W        W36515   8.060  16.227  12.017  0.2861 -0.0971 -0.1515
16236W        W36516  13.611  12.105   0.146  0.0428 -0.0771 -0.1054
16237W        W36517  17.714   3.987  11.691 -0.3423  0.0718 -0.0443
16238W        W36518   8.402   9.428  14.694 -0.1131  0.2509 -0.0055
16239W        W36519   3.759  11.696   2.471  0.0068 -0.0952  0.0778
16240W        W36520  10.787   8.023  13.104 -0.1682 -0.1766 -0.0438
16241W        W36521   8.125   2.504  13.017  0.2919 -0.0956 -0.1972
16242W        W36522   4.214   9.645   2.438 -0.0323 -0.0851 -0.1996
16243W        W36523  13.598   6.497   0.906  0.0550  0.2090  0.0113
16244W        W36524   0.364   0.345   2.293  0.2512  0.0179  0.0510
16245W        W36525   3.245   6.157   1.389 -0.0572  0.0858  0.0330
16246W        W36526  17.637   3.668  14.644 -0.1111  0.1969 -0.3003
16247W        W36527   0.136  11.662  15.130 -0.3377  0.1928 -0.3850
16248W        W36528  15.793  12.738  13.883  0.1527  0.0348 -0.2143
16249W        W36529   7.649   8.002  15.513  0.1023 -0.3976  0.0310
16250W        W36530  14.178  12.029  11.263 -0.1939 -0.1151  0.0423
16251W        W36531  14.162   1.136   4.429  0.0969 -0.1846  0.0197
16252W        W36532   1.686   7.770  14.631 -0.0586  0.0611  0.2643
16253W        W36533  10.058  17.718   1.829  0.1339  0.1250 -0.2844
16254W        W36534   1.465   6.510   4.364  0.3533  0.2688  0.0351
16255W        W36535  17.444  13.342   4.020 -0.2477  0.3930  0.0536
16256W        W36536   1.716  14.162  14.483  0.4221  0.2671  0.1112
16257W        W36537   9.450   5.244  10.345 -0.1924  0.0548 -0.2500
16258W        W36538   5.527  17.978  14.200 -0.0809 -0.0460  0.0494
16259W        W36539  12.088  16.964  11.752 -0.0634 -0.1507 -0.0795
16260W        W36540   2.789   9.809   4.049 -0.1678  0.3521 -0.1304
16261W        W36541  10.048   2.127   3.647  0.3359 -0.1468 -0.2212
16262W        W36542  14.097   4.732   0.252 -0.0788 -0.2570  0.0737
16263W        W36543  10.796  14.395  15.440  0.5043  0.3434 -0.0688
16264W        W36544   3.137   9.425   0.251 -0.4510 -0.3120 -0.0209
16265W        W36545  17.399   2.454  12.100 -0.1370  0.3104  0.3340
16266W        W36546  16.467   0.317  14.492 -0.0374 -0.0982 -0.1195
16267W        W36547   5.936  17.408  12.966  0.1907 -0.2472 -0.0915
16268W        W36548   7.667  10.965   5.179  0.0069  0.0607  0.0564
16269W        W36549  16.703  15.487   5.206  0.4420  0.2229 -0.1072
16270W        W36550   8.625   3.911  14.244 -0.1081  0.2343  0.0738
16271W        W36551   3.435   2.018  14.944  0.1174  0.0166  0.2692
16272W        W36552   7.824   8.777   2.885  0.0535 -0.0861  0.0340
16273W        W36553  16.282   0.713   0.589 -0.0958  0.1492 -0.2390
16274W        W36554  14.089  13.962  13.870  0.1006  0.0903 -0.0437
16275W        W36555   5.532  11.582  14.657  0.1130 -0.0754  0.3019
16276W        W36556   2.996   0.924   3.799  0.0423 -0.0089 -0.1106
16277W        W36557   8.875   2.456  12.043 -0.2087  0.2810 -0.1368
16278W        W36558   3.533   0.282  13.205  0.2319  0.1751 -0.3187
16279W        W36559  10.098  11.815   0.591  0.2281 -0.2679  0.1509
16280W        W36560   8.720   2.254   1.803 -0.2605  0.1390 -0.0685
16281W        W36561   8.907   5.081  16.671 -0.1516  0.3005 -0.0018
16282W        W36562   0.716  17.383  12.425  0.0587  0.1684  0.2616
16283W        W36563  16.109   8.678  13.593 -0.3794 -0.0758  0.4297
16284W        W36564  11.562  10.554  16.081 -0.2762 -0.2522  0.1479
16285W        W36565   6.768  17.049  12.353  0.1677  0.0548 -0.0133
16286W        W36566   8.262   8.360  13.274 -0.1838  0.2801  0.1622
16287W        W36567   1.182   1.053  13.316  0.0463  0.0651  0.0338
16288W        W36568   8.472  11.120   3.726  0.1300 -0.1157 -0.1005
16289W        W36569  15.060  16.528  14.616 -0.2716 -0.0121 -0.0336
16290W        W36570  11.424   0.555  13.088 -0.0573 -0.0861 -0.2629
16291W        W36571   0.826   0.911   0.694 -0.0633 -0.2368 -0.1755
16292W        W36572  17.578   9.778   2.014  0.0899  0.1062 -0.0875
16293W        W36573   0.515  13.307  12.525 -0.0727 -0.1404 -0.0880
16294W        W36574  15.845   5.566   4.707  0.2528  0.0402  0.0580
16295W        W36575   5.626  17.093   3.251 -0.1407 -0.3637  0.1657
16296W        W36576   5.415   0.902   1.012  0.3044 -0.1917 -0.0247
16297W        W36577   7.767   3.750   1.549 -0.3386 -0.3031 -0.1189
16298W        W36578   7.413  10.527  16.190  0.1719  0.2136 -0.1318
16299W        W36579   0.851   9.435   0.338  0.0785 -0.1958  0.0889
16300W        W36580  17.509   5.864  13.594 -0.0716  0.1287  0.2373
16301W        W36581   6.426  13.909  15.602 -0.2314 -0.1956  0.1448
16302W        W36582   6.091  17.597   4.568 -0.0194  0.0200  0.0655
16303W        W36583  12.615   7.434  14.752 -0.0786  0.3008 -0.0896
16304W        W36584   5.757   6.801   2.883  0.0083  0.0352 -0.2404
16305W        W36585  13.813   6.301  11.724 -0.0983  0.1169  0.1378
16306W        W36586   0.888   8.518   3.598 -0.1221  0.2127 -0.1636
16307W        W36587  13.329   7.509   0.777  0.1864 -0.1719 -0.3254
16308W        W36588   6.129  10.633   0.548  0.0718  0.4077  0.3686
16309W        W36589   2.478   5.274  14.262  0.2510 -0.1567 -0.1039
16310W        W36590   9.830   1.633   0.782 -0.1616  0.0231 -0.0403
16311W        W36591  12.966  15.824  14.365  0.4924  0.0499  0.6578
16312W        W36592   2.886  15.365  12.826  0.1059 -0.5266 -0.1686
16313W        W36593   3.445   1.249  13.181  0.0187 -0.1667  0.1092
16314W        W36594  13.425   4.389  14.878  0.1398  0.1552 -0.3592
16315W        W36595  15.632  11.327   3.088  0.0758 -0.0586 -0.2296
16316W        W36596   3.388  11.846   5.001 -0.0010  0.3039 -0.2706
16317W        W36597   0.890   0.336  13.891 -0.2924 -0.3433  0.2178
16318W        W36598  12.455   3.390  12.502 -0.1329  0.3153 -0.2618
16319W        W36599  17.337   0.854   1.083  0.0168  0.2826 -0.0776
16320W        W36600  14.738   7.869  14.799  0.0441  0.1123 -0.0227
16321W        W36601  17.704   8.535  12.141 -0.0109 -0.0797  0.2381
16322W        W36602   8.352  11.459   2.034 -0.2858 -0.0437 -0.0428
16323W        W36603   3.011  13.761   2.227  0.2023 -0.2730  0.3961
16324W        W36604  14.150   2.375   4.508 -0.1812 -0.3353 -0.0764
16325W        W36605   8.105   6.720   1.559  0.2650 -0.1243  0.1442
16326W        W36606  10.619   1.029  12.197  0.1989  0.0693 -0.1859
16327W        W36607   3.477   3.846  15.689 -0.0902  0.1810  0.0785
16328W        W36608   6.085  13.139   5.998 -0.0536 -0.1965 -0.1185
16329W        W36609  13.919   8.590   3.674 -0.1101  0.3211 -0.0051
16330W        W36610  16.860   7.319   4.560 -0.3113 -0.1000  0.0117
16331W        W36611   2.463   0.030  12.580  0.2631 -0.1326  0.0128
16332W        W36612   1.839   9.787   4.810  0.2115 -0.0310  0.0946
16333W        W36613  11.881  12.834  13.855  0.2594  0.0299 -0.0673
16334W        W36614   4.976   3.565  12.863  0.0455 -0.0584 -0.2898
16335W        W36615   9.667   9.454   2.800 -0.1054  0.0892 -0.1169
16336W        W36616   5.242   4.790   3.419 -0.3918  0.0490  0.3325
16337W        W36617  14.380  15.615  13.529  0.0507  0.0388 -0.0029
16338W        W36618  15.844  11.742   1.448 -0.0418 -0.1068 -0.3106
16339W        W36619   2.115  14.163   3.218 -0.1088  0.1387 -0.2551
16340W        W36620  11.712   6.455   2.572 -0.2076 -0.0622 -0.1118
16341W        W36621  16.382   2.168  12.986  0.2192 -0.1800  0.1435
16342W        W36622  13.010  15.011  13.850 -0.3037 -0.1781 -0.2561
16343W        W36623  13.273   7.298  15.334 -0.1176 -0.0289 -0.1707
16344W        W36624  14.956  13.545   2.556 -0.3391 -0.0753 -0.0382
16345W        W36625   6.657  11.548  15.273  0.1093 -0.0497  0.3249
16346W        W36626   8.839  15.731  15.470 -0.1798 -0.0478 -0.1990
16347W        W36627   9.833  13.111  16.304 -0.2004  0.2075 -0.0113
16348W        W36628   4.029   5.887   3.126 -0.0487 -0.1490  0.1078
16349W        W36629  11.525   2.862   4.085 -0.0063  0.0070  0.0527
16350W        W36630   3.110   1.790   4.371  0.0573  0.1592  0.2744
16351W        W36631  14.575   4.895   0.089  0.1601 -0.4556 -0.3935
16352W        W36632  16.808   4.977   3.619  0.1427 -0.3540 -0.1045
16353W        W36633   1.119  12.607   4.112  0.1389 -0.2842  0.1682
16354W        W36634   2.822  12.545  15.286  0.1559  0.0211  0.2611
16355W        W36635  12.753  10.047  16.100  0.0348  0.1554  0.1540
16356W        W36636   5.295   5.079   4.362  0.0648  0.2952 -0.2673
16357W        W36637   1.045   4.169   1.078 -0.0220 -0.2616 -0.1290
16358W        W36638   0.115   4.279  13.108  0.0026  0.0265 -0.2381
16359W        W36639  10.118   4.247  15.794 -0.0660  0.1928  0.0349
16360W        W36640  11.056  16.606  12.382  0.1686  0.0382  0.1270
16361W        W36641  14.950  13.251   4.815 -0.1501 -0.0772  0.2697
16362W        W36642   1.091   5.527   1.571 -0.2055 -0.0966  0.2380
16363W        W36643  17.697  13.681  13.736  0.1596  0.1466 -0.1349
16364W        W36644   0.028   0.912   0.097 -0.0291 -0.0258 -0.3322
16365W        W36645  12.762   8.688   2.744 -0.0050  0.0258 -0.3391
16366W        W36646   9.953  12.522   1.627 -0.0108  0.0019 -0.1487
16367W        W36647   2.767   1.939   0.113 -0.2999  0.1469  0.1844
16368W        W36648   0.472   7.369  13.594 -0.1674  0.1022 -0.1746
16369W        W36649   8.305  12.629   0.121  0.0787  0.0395 -0.2351
16370W        W36650   9.350   3.620  14.612  0.3428  0.0941 -0.0383
16371W        W36651  11.213   5.183  15.648  0.0609  0.0875 -0.0835
16372W        W36652   1.063  11.023   0.487  0.0339  0.1359 -0.0268
16373W        W36653   1.426   4.216  16.260  0.1731  0.1466  0.0633
16374W        W36654   6.849   7.414   1.535  0.2666 -0.0895  0.2422
16375W        W36655   2.355   1.613   0.046  0.0276  0.0121 -0.2725
16376W        W36656  17.860   7.660  12.930 -0.0970 -0.2568 -0.0245
16377W        W36657   5.421  14.464   1.796  0.0324 -0.1345 -0.1234
16378W        W36658  16.550  14.362   4.605  0.1683  0.0963  0.2559
16379W        W36659  13.922   5.372   0.805 -0.1340 -0.0463  0.0113
16380W        W36660  11.180  14.195  11.845  0.1325  0.1652  0.1361
16381W        W36661   1.927   4.447   3.718  0.3773 -0.2034  0.2619
16382W        W36662   2.010   3.386  14.400 -0.1210 -0.2967  0.0525
16383W        W36663   6.706  15.537   3.135  0.2383  0.1174  0.0514
16384W        W36664  13.177  12.171   3.988  0.1326 -0.3344 -0.0134
16385W        W36665  11.166  10.751   4.966 -0.3544 -0.1239 -0.0173
16386W        W36666  12.122   1.522   3.974 -0.2876 -0.3641 -0.0677
16387W        W36667   3.253  16.331   4.158  0.1815 -0.0221  0.0133
16388W        W36668  11.429  10.991  13.324  0.0790 -0.1238 -0.3467
16389W        W36669  16.099   6.165  12.535 -0.2802 -0.2389 -0.0103
16390W        W36670  10.841   3.941  16.339  0.1244 -0.1104 -0.1018
16391W        W36671  12.985   5.631  15.196  0.2648 -0.1936 -0.3087
16392W        W36672   3.094   1.063  16.526 -0.0351 -0.1132  0.0659
16393W        W36673   3.182   0.517  12.321  0.1236 -0.1414 -0.2715
16394W        W36674   8.029  12.529  13.781  0.0499 -0.2643 -0.2314
16395W        W36675  12.200  15.807   3.704 -0.1198 -0.0442 -0.1176
16396W        W36676   3.849  15.472  11.934  0.4434 -0.0398  0.0739
16397W        W36677   8.393   2.043   0.736  0.0525  0.1027 -0.0628
16398W        W36678   2.515  13.444  16.298  0.0171 -0.0793  0.4033
16399W        W36679  14.548  10.745  12.690  0.3634 -0.1124 -0.0009
16400W        W36680   8.549   7.786   3.787 -0.2624  0.0732  0.0351
16401W        W36681  11.325   1.114   1.055  0.0930 -0.1869  0.1841
16402W        W36682  14.927  14.377  13.410  0.1639  0.1349 -0.2000
16403W        W36683  10.394  17.248  12.704  0.2472  0.3982  0.2788
16404W        W36684  17.625   8.882   0.016  0.3019  0.2359 -0.1916
16405W        W36685  16.704   2.855   2.752 -0.2340 -0.2242 -0.3850
16406W        W36686   2.023   2.333  11.356  0.1155  0.0037 -0.0420
16407W        W36687   0.040   5.525  16.382  0.0878  0.1320 -0.1544
16408W        W36688  16.342   7.019  14.325  0.0977  0.2639 -0.0571
16409W        W36689  11.245   9.085   2.272  0.3024 -0.1012 -0.0429
16410W        W36690   7.973  10.278   0.175  0.0741  0.1591 -0.2811
16411W        W36691  14.787   0.010   4.074  0.0758  0.0881 -0.1894
16412W        W36692  10.748  12.462   3.074 -0.2831 -0.1321  0.2804
16413W        W36693  13.530  12.445   1.529  0.1657  0.1157 -0.1729
16414W        W36694  13.088   7.460  14.755 -0.0589  0.0517  0.2331
16415W        W36695   8.624   3.655  12.081 -0.0872 -0.0202  0.1667
16416W        W36696   2.034   0.899   2.264 -0.0716  0.1289 -0.1893
16417W        W36697  16.895   0.765   0.188 -0.3083 -0.1376 -0.0649
16418W        W36698   0.791   9.484   0.835  0.0867  0.2863  0.1416
16419W        W36699   5.843   5.737   0.527  0.1769  0.1999  0.1872
16420W        W36700  16.337  15.449   2.239  0.0700 -0.1356  0.0540
16421W        W36701   6.402   8.144   1.178  0.0696  0.0842 -0.1061
16422W        W36702  13.887   5.355  15.321 -0.2591  0.2815 -0.0075
16423W        W36703  17.611   0.810   2.993 -0.0421 -0.0171  0.3111
16424W        W36704  16.539  14.046  12.298 -0.0024  0.0028  0.2394
16425W        W36705  12.904  14.058   3.841  0.4143  0.1100  0.0121
16426W        W36706  14.221  11.120  12.425 -0.1330  0.2654  0.2019
16427W        W36707   3.547   1.260   0.589  0.0212  0.0689  0.1295
16428W        W36708  13.416  12.055  13.572 -0.1728  0.0608 -0.1779
16429W        W36709   1.579  10.142  15.665  0.2021 -0.1506  0.1151
16430W        W36710  13.286  17.715  15.604  0.0005  0.2121  0.1512
16431W        W36711  15.942   7.339   1.029  0.1687  0.2934  0.2051
16432W        W36712  17.622   4.681  14.727 -0.0965  0.0323 -0.0357
16433W        W36713  12.368   9.744   1.135 -0.0120  0.1655  0.0335
16434W        W36714  13.109   9.034  14.555 -0.0795  0.1260  0.2285
16435W        W36715   2.051  17.815  14.294 -0.2105 -0.1660 -0.0974
16436W        W36716  16.901  13.452  15.831 -0.1095 -0.0304  0.0581
16437W        W36717  11.320  16.677  14.955  0.3768  0.1754  0.1029
16438W        W36718   2.481  16.592   2.313  0.2490  0.0465  0.0283
16439W        W36719  15.279  11.630  11.980 -0.2111  0.4032 -0.1178
16440W        W36720   3.023   9.120   3.559 -0.0888 -0.3006  0.2001
16441W        W36721   8.996  11.222   4.679  0.0090 -0.0052  0.1589
16442W        W36722   8.700  13.874   3.632  0.0996  0.1314 -0.0402
16443W        W36723   2.452  17.383   3.766 -0.1879  0.4749 -0.0801
16444W        W36724  17.062   3.916  13.935  0.0461 -0.2237  0.3502
16445W        W36725   0.209   6.214   0.500 -0.0531  0.1880 -0.0394
16446W        W36726  10.785   2.689   0.949 -0.0389 -0.1676  0.0494
16447W        W36727   8.160  12.598  15.771 -0.0097  0.1083 -0.3704
16448W        W36728  16.286   1.612   2.439  0.0960 -0.2404  0.5102
16449W        W36729  11.974   1.921  11.540 -0.0064 -0.1150 -0.1004
16450W        W36730   5.851   2.502   0.252  0.1551 -0.1261  0.0359
16451W        W36731   9.041  12.422   4.423  0.2012  0.0807  0.0956
16452W        W36732   2.855   5.899  15.263 -0.0016  0.2239 -0.1442
16453W        W36733  17.530   5.705   2.691 -0.0123 -0.2079 -0.0501
16454W        W36734   4.336  14.055   1.760  0.2465  0.0204  0.2631
16455W        W36735  13.450   9.984   1.702 -0.2897  0.0817  0.1696
16456W        W36736   4.251   8.241   2.904 -0.0845  0.0818 -0.0892
16457W        W36737  14.435   2.989   0.428 -0.1478  0.0302 -0.1693
16458W        W36738   9.260   3.671  13.692 -0.0007 -0.0574  0.0778
16459W        W36739  17.072   1.481  15.800  0.1684 -0.0837 -0.0581
16460W        W36740  14.399  13.627   2.216 -0.1719  0.0133 -0.0797
16461W        W36741  16.269  15.182  14.608  0.3604 -0.0246  0.2170
16462W        W36742   4.549   2.000  12.877 -0.1293  0.0023 -0.0264
16463W        W36743  11.469   9.022   3.614  0.1868  0.1271 -0.1475
16464W        W36744   4.308   3.644  13.577  0.0898  0.1674 -0.0850
16465W        W36745   3.043   6.876   2.574  0.0044  0.2040 -0.4350
16466W        W36746  16.176   4.014  13.672  0.1959  0.2779 -0.0885
16467W        W36747  12.912   1.256   0.467 -0.0863 -0.1206 -0.1392
16468W        W36748   3.528  12.224  15.645  0.0205  0.1562 -0.1045
16469W        W36749  13.120   0.162  14.007  0.1084 -0.1186 -0.0446
16470W        W36750   6.691  15.953  13.738  0.1847  0.1186  0.0626
16471W        W36751   6.905  12.083   3.211  0.3555 -0.0237 -0.1500
16472W        W36752  17.611  11.483   2.562  0.2077  0.3078 -0.3184
16473W        W36753   9.944   6.559   3.582 -0.2347  0.0856  0.2120
16474W        W36754   8.258   7.582   1.517  0.0380 -0.0154  0.1188
16475W        W36755   8.213   2.069  15.733 -0.1919 -0.0172 -0.2010
16476W        W36756   5.598   2.624   1.230 -0.2121  0.0353 -0.2205
16477W        W36757   9.884  17.422  13.786  0.0933  0.1182 -0.2262
16478W        W36758   5.795  14.532   0.932  0.4945  0.0450  0.0116
16479W        W36759  16.202  12.466  13.941  0.0541  0.2123 -0.0470
16480W        W36760   7.529  16.652   4.285 -0.1638  0.0443 -0.0939
16481W        W36761  16.030   0.084   4.533  0.1323 -0.0294  0.0525
16482W        W36762   3.354  13.102  15.834 -0.3402  0.0529 -0.1581
16483W        W36763   2.745  14.164  15.063 -0.1219  0.3123 -0.0422
16484W        W36764  14.740   8.374  13.237 -0.1444 -0.0198  0.1556
16485W        W36765   7.682  13.871  16.276 -0.0124  0.2275 -0.0273
16486W        W36766   2.105  11.175   5.555  0.2154  0.0570 -0.2707
16487W        W36767   0.021   7.808   1.566  0.2158 -0.0100  0.0019
16488W        W36768  15.386   6.404   2.206 -0.0962 -0.1198  0.2156
16489W        W36769   4.825   9.703   4.401 -0.0802 -0.0251  0.0922
16490W        W36770   4.206  17.149  16.456  0.0055 -0.2131 -0.0834
16491W        W36771  10.958  16.691  13.522 -0.1713  0.0765  0.1624
16492W        W36772  11.233   4.055   3.609 -0.0716 -0.1951 -0.0171
16493W        W36773  11.223   8.273   3.538 -0.0911 -0.0546  0.1051
16494W        W36774   2.243   3.191   1.791  0.0884  0.2796 -0.0324
16495W        W36775  11.028  11.552   3.342  0.0833 -0.2058  0.0491
16496W        W36776  12.406  16.771   2.886 -0.0343  0.1944 -0.0208
16497W        W36777  13.134  13.250  13.597  0.1175 -0.0699  0.0602
16498W        W36778  17.834  16.805   0.149  0.0672  0.1717 -0.2087
16499W        W36779   4.171   0.265   1.493 -0.0079  0.1101 -0.2784
16500W        W36780  15.456  11.746  12.495 -0.2419  0.0327  0.2289
16501W        W36781   0.268   5.801   3.872 -0.1419  0.1535  0.3384
16502W        W36782  12.177   4.360  12.193  0.0596  0.0970  0.2069
16503W        W36783   3.229  14.081   4.894  0.0476 -0.4298 -0.3560
16504W        W36784   8.650  14.411  14.318  0.0155 -0.0502 -0.0885
16505W        W36785   8.659  17.165  12.940 -0.1450  0.1358 -0.2560
16506W        W36786   2.687   6.235  16.245 -0.0522  0.0289  0.2043
16507W        W36787   7.567   6.646   3.279  0.0051 -0.1476 -0.1305
16508W        W36788   6.818  14.467  14.209 -0.5690 -0.0655  0.2071
16509W        W36789   9.423  16.663  13.732 -0.2326  0.2052 -0.1488
16510W        W36790  16.689  14.400   3.381 -0.1507 -0.0876  0.0371
16511W        W36791  13.507  16.238  16.552 -0.0127 -0.1190 -0.0167
16512W        W36792   6.032  15.437   0.205 -0.0132 -0.0777 -0.2347
16513W        W36793  13.916   7.899   4.352  0.1417  0.0686  0.3310
16514W        W36794   5.152   5.036  13.527  0.3214  0.0969 -0.0031
16515W        W36795   4.973   9.049   0.744 -0.1546  0.1064 -0.0819
16516W        W36796   0.134   0.322   0.467 -0.2000  0.1242 -0.1617
16517W        W36797   7.236   1.786   1.548 -0.2284 -0.1907 -0.0209
16518W        W36798   7.589   4.983   2.566  0.1224 -0.1400 -0.0175
16519W        W36799  10.026  10.576   0.239  0.1018  0.2204 -0.1429
16520W        W36800   1.854   6.114  13.409 -0.2092 -0.1694 -0.1995
16521W        W36801   8.369  17.832   0.780  0.1531 -0.0242 -0.3716
16522W        W36802   3.158  14.772  14.382 -0.1934 -0.1347  0.1713
16523W        W36803   1.036  15.994   4.476 -0.1051 -0.0074  0.2933
16524W        W36804   0.207   5.036   2.283 -0.1607 -0.0566  0.2204
16525W        W36805  12.528   6.988  12.327  0.1665  0.2973  0.0718
16526W        W36806  14.935   9.879   1.775  0.2551 -0.0150  0.1504
16527W        W36807   3.671   6.318   3.780  0.1209  0.1336  0.1549
16528W        W36808   5.595  15.254  14.217 -0.0083 -0.4803  0.0774
16529W        W36809  12.967  16.762  11.898 -0.1260  0.1767 -0.0820
16530W        W36810  17.695   0.797  16.414 -0.1126 -0.2680  0.1433
16531W        W36811  12.786   5.930   1.755 -0.0884  0.0732 -0.0987
16532W        W36812   2.558  11.494   2.582  0.2710 -0.1307  0.1297
16533W        W36813  13.889   1.659   3.109 -0.0465  0.2099 -0.0174
16534W        W36814  15.750  11.079   2.673  0.0018 -0.0853 -0.1358
16535W        W36815   5.117  17.864   3.841 -0.1898  0.1645  0.2048
16536W        W36816   0.101  12.676   4.037 -0.0042 -0.0563  0.0191
16537W        W36817  15.114   9.604  12.813  0.0955  0.0916  0.1402
16538W        W36818   9.989  17.708  15.756 -0.2556  0.1759 -0.4714
16539W        W36819   5.099   7.232   0.396  0.0364 -0.0224  0.1301
16540W        W36820   1.273  13.710   0.214  0.0577  0.1690  0.3626
16541W        W36821  17.841   6.663  16.061  0.2069 -0.1140  0.0521
16542W        W36822  17.757   2.155   2.293 -0.2951 -0.1333 -0.1996
16543W        W36823   6.727   9.998  16.070 -0.0810  0.0900  0.3456
16544W        W36824  17.795   1.610  13.381 -0.0668  0.1274 -0.1561
16545W        W36825   3.474  16.865   0.837 -0.1992  0.2601  0.1136
16546W        W36826  11.550   2.498   2.069 -0.0630 -0.0931 -0.1760
16547W        W36827  13.273   6.600  10.572 -0.2391 -0.5408 -0.0916
16548W        W36828   0.264  17.222  12.604  0.2247  0.1604 -0.0888
16549W        W36829  10.738  11.517  13.853 -0.2073 -0.0905 -0.0117
16550W        W36830  13.766  16.304  13.126  0.3504  0.0618 -0.0699
16551W        W36831   4.865   7.009  16.215  0.2225  0.2807  0.0575
16552W        W36832  11.364  14.470   2.441 -0.3011 -0.0019 -0.1062
16553W        W36833  11.620   1.143  11.848  0.3169 -0.0030 -0.1012
16554W        W36834   6.574  14.060  14.182  0.3644 -0.1014 -0.1825
16555W        W36835   6.482  17.241  11.977 -0.0383 -0.0301  0.1002
16556W        W36836   4.230   4.130  13.507 -0.2189 -0.0505  0.2607
16557W        W36837   1.724  12.362   2.714 -0.1411 -0.1035  0.2361
16558W        W36838   9.230   0.682   1.412 -0.0885 -0.1480  0.1384
16559W        W36839   2.955   3.750   0.429  0.4043  0.1577  0.1769
16560W        W36840   9.800  15.024   1.183 -0.2191  0.3289  0.0614
16561W        W36841  15.270   8.474  15.972  0.1636  0.2302 -0.2122
16562W        W36842  17.749   6.455   4.347  0.4147 -0.0642  0.1050
16563W        W36843   3.056  17.341   2.310  0.0494 -0.1861 -0.1437
16564W        W36844   6.367  10.462  14.209  0.0904  0.0157  0.2344
16565W        W36845  16.107   5.446  14.229 -0.3906 -0.1090  0.2942
16566W        W36846  12.553  12.157  16.286 -0.1645  0.1619  0.0138
16567W        W36847   9.043  16.128   1.676  0.1863 -0.2282 -0.1108
16568W        W36848   0.538   3.179  16.276  0.1009  0.0600 -0.0637
16569W        W36849  11.975  13.239  12.612 -0.0738  0.2713 -0.0637
16570W        W36850   2.450  14.743   0.071  0.1031  0.0370 -0.2038
16571W        W36851   7.757  17.631  14.418  0.1406 -0.0400  0.3570
16572W        W36852  13.476   5.374   2.083 -0.0598  0.2969 -0.3065
16573W        W36853   9.867  16.797  12.380 -0.3117 -0.0740  0.0970
16574W        W36854  13.158   6.343   4.268 -0.1635 -0.0633  0.0724
16575W        W36855   7.985   6.473   3.197  0.0204 -0.0027  0.2038
16576W        W36856  17.135   9.071  13.771 -0.2242 -0.1709 -0.0597
16577W        W36857   2.844  11.210   0.020 -0.1159 -0.3295 -0.1720
16578W        W36858   2.445   1.996   4.566 -0.3202  0.1499 -0.1512
16579W        W36859  14.552  13.009   5.702  0.1316  0.2048 -0.0130
16580W        W36860   9.314  16.868  15.679 -0.0218  0.2677 -0.3984
16581W        W36861   4.573   5.231  12.256  0.1984 -0.2335  0.2489
16582W        W36862  17.463  15.797  16.021  0.1674 -0.1646 -0.2958
16583W        W36863  16.034   8.957   3.765 -0.2633  0.1286  0.1194
16584W        W36864  11.246   7.215   0.655  0.1284  0.1773  0.0422
16585W        W36865   2.049   4.775   1.924 -0.3315 -0.2287  0.0283
16586W        W36866   9.653   4.022   4.495  0.1586  0.1393 -0.1158
16587W        W36867  14.110  14.823  16.463  0.2053 -0.0432 -0.3311
16588W        W36868   3.337  16.433   1.763  0.1723 -0.0050 -0.0771
16589W        W36869   6.048  13.363   3.242  0.3136  0.1161  0.0739
16590W        W36870   9.302  15.474  16.478 -0.0163  0.0739  0.5519
16591W        W36871   8.807   6.215   1.649 -0.2333  0.0311 -0.0846
16592W        W36872   4.650   3.218   0.620  0.0036 -0.0254  0.2349
16593W        W36873  17.338  16.161   1.535  0.0274 -0.0706 -0.0866
16594W        W36874  17.111  14.305   2.827 -0.1912 -0.1199 -0.0234
16595W        W36875   3.744  15.852   1.532 -0.5386 -0.1664 -0.0980
16596W        W36876   9.637   2.330   2.787 -0.0224  0.1549  0.2963
16597W        W36877  14.825  14.839   3.673 -0.1671 -0.1216 -0.0555
16598W        W36878   2.533  14.948   2.982 -0.1206 -0.0731 -0.2467
16599W        W36879   1.522   4.243   1.603 -0.3202  0.0454  0.1142
16600W        W36880  17.986   2.546   0.879 -0.0267  0.0898 -0.3156
16601W        W36881   0.564   4.965   0.837 -0.2003 -0.0685 -0.0506
16602W        W36882  11.973  16.218   4.129  0.1365 -0.4516  0.1750
16603W        W36883   0.384  11.703   0.373  0.0726 -0.1939  0.0069
16604W        W36884  16.663  14.315  15.921 -0.0508  0.2232  0.0634
16605W        W36885   2.788   9.409   0.700 -0.5605 -0.1216 -0.1291
16606W        W36886  15.025  13.553  14.118 -0.0893  0.2852  0.0363
16607W        W36887  11.570  16.202   1.792 -0.1012  0.3213 -0.1138
16608W        W36888   1.481   0.103  16.191  0.0676 -0.4666 -0.1012
16609W        W36889   5.719   3.259  14.490  0.0019 -0.3525 -0.2584
16610W        W36890  10.584   8.735   4.031 -0.1300  0.1429  0.0992
16611W        W36891   8.275  14.578  14.732  0.1351  0.0184  0.0922
16612W        W36892  12.476   7.306   1.501 -0.2584 -0.1003 -0.1534
16613W        W36893  17.181  16.410  12.549 -0.1784  0.0343  0.3851
16614W        W36894  13.099  13.673   3.527  0.0499 -0.2939  0.4746
16615W        W36895   3.425  10.736   3.906  0.1797  0.2714 -0.0602
16616W        W36896   5.772   7.905  11.466  0.0643 -0.1724 -0.1125
16617W        W36897  10.982  10.759   1.542 -0.0965 -0.3364  0.0576
16618W        W36898   2.101  13.088  15.225 -0.1362  0.1996  0.0227
16619W        W36899  12.179  16.222  13.678  0.0203 -0.0965  0.3262
16620W        W36900   2.141  17.152  12.433 -0.1336  0.0487  0.0647
16621W        W36901  14.639  11.180   3.844  0.1496  0.0551 -0.0368
16622W        W36902   9.267   4.063  12.588  0.0854 -0.1140  0.2981
16623W        W36903   3.526  15.543  16.040 -0.1435 -0.0659  0.0021
16624W        W36904   4.035  13.884   3.648 -0.0145  0.0995  0.4255
16625W        W36905   0.778  14.894   3.551  0.1852 -0.1163  0.0421
16626W        W36906  13.870   9.549   0.930 -0.1470  0.0600 -0.0052
16627W        W36907   2.367  13.772  15.119 -0.2473 -0.1850  0.0046
16628W        W36908   3.213  12.306   5.511 -0.0955  0.1096  0.0359
16629W        W36909  17.546  14.797  13.341 -0.0382 -0.1076 -0.1804
16630W        W36910   7.920   5.444   2.507 -0.1313 -0.0668  0.1207
16631W        W36911   9.267  10.030  12.012 -0.0635  0.1259 -0.0923
16632W        W36912   0.816  11.258  15.784 -0.1956 -0.0024 -0.2122
16633W        W36913   5.009   6.091   0.069 -0.2215  0.1062  0.2633
16634W        W36914  15.578   9.788  12.622  0.2116 -0.1425 -0.1757
16635W        W36915  17.744  14.506   4.262  0.3161 -0.0234  0.1615
16636W        W36916   8.594   9.794   1.016  0.2916 -0.4385  0.0316
16637W        W36917  11.039   8.937   3.001 -0.1008 -0.0291 -0.1613
16638W        W36918   8.820   4.345  15.050 -0.2408  0.2676  0.1648
16639W        W36919  17.446   8.466  15.121  0.2297 -0.2526  0.1573
16640W        W36920   2.574  14.939   0.900 -0.2731  0.0741 -0.0226
16641W        W36921   2.287   4.245   4.091 -0.1422  0.1863 -0.0440
16642W        W36922   6.930   0.768   1.466 -0.2407 -0.2178 -0.2046
16643W        W36923   6.736  14.930   4.890  0.1662 -0.1115  0.0530
16644W        W36924  14.518  14.347  15.651  0.1341 -0.0392 -0.2078
16645W        W36925  14.713  15.790   0.804 -0.3236  0.0406 -0.0704
16646W        W36926  17.256   4.242   0.780 -0.0299 -0.1776  0.1514
16647W        W36927   0.119   1.028   1.511 -0.3826 -0.0092  0.0592
16648W        W36928  10.025  17.982  16.634  0.2574  0.1243 -0.1158
16649W        W36929   9.694  13.282  12.680  0.0215  0.2478 -0.2020
16650W        W36930   3.646   7.829  12.742 -0.0133  0.2251  0.1725
16651W        W36931   0.485   2.790   1.799  0.0280  0.2207  0.0789
16652W        W36932   6.368  11.662  12.969  0.0923  0.0362 -0.0997
16653W        W36933  10.459  14.768  12.659  0.0364 -0.1182  0.0670
16654W        W36934  16.517   1.127  14.995  0.3503  0.1957 -0.0331
16655W        W36935  10.297   8.012   1.684  0.3034 -0.0123 -0.0431
16656W        W36936   1.685  13.199   1.164 -0.0911 -0.1394 -0.0144
16657W        W36937   3.924   0.809   2.931 -0.3170 -0.1490  0.4188
16658W        W36938  13.366   6.896   2.390  0.1980 -0.0018  0.0682
16659W        W36939  10.396   6.656  16.251  0.1194 -0.0855  0.3148
16660W        W36940   0.319   9.431   0.481 -0.2755  0.1179  0.1150
16661W        W36941   2.298   2.281  13.140  0.0717  0.0048 -0.1528
16662W        W36942  17.761   7.639  13.443 -0.3351  0.0341 -0.2697
16663W        W36943   6.258   1.366   0.095  0.1566 -0.4870  0.0446
16664W        W36944  14.548  11.796  14.391  0.1786  0.0265  0.3180
16665W        W36945   3.503   8.232  16.463 -0.0734 -0.3137 -0.1125
16666W        W36946  11.831   1.732  14.157 -0.2706 -0.1353  0.0076
16667W        W36947  12.511   1.318  11.874 -0.0512  0.0351 -0.0305
16668W        W36948   1.230  16.764  16.176 -0.1034  0.2052  0.0676
16669W        W36949  13.181   9.218  16.515  0.3078  0.1295  0.0169
16670W        W36950  15.907  16.126   4.369 -0.3074 -0.1702 -0.1936
16671W        W36951  12.870   8.660  14.066  0.0683  0.0795 -0.0485
16672W        W36952   7.960  11.123  13.323 -0.1775  0.3276  0.0251
16673W        W36953   7.902   0.154   0.331 -0.1741  0.4177  0.3589
16674W        W36954   8.904   1.685   4.138  0.1126  0.2587 -0.0429
16675W        W36955   2.195   5.214   1.805 -0.0755 -0.0853 -0.0501
16676W        W36956   5.588   6.072  16.158  0.1424 -0.2597 -0.0279
16677W        W36957   6.416   8.602   1.016 -0.1153 -0.0288 -0.1067
16678W        W36958   4.976   7.931  12.819  0.0255 -0.0660  0.0586
16679W        W36959   8.789  12.739   6.041  0.1703 -0.1793  0.1569
16680W        W36960   7.092   8.249   1.182 -0.0523  0.3099  0.1046
16681W        W36961  12.288   5.423   0.810 -0.1346  0.2692  0.2706
16682W        W36962  12.318   1.946   4.695 -0.0935 -0.2569 -0.1210
16683W        W36963   3.690  15.223  15.251 -0.1527 -0.0930  0.1204
16684W        W36964  15.790   5.911  16.117  0.2181 -0.3827  0.2024
16685W        W36965   9.181   8.991   1.278 -0.0099  0.1041 -0.0156
16686W        W36966   4.013  11.407   4.638 -0.0314 -0.0749  0.1426
16687W        W36967   1.965  12.054   1.734 -0.1252  0.0940 -0.1945
16688W        W36968  17.860   1.722   2.694  0.0992 -0.0069  0.2809
16689W        W36969  12.823   4.619   0.998 -0.0888 -0.0316 -0.2141
16690W        W36970   3.367  15.287  12.065  0.2501 -0.0052  0.0959
16691W        W36971  10.867   9.917  16.038 -0.0187 -0.1957 -0.0168
16692W        W36972  13.461   5.461  16.690 -0.0131 -0.0602  0.1218
16693W        W36973   8.394  17.278  12.549  0.0949 -0.2665 -0.1687
16694W        W36974   3.053  16.884  12.202 -0.2028  0.0218 -0.0475
16695W        W36975   8.883   5.404  16.195 -0.0172 -0.3091 -0.0307
16696W        W36976  15.574   1.610  15.249  0.1484 -0.0687 -0.1692
16697W        W36977   7.536   5.963   3.870 -0.0012  0.1737  0.1001
16698W        W36978   2.713  12.336  13.211 -0.1687  0.2800 -0.2439
16699W        W36979  12.039   4.217  13.124  0.0623  0.0356 -0.0173
16700W        W36980   4.314   8.438   4.433  0.2371  0.3559 -0.0630
16701W        W36981  16.213   7.162  13.851 -0.0367 -0.1881  0.1570
16702W        W36982  17.364  15.381   4.220  0.0146  0.0125  0.0747
16703W        W36983   5.827   5.569  12.114  0.1359 -0.0646 -0.3389
16704W        W36984   1.117   4.941   2.076  0.0869  0.1389  0.3686
16705W        W36985  10.105   2.298  14.386 -0.3138  0.0316 -0.0203
16706W        W36986   6.204  17.603  15.096 -0.1566  0.1282  0.0536
16707W        W36987   3.822   3.292   4.194  0.0078  0.0211  0.2097
16708W        W36988  10.390  11.969  13.983 -0.0578  0.1621 -0.1594
16709W        W36989   1.294  16.214   1.406  0.2021 -0.0717  0.0358
16710W        W36990   2.660   4.465  16.410  0.0369  0.4199  0.0546
16711W        W36991  14.035   6.290   2.732 -0.0522  0.0894  0.2324
16712W        W36992  14.557  14.500   0.351 -0.2210  0.0553  0.0119
16713W        W36993   7.874  10.107   4.322  0.1770 -0.0178 -0.0543
16714W        W36994   2.451   6.437  15.244 -0.0756  0.2030  0.1442
16715W        W36995  15.606   1.652  16.093 -0.1218 -0.0046  0.2248
16716W        W36996  12.310  17.356   4.784  0.4047 -0.2954 -0.0625
16717W        W36997  12.687   3.372  12.098  0.0346 -0.2867  0.2285
16718W        W36998   4.948  14.031  12.749 -0.0337 -0.0384  0.1905
16719W        W36999  13.844   6.024  13.798  0.3859 -0.2000  0.1223
16720W        W37000   5.766  12.513  12.713 -0.0008  0.0410  0.1119
16721W        W37001  14.025  10.473  13.697  0.2712 -0.0095 -0.2899
16722W        W37002  16.161   8.783  16.488  0.2703  0.1830 -0.2722
16723W        W37003  13.773   1.333   0.757 -0.2566 -0.0661 -0.2648
16724W        W37004  11.052  17.417  14.715  0.1694  0.0773  0.2128
16725W        W37005   3.028  13.302   2.589 -0.0097  0.1345  0.2107
16726W        W37006   1.414  13.678  14.485 -0.1254  0.0118  0.1258
16727W        W37007   4.831   2.144   4.421 -0.3361 -0.3133 -0.1807
16728W        W37008   7.904  17.661  13.550 -0.2230 -0.1022  0.1406
16729W        W37009  17.310   0.879   1.561 -0.2405 -0.2804  0.1125
16730W        W37010  11.934   3.340  15.012  0.3235  0.2162 -0.1285
16731W        W37011   1.990  14.497   3.607  0.1906  0.3379  0.1220
16732W        W37012   2.087   7.769   4.537  0.0618 -0.1144  0.0774
16733W        W37013   5.463  10.147  15.530 -0.0424 -0.0327  0.2783
16734W        W37014  12.500  13.078   4.037 -0.3958  0.2657  0.1130
16735W        W37015   8.292  16.877   0.745 -0.1426 -0.0006 -0.0016
16736W        W37016  10.573   9.002   3.067  0.1294  0.1347  0.0976
16737W        W37017   2.597  10.837   0.854 -0.1383  0.1354 -0.3632
16738W        W37018   3.335   8.550  15.144  0.2160  0.0926  0.1390
16739W        W37019  15.424   0.871  16.054  0.0387  0.0270 -0.1864
16740W        W37020   3.800   5.646   0.122  0.0392  0.0720  0.0394
16741W        W37021  11.376  17.861  14.513 -0.0734 -0.0211  0.1504
16742W        W37022  13.030   0.066  16.451 -0.3277 -0.0945  0.0801
16743W        W37023   6.228  13.463   2.269 -0.0131 -0.4875  0.0222
16744W        W37024  11.497   4.551  16.291 -0.0207  0.0314 -0.3442
16745W        W37025  10.332   3.386   0.352  0.1911 -0.0401 -0.2367
16746W        W37026   6.340  13.628   4.637 -0.1683 -0.0275  0.0669
16747W        W37027  12.245  17.545  13.673  0.0820 -0.0131 -0.2274
16748W        W37028   4.886   2.970   4.145  0.0337 -0.1053 -0.2094
16749W        W37029  15.522  10.839   1.346 -0.3074 -0.1809 -0.3177
16750W        W37030   8.595  15.676  12.648  0.2173  0.1008 -0.0117
16751W        W37031   6.558  14.319   0.208  0.0579 -0.1022 -0.1083
16752W        W37032  16.580  15.696  14.584 -0.2210 -0.0652  0.1839
16753W        W37033   6.825  11.879  11.990 -0.1799  0.0211 -0.0564
16754W        W37034  13.489   2.218   2.754  0.2537  0.1233  0.1654
16755W        W37035   3.995  14.782  14.854 -0.1223 -0.2458  0.2735
16756W        W37036  17.867  16.410   1.747  0.0486 -0.1840  0.2387
16757W        W37037  10.536  13.617  13.010  0.1699  0.1947 -0.1149
16758W        W37038  16.107   7.729   1.434 -0.0885 -0.2183  0.1963
16759W        W37039  11.132  10.797   4.211  0.2132  0.0204 -0.0632
16760W        W37040  10.398  14.188   4.373 -0.0637 -0.2480 -0.1119
16761W        W37041   2.290   5.877   3.913  0.2277  0.1928  0.3917
16762W        W37042   4.049  11.807   2.952  0.0671  0.1014 -0.1840
16763W        W37043  16.679  16.668   4.728 -0.0132  0.1337  0.1528
16764W        W37044   8.642  12.399  16.397 -0.1554  0.0682 -0.0588
16765W        W37045   1.974  16.549  14.637 -0.1049  0.0142 -0.1244
16766W        W37046  12.906  12.423  12.888  0.0131 -0.2510 -0.0036
16767W        W37047  10.466  14.370   1.813 -0.0114  0.1985 -0.3122
16768W        W37048   5.636  13.521  16.458  0.2845 -0.0651 -0.1849
16769W        W37049   2.656   7.268  15.225  0.0366  0.3851  0.2202
16770W        W37050   5.763  15.541  13.833 -0.2731 -0.0454  0.2172
16771W        W37051   8.732   0.918   1.135 -0.4616 -0.0470 -0.2042
16772W        W37052  10.862   3.602   0.096 -0.0625 -0.0687 -0.1171
16773W        W37053   5.094  16.633   0.521  0.0571  0.1782  0.0686
16774W        W37054   0.113   9.231  12.289  0.1160 -0.0354 -0.1735
16775W        W37055  16.621  12.497   3.637  0.1230  0.0633 -0.2218
16776W        W37056   5.508  12.789  13.102 -0.0871  0.2721  0.1188
16777W        W37057   0.495  13.798   2.887 -0.0970 -0.1353 -0.2217
16778W        W37058  12.904   7.997   0.599  0.1091 -0.0044 -0.0919
16779W        W37059  17.072   7.924   1.395 -0.3646 -0.0432  0.1485
16780W        W37060  10.546   9.512   3.881  0.1691  0.1853 -0.1091
16781W        W37061   4.018   0.631   3.985 -0.1637  0.3352  0.1556
16782W        W37062   9.504  15.490   1.712  0.1298 -0.0376 -0.0439
16783W        W37063  10.401   7.371   4.068  0.0332 -0.0962 -0.0947
16784W        W37064   3.194   3.751   2.607 -0.4156  0.3041  0.1225
16785W        W37065   9.865   7.271  12.088  0.2312 -0.0578 -0.0211
16786W        W37066   0.718  13.522  12.936  0.2886 -0.0801 -0.2173
16787W        W37067   9.803  11.067  16.127 -0.1760 -0.2348  0.1500
16788W        W37068  16.297   4.768   4.121  0.0189  0.2380  0.1212
16789W        W37069  17.175   0.049  12.917  0.0137 -0.1988  0.0264
16790W        W37070   3.614  13.981  14.567  0.1314 -0.4362 -0.0854
16791W        W37071  12.688  12.130   3.808 -0.0273  0.1192 -0.2245
16792W        W37072   0.794   8.295  12.680  0.3508 -0.1544  0.0350
16793W        W37073   0.427  17.186   1.536  0.0662  0.1677 -0.0096
16794W        W37074   0.228  11.606   4.145  0.2741 -0.2671 -0.3037
16795W        W37075  14.451  11.156  12.958  0.0315  0.0561  0.2167
16796W        W37076  17.930  11.678  15.592 -0.1371 -0.0303 -0.2939
16797W        W37077   9.493   4.109   0.861  0.0905  0.1439 -0.0550
16798W        W37078   3.478   2.945  12.212 -0.0232 -0.0300 -0.1943
16799W        W37079  15.204  13.930   3.277 -0.1310 -0.1654  0.2996
16800W        W37080   3.948   4.748  15.960  0.2038  0.3509  0.0131
16801W        W37081  14.336   2.055  13.716  0.1023  0.2599 -0.1027
16802W        W37082  11.415  10.620  15.646  0.3429  0.3001  0.1063
16803W        W37083   3.346  10.707   4.400 -0.0890  0.1152 -0.0144
16804W        W37084   6.973  14.871  12.535 -0.3265 -0.0359  0.0160
16805W        W37085  14.435  10.622  16.504 -0.1618 -0.2485  0.0423
16806W        W37086   9.140  14.008  11.886  0.1793 -0.1149 -0.0105
16807W        W37087   4.334   9.420  16.094  0.0147 -0.0810 -0.1117
16808W        W37088   9.491   7.032  14.433 -0.1943  0.0387  0.2429
16809W        W37089   8.354   1.042   1.634 -0.2004  0.0164 -0.0273
16810W        W37090   4.903   0.952   3.732 -0.3460  0.0477 -0.1162
16811W        W37091  12.988   1.184   3.859 -0.1351  0.1369 -0.2794
16812W        W37092   0.710  14.834   4.096  0.2627  0.1960 -0.1816
16813W        W37093  16.144   2.262  13.834 -0.2220  0.1235 -0.1682
16814W        W37094   1.984   2.809  13.308 -0.4381 -0.1053  0.0798
16815W        W37095  12.885  11.851  15.903  0.1064 -0.0398 -0.0716
16816W        W37096   9.885  15.498  14.928  0.1381  0.2143 -0.1104
16817W        W37097   2.364  16.956  14.655 -0.3498 -0.1189  0.4768
16818W        W37098   8.577  11.121  15.397  0.1632 -0.1318 -0.0716
16819W        W37099   8.688   2.971  14.844 -0.0458  0.0748 -0.1476
16820W        W37100  16.034  16.413   1.212  0.1795 -0.2614 -0.1089
16821W        W37101  16.843   0.848   0.889  0.2548 -0.2730  0.2094
16822W        W37102   3.933   0.225  13.509 -0.0419  0.2431  0.0927
16823W        W37103  17.404   5.495   4.286 -0.1097  0.0376 -0.0593
16824W        W37104   2.598  14.847   1.509 -0.0474 -0.1083  0.0407
16825W        W37105  17.223   1.319  12.043  0.0036 -0.1307 -0.0528
16826W        W37106   9.881   0.054   0.449  0.3175 -0.0771 -0.0255
16827W        W37107   8.599  14.817   2.566 -0.1655 -0.0536  0.0700
16828W        W37108   8.303  12.735   2.846 -0.4352  0.1970  0.2492
16829W        W37109  11.614   7.753  11.632 -0.1515 -0.0096  0.3806
16830W        W37110  16.561  11.585   3.048 -0.0294  0.1981 -0.2901
16831W        W37111  13.380  16.293  15.102  0.2139 -0.1634 -0.2615
16832W        W37112  16.617  17.944  13.641  0.2062 -0.1635  0.3054
16833W        W37113   7.947  10.817   0.155 -0.0897 -0.0705 -0.1770
16834W        W37114   5.093   4.146  15.232  0.1186 -0.1723 -0.1167
16835W        W37115   8.981   0.032  12.206 -0.2667  0.0156  0.0255
16836W        W37116   3.368  17.968  12.449 -0.2395 -0.2183  0.1567
16837W        W37117  12.991  14.182  16.003 -0.1750  0.2857 -0.0643
16838W        W37118  12.634   7.201  14.276 -0.2759 -0.1698  0.0220
16839W        W37119   1.274  14.239  12.222 -0.2303 -0.0887 -0.1134
16840W        W37120   1.923   2.132   3.415 -0.3624  0.0362 -0.0950
16841W        W37121   6.890  14.284  13.758  0.3149  0.1065 -0.0657
16842W        W37122  10.619  11.229  16.602  0.0656 -0.1853 -0.2380
16843W        W37123  15.441  12.235  15.273  0.1312  0.0284  0.3087
16844W        W37124   7.184   0.788   4.294  0.0067 -0.1679  0.0585
16845W        W37125   3.680  10.772  13.137  0.1868  0.1217  0.0051
16846W        W37126  14.021  16.102   4.819 -0.2035  0.2773  0.2217
16847W        W37127  17.845  12.526  16.654  0.1894  0.3496 -0.2388
16848W        W37128  13.935   5.777   2.966  0.1061 -0.0235  0.1956
16849W        W37129  12.956   4.389   2.672 -0.0386 -0.1926 -0.3480
16850W        W37130  15.044  12.430  14.186 -0.1539  0.1564  0.2632
16851W        W37131   3.236   7.372   3.110  0.0688 -0.0537 -0.1838
16852W        W37132  14.273  14.051   0.474 -0.1777  0.1669  0.0009
16853W        W37133  15.738  13.031  16.165 -0.0389 -0.1895  0.1116
16854W        W37134  17.140  11.201  14.130  0.2964  0.0504 -0.1217
16855W        W37135  11.608  13.092   1.031  0.1147  0.2350  0.1378
16856W        W37136  15.418   0.594  12.318 -0.0984 -0.0579  0.0932
16857W        W37137  16.030   2.948   3.459 -0.0471  0.0232 -0.0229
16858W        W37138   2.855   7.140   4.628  0.3718  0.0329 -0.1314
16859W        W37139   9.281  11.931  13.179 -0.2168 -0.2616 -0.1321
16860W        W37140   9.575  15.988  15.149  0.1102 -0.1691 -0.4171
16861W        W37141  13.486  17.489   2.613 -0.0843  0.1534 -0.3630
16862W        W37142  10.681  16.750   0.214  0.1096  0.0230  0.3294
16863W        W37143   6.373  12.481  13.427 -0.4710  0.0541 -0.0833
16864W        W37144   4.440   4.110   1.265 -0.0906  0.0374  0.1550
16865W        W37145   3.640  15.622   2.761 -0.0409 -0.0783  0.0725
16866W        W37146  15.436   2.904   1.049 -0.1078 -0.3836  0.1921
16867W        W37147  12.019   7.400   1.294  0.1107  0.0274  0.0942
16868W        W37148   9.364  10.116   3.403 -0.2505  0.0373 -0.0167
16869W        W37149   7.619   1.526   1.252  0.3093 -0.1698  0.1451
16870W        W37150  16.836   1.326   3.840  0.1836 -0.0324  0.1506
16871W        W37151   4.346   2.622   3.436  0.1248 -0.0532 -0.1230
16872W        W37152   2.111  17.915   4.161 -0.2912 -0.1248  0.0184
16873W        W37153   8.550   7.558  16.659  0.0068 -0.0171  0.0204
16874W        W37154   4.907  16.548  15.033 -0.2742 -0.1697  0.2700
16875W        W37155  14.731   2.911  14.058 -0.0129  0.1635 -0.1317
16876W        W37156  17.274  12.968  15.715  0.2632 -0.0116 -0.0604
16877W        W37157  13.127   7.074   2.785  0.4141 -0.1026 -0.1692
16878W        W37158  10.539  14.809   5.805  0.4191  0.0603  0.1004
16879W        W37159   9.099  10.268   1.992 -0.0202  0.1026  0.0597
16880W        W37160  12.609  11.406  15.868  0.1967 -0.1160 -0.0612
16881W        W37161   2.138   3.736   1.657 -0.4281  0.1373  0.1043
16882W        W37162   3.159   4.094   3.293  0.0782  0.0725 -0.0349
16883W        W37163  11.340   7.787   0.082  0.3560 -0.4219  0.1133
16884W        W37164   6.647  15.741   1.412  0.2216 -0.3649 -0.0915
16885W        W37165   5.243  13.682   1.920 -0.1684 -0.0570  0.1386
16886W        W37166   3.160  15.478  16.461 -0.0900  0.0567  0.1204
16887W        W37167   9.528  12.878  13.667  0.2371  0.0394 -0.1937
16888W        W37168   4.833   4.224   2.544 -0.1300  0.0950  0.0167
16889W        W37169  12.734   7.356  13.830 -0.2918 -0.1261 -0.0619
16890W        W37170  10.836  12.158   4.872 -0.1208 -0.0830 -0.2018
16891W        W37171   6.963  13.367   3.640 -0.4179  0.1327 -0.4994
16892W        W37172  10.382   4.317  15.107  0.1765  0.0759  0.3038
16893W        W37173  15.556  15.268   0.297 -0.1037  0.1778  0.2143
16894W        W37174   1.694  16.437  15.125  0.3720 -0.1478 -0.1661
16895W        W37175   5.164  12.522  15.553  0.3073  0.1299  0.3429
16896W        W37176   4.610   1.766   2.938  0.2711 -0.0365 -0.1362
16897W        W37177  11.453   0.212   2.845 -0.0061 -0.0340  0.1517
16898W        W37178   4.909  11.948   3.212  0.1201  0.1354  0.2195
16899W        W37179  15.667  12.640   0.731  0.0649  0.4914 -0.0630
16900W        W37180   3.675   2.382  15.618  0.1641  0.0854  0.0081
16901W        W37181  10.222   3.339  10.160 -0.2043  0.0523 -0.2952
16902W        W37182  10.692  13.448   1.297  0.0442  0.1649  0.0063
16903W        W37183   1.420   7.244  14.100  0.2309  0.0066  0.1396
16904W        W37184   2.515   0.058  14.058 -0.0603  0.0408  0.2717
16905W        W37185   8.260  15.397  12.481  0.0655  0.0475  0.0793
16906W        W37186  11.099  16.853   1.629  0.0078  0.1104  0.0523
16907W        W37187  16.858  14.265  13.785 -0.0691  0.2286  0.3008
16908W        W37188  15.936   4.410   2.654  0.2260  0.0073  0.0993
16909W        W37189   9.304  11.800  12.579  0.4039  0.4853 -0.0206
16910W        W37190  17.019  16.799  12.237  0.4482 -0.1290 -0.1853
16911W        W37191   5.097   4.531  12.430 -0.2871  0.1038 -0.0817
16912W        W37192   6.083  10.981  13.576  0.0832  0.0683  0.2241
16913W        W37193   0.126   7.169   0.665 -0.2213 -0.0898 -0.4145
16914W        W37194  13.461   5.585   4.223  0.2048 -0.2090  0.0402
16915W        W37195  16.296  17.528  13.799 -0.1500 -0.1075 -0.0849
16916W        W37196   7.649  10.112  14.581 -0.1576 -0.0616  0.2098
16917W        W37197  10.052   8.636   3.854  0.1858  0.3259  0.0030
16918W        W37198  12.461   5.526   1.863  0.1644 -0.1243 -0.1649
16919W        W37199   5.369   2.398   3.734  0.2214 -0.4700 -0.0180
16920W        W37200   1.412   8.204  13.980 -0.0394 -0.1289  0.1868
16921W        W37201  15.873  10.356   0.964  0.1238  0.1203  0.0166
16922W        W37202  16.141   8.129   2.317 -0.1745  0.0380  0.2250
16923W        W37203   5.742  17.739   3.348 -0.3103 -0.2608 -0.1225
16924W        W37204   3.146   2.137   4.019  0.0096 -0.0601 -0.1470
16925W        W37205  13.653   2.711  12.584 -0.0925 -0.2204 -0.2242
16926W        W37206   0.501   5.933   0.881 -0.0633 -0.2656 -0.1886
16927W        W37207  15.435  16.210  16.335  0.0209  0.0930  0.0535
16928W        W37208   5.003  14.751  13.908  0.1220  0.1979 -0.0094
16929W        W37209   0.197  10.055   1.826 -0.2460 -0.1680  0.2123
16930W        W37210   2.930   8.025  16.608 -0.1181  0.1123 -0.1221
16931W        W37211   7.590   6.778  13.486 -0.0610  0.1266 -0.2091
16932W        W37212   7.365  17.805  13.959  0.3158 -0.2165 -0.0888
16933W        W37213  11.647   4.144   3.209 -0.1353  0.0647  0.0716
16934W        W37214  11.610   1.767   0.469 -0.1113 -0.0895  0.0655
16935W        W37215   3.332   7.719  16.634  0.0140 -0.1088  0.0930
16936W        W37216  11.446   9.200   3.167 -0.1395 -0.1106 -0.2407
16937W        W37217  12.630  10.640   4.111  0.0801  0.0403  0.2848
16938W        W37218   7.843   5.603  14.820  0.2384  0.0254 -0.2321
16939W        W37219  10.138  13.523  12.645 -0.0490 -0.1270 -0.0479
16940W        W37220   1.788  11.582   3.523 -0.0668 -0.0688  0.3561
16941W        W37221  14.227  15.258  15.489 -0.3329  0.2155 -0.0150
16942W        W37222   9.227   1.180   1.266  0.0635  0.2215  0.2073
16943W        W37223  15.202   7.824   1.177  0.1982 -0.1973  0.2177
16944W        W37224  11.894  17.008   1.170 -0.4616  0.2134  0.1017
16945W        W37225   7.682   5.261   0.859  0.1090 -0.3780 -0.1953
16946W        W37226   3.395   6.041  15.904 -0.1145 -0.0430  0.0351
16947W        W37227  16.426   8.211  14.874  0.1987  0.1778 -0.1011
16948W        W37228  17.957  15.659  15.627 -0.0386  0.2576  0.2164
16949W        W37229  12.346   8.499   1.906  0.1774 -0.0380 -0.0057
16950W        W37230  11.009   1.088  16.614 -0.1159  0.2626  0.3110
16951W        W37231  11.134   5.800   1.021 -0.0222  0.0345  0.2212
16952W        W37232   9.347   8.741  15.819  0.1556 -0.0489 -0.3257
16953W        W37233  17.048   9.022  16.021 -0.0955 -0.1304 -0.1051
16954W        W37234   2.832  14.131   5.173  0.2673  0.0039  0.2750
16955W        W37235   3.058   6.891  14.238  0.2551 -0.2322  0.1599
16956W        W37236  15.924   1.768  14.267 -0.1213 -0.0857  0.0193
16957W        W37237   5.330  12.740   4.577  0.2331 -0.1217 -0.0705
16958W        W37238   1.655  17.928   4.888  0.0115  0.1713  0.1112
16959W        W37239   1.559   5.734  13.585  0.0474 -0.4363 -0.1525
16960W        W37240  13.895   0.150   3.880 -0.0930  0.0223 -0.0972
16961W        W37241   8.844  17.011   0.347  0.0477  0.1616  0.1440
16962W        W37242  17.842  17.667  16.503 -0.0007  0.1283 -0.1767
16963W        W37243   9.107   5.937   4.412  0.2505 -0.1277  0.1056
16964W        W37244   5.173  14.841   0.247 -0.3418  0.0972 -0.1077
16965W        W37245   0.720  11.880  13.508  0.2124 -0.0163  0.0728
16966W        W37246   6.024   9.766   6.342  0.1906  0.0130 -0.2204
16967W        W37247  12.783  11.194  12.932  0.2778  0.0838  0.0376
16968W        W37248   6.831   9.444  13.354  0.2396  0.0946 -0.1027
16969W        W37249  11.072   4.422  16.104 -0.3613  0.0236  0.0381
16970W        W37250   4.756   7.962  15.403  0.1437 -0.1294 -0.1058
16971W        W37251   4.406  17.841   1.523 -0.1081  0.0084  0.2802
16972W        W37252  15.151   2.084  14.467  0.0315  0.0224  0.2422
16973W        W37253   7.826   3.306  14.565  0.0385 -0.0074  0.2807
16974W        W37254  16.642   6.361   4.561  0.1602  0.0653 -0.0860
16975W        W37255   0.164  16.589   1.330  0.3034  0.1230  0.0940
16976W        W37256   3.954  15.641  12.861 -0.2575 -0.0806 -0.1559
16977W        W37257   7.900   0.740   4.552  0.0182 -0.0359  0.2805
16978W        W37258  10.155   8.522  12.484  0.1983  0.1622  0.3199
16979W        W37259   6.026  17.943   2.952 -0.2334  0.0736 -0.0645
16980W        W37260   0.575   2.759  14.528 -0.1521  0.0699 -0.0688
16981W        W37261  16.190   2.336   2.391 -0.4739 -0.0863 -0.1514
16982W        W37262   0.684  10.295   0.012  0.0708  0.1820 -0.0427
16983W        W37263   6.525  16.866  14.532 -0.0955  0.1664 -0.0473
16984W        W37264  15.976  12.068  16.096  0.0518  0.1211  0.5989
16985W        W37265  16.790  10.359   3.079 -0.0121 -0.0195  0.1749
16986W        W37266  15.091  10.049   4.018 -0.3068  0.1178  0.0657
16987W        W37267   5.479  13.110  16.160  0.0003  0.0365  0.0017
16988W        W37268   7.665   2.272  16.328 -0.0602 -0.0895  0.1279
16989W        W37269  17.941   4.161   3.303  0.2822 -0.1482 -0.1876
16990W        W37270   0.565   6.111   4.101 -0.0388  0.1427 -0.0502
16991W        W37271   6.901   8.179   4.032 -0.2176  0.2278 -0.2616
16992W        W37272   7.551  11.432   1.356 -0.0093  0.2593  0.1507
16993W        W37273   7.863   3.784   1.003 -0.0420  0.1676 -0.0725
16994W        W37274  15.955   0.384   3.365 -0.1131  0.0708  0.2431
16995W        W37275   8.285   5.366  16.436 -0.0128  0.0019 -0.2341
16996W        W37276   3.821  15.768  14.022 -0.0365 -0.0311 -0.0744
16997W        W37277   9.389  14.392   3.858  0.2230 -0.0930  0.1817
16998W        W37278  13.095   8.572  16.278 -0.0405 -0.0740 -0.1374
16999W        W37279   0.905   6.521  16.574  0.0706 -0.2219  0.0923
17000W        W37280   4.671  17.446   2.816 -0.0126  0.0539  0.0716
17001W        W37281   2.117  11.914   0.030  0.0882  0.0393 -0.1863
17002W        W37282   9.935   5.028  13.077 -0.0702  0.0188  0.1558
17003W        W37283  10.938  17.987   0.898  0.1702  0.2555  0.2462
17004W        W37284  11.561  16.788  13.062  0.2516 -0.2369 -0.0083
17005W        W37285   0.794  14.844  13.048  0.2293  0.0800 -0.1167
17006W        W37286   5.680   4.408   0.801 -0.2895 -0.1647 -0.0451
17007W        W37287  16.029   6.482   3.785 -0.3342  0.0992 -0.1127
17008W        W37288  14.640   2.645   0.807 -0.2211  0.0001  0.3536
17009W        W37289  11.869   5.342  12.027  0.2048  0.0040  0.0776
17010W        W37290  10.327   1.292   0.595  0.0121 -0.0755 -0.0656
17011W        W37291   2.858   9.565  14.347 -0.1446  0.0967  0.0892
17012W        W37292  15.774  10.425   1.973 -0.1444  0.2703 -0.1621
17013W        W37293   0.962  12.831   3.381 -0.2164  0.2948 -0.1474
17014W        W37294   5.504   7.402  15.392 -0.3082 -0.1061 -0.0454
17015W        W37295   9.835   2.872   4.093  0.2163  0.0056 -0.1137
17016W        W37296   9.331   3.062   5.002 -0.0102  0.2083 -0.1657
17017W        W37297   8.937  10.057  13.602  0.1586  0.1609  0.1229
17018W        W37298  15.144   9.692  15.425 -0.0594  0.2281 -0.1917
17019W        W37299  10.142   4.284   3.920  0.1314 -0.1093  0.2094
17020W        W37300  16.272   4.882  15.139  0.1376  0.1277  0.2469
17021W        W37301  12.489   4.565  11.779 -0.0402 -0.1777  0.0000
17022W        W37302   4.056  15.388   4.578  0.1743 -0.3290 -0.1830
17023W        W37303  10.681   2.935   2.309  0.0976 -0.0918  0.2235
17024W        W37304   3.978   7.769  14.924  0.2440 -0.2664  0.0595
17025W        W37305   2.233  13.379  14.875  0.0320 -0.1951 -0.0752
17026W        W37306   6.752   1.377   3.126  0.1469  0.1220 -0.1966
17027W        W37307   1.222  14.849   3.802  0.0176 -0.1324  0.2554
17028W        W37308   8.136   3.937   2.408  0.2607 -0.0735  0.1131
17029W        W37309   9.407  15.375   4.693  0.1323 -0.1442  0.1499
17030W        W37310   4.157  13.689   2.611  0.0454 -0.2941 -0.2976
17031W        W37311   2.625   1.844  12.312  0.0593 -0.1519 -0.1068
17032W        W37312  16.590   7.716   4.404 -0.0375  0.0763  0.0427
17033W        W37313  13.386  11.317  12.332 -0.2519  0.3351 -0.0850
17034W        W37314   4.326   7.776   3.127  0.4126 -0.1905  0.1842
17035W        W37315  14.164   7.487  12.104 -0.1524  0.1001  0.0406
17036W        W37316   7.024  13.250   2.746 -0.0097 -0.0810  0.1802
17037W        W37317   7.581   8.913   3.806  0.0658 -0.0202  0.1585
17038W        W37318  17.820   7.414   2.661 -0.5486  0.0551 -0.1281
17039W        W37319   5.407   8.184  12.608  0.0755  0.2206 -0.0828
17040W        W37320  14.474   5.941   4.396  0.0498 -0.1246  0.0076
17041W        W37321   4.232   0.811  14.984 -0.0587  0.1252  0.0491
17042W        W37322   2.671  11.963   2.535  0.0566 -0.0272 -0.2559
17043W        W37323  12.237   9.821  15.978  0.1187 -0.0570  0.1511
17044W        W37324   0.221  12.559  15.238  0.1140  0.4084  0.1295
17045W        W37325   0.099   3.371   4.275  0.2871  0.2886  0.3400
17046W        W37326  15.358  13.962   3.845 -0.2353 -0.2822  0.0621
17047W        W37327   6.731  16.343  15.243  0.1055  0.0578 -0.0438
17048W        W37328  17.350  16.042  14.344 -0.2715  0.0636 -0.1165
17049W        W37329   3.087  15.465   2.131 -0.0384 -0.1459  0.3224
17050W        W37330   5.192  13.143   4.183 -0.1364  0.2669 -0.3350
17051W        W37331  14.789   8.691  13.665  0.2138  0.1925 -0.2754
17052W        W37332   1.623   0.922   1.860  0.3045 -0.0507  0.0942
17053W        W37333  10.437   0.433   3.227  0.0471  0.1042  0.1389
17054W        W37334   3.105   2.615  13.252 -0.0087 -0.1241 -0.0880
17055W        W37335   1.109   3.600   1.723  0.1110 -0.0392  0.1703
17056W        W37336   2.342  14.131   3.696 -0.0853 -0.0983 -0.1007
17057W        W37337  10.203  12.803  16.144  0.1921 -0.0674 -0.0638
17058W        W37338   2.241   2.051  15.887  0.5321  0.0354 -0.0702
17059W        W37339  10.639  12.054  12.688  0.0347  0.2181 -0.0259
17060W        W37340   9.965   7.106  12.571  0.1462 -0.1427 -0.2379
17061W        W37341  15.645   8.918  16.649  0.1663 -0.1716 -0.1594
17062W        W37342   1.117   9.845  12.579 -0.0737  0.0910  0.1440
17063W        W37343   7.697   4.727   0.880  0.0041 -0.1043 -0.3006
17064W        W37344   1.733   7.476  15.375 -0.1793  0.2170  0.0417
17065W        W37345   3.533  14.089   0.239  0.0597  0.0597 -0.1119
17066W        W37346   3.041   7.599  15.196 -0.0459  0.0926  0.3297
17067W        W37347   8.388   9.853  15.181  0.1137  0.3436  0.1600
17068W        W37348   5.617  13.325  15.081  0.1907 -0.0302 -0.1143
17069W        W37349  17.674   4.693  13.720 -0.1529  0.1016 -0.0484
17070W        W37350  13.706  15.884  16.040 -0.0868  0.0052  0.0326
17071W        W37351   8.624   7.301  13.602 -0.0150 -0.0511 -0.2060
17072W        W37352   3.842  14.084   5.028 -0.0125 -0.0861  0.2346
17073W        W37353   5.534   4.386  15.191 -0.0224 -0.2366  0.1681
17074W        W37354  17.621  14.589   3.261 -0.1940  0.1141  0.1287
17075W        W37355   0.466  16.438  15.238  0.3686  0.1973  0.1471
17076W        W37356  17.849  15.585  12.389 -0.0367 -0.0942  0.0084
17077W        W37357  10.584   4.244  11.790 -0.2271 -0.2700  0.0091
17078W        W37358  14.044  11.807  15.608  0.2625  0.2375 -0.3045
17079W        W37359  12.019   2.155   1.125 -0.1770  0.1624 -0.0553
17080W        W37360  17.412   9.410   1.755 -0.0692  0.0024  0.0746
17081W        W37361   7.185   0.663   0.045 -0.2052 -0.1330 -0.4205
17082W        W37362  12.547   4.971  14.941  0.0607 -0.1235  0.1631
17083W        W37363  12.359  15.360   2.922  0.0663 -0.2306  0.0626
17084W        W37364  11.614  16.074   2.764  0.0923  0.0319 -0.0895
17085W        W37365   3.099  10.760   0.937 -0.2869 -0.0425  0.2332
17086W        W37366   5.778   8.671   2.161  0.2560 -0.0275  0.0045
17087W        W37367   6.850  10.375   4.652 -0.2281  0.0558  0.0107
17088W        W37368   3.762  10.311  13.361 -0.0883 -0.0627  0.0864
17089W        W37369  17.074  17.547   2.972  0.2130  0.0241  0.2181
17090W        W37370   3.904  12.107  15.951  0.4178 -0.1441  0.0493
17091W        W37371  10.444   0.401   4.578 -0.0781 -0.0801  0.0022
17092W        W37372   2.306   4.087  13.287  0.0893 -0.1135 -0.1365
17093W        W37373   7.923   1.125  13.681 -0.1318  0.1992  0.0171
17094W        W37374   5.367  10.260   0.864 -0.1289  0.0547  0.3248
17095W        W37375  13.537   7.063  15.758  0.1580 -0.3284 -0.0365
17096W        W37376  14.477  11.565   4.658 -0.1064  0.2809 -0.1413
17097W        W37377   4.019  17.297  15.546 -0.4154 -0.0431  0.2977
17098W        W37378   0.182  12.159  11.680  0.1150 -0.0862  0.1267
17099W        W37379  12.950   7.824   4.791  0.2080  0.2519 -0.2099
17100W        W37380   6.075   1.385   1.030  0.1017 -0.1831 -0.3236
17101W        W37381  12.648  15.553  15.676 -0.0876  0.4891 -0.0027
17102W        W37382   6.117  13.601   3.731  0.0305 -0.1149 -0.2348
17103W        W37383  13.000   5.740   1.291  0.0419 -0.1100  0.2859
17104W        W37384   0.462   3.197   2.631 -0.3642 -0.2658 -0.1948
17105W        W37385   3.052   8.440  15.552  0.2107 -0.0876  0.1535
17106W        W37386  16.347   4.810   4.690 -0.2626 -0.2096 -0.5558
17107W        W37387   1.738  15.259   0.541  0.1481  0.1989 -0.0120
17108W        W37388   4.971  14.592   4.371 -0.2642 -0.0243  0.1703
17109W        W37389  14.553   6.640   0.923  0.2188  0.1023 -0.1075
17110W        W37390  14.841   1.520  15.756  0.2731  0.2430  0.0469
17111W        W37391  15.797  11.676  14.611 -0.1715  0.1334 -0.0077
17112W        W37392  16.099  17.238   4.712  0.0309  0.0162 -0.1138
17113W        W37393  15.352  12.530  15.657 -0.0159  0.2240  0.0627
17114W        W37394   1.144  17.167   3.594  0.1629 -0.1422 -0.0188
17115W        W37395   8.504   6.930   2.217 -0.2359  0.0041  0.0025
17116W        W37396   1.003   2.704  15.674  0.0550  0.2950 -0.0466
17117W        W37397   9.462   1.627  14.581 -0.1890  0.0203 -0.0565
17118W        W37398   2.412  11.543   1.703  0.1641  0.3910 -0.2688
17119W        W37399  15.541   0.943  13.184 -0.0288 -0.1577  0.1485
17120W        W37400   9.652  17.338   4.259  0.0287 -0.0926 -0.2487
17121W        W37401   2.516  17.489  12.519 -0.2141 -0.1328 -0.3554
17122W        W37402  10.774   1.191   2.043  0.0492  0.1378  0.0636
17123W        W37403  12.468  10.997   0.337  0.1444  0.0609 -0.3329
17124W        W37404   8.300  14.506   2.875 -0.2161  0.2293 -0.1191
17125W        W37405  15.854  15.646   0.181 -0.1050 -0.0310  0.0022
17126W        W37406   5.099   2.437   1.732  0.2349 -0.0872 -0.2707
17127W        W37407   6.815  13.549   2.259 -0.3843 -0.1823 -0.0168
17128W        W37408  12.834   6.552   3.532  0.3705 -0.4964 -0.1364
17129W        W37409   0.823  12.794  14.364  0.0337  0.0217  0.0101
17130W        W37410  11.653   5.479   4.393  0.3107  0.0238  0.2198
17131W        W37411   2.823   8.531  15.059 -0.0123  0.1261  0.1125
17132W        W37412  13.638   5.364  13.335  0.3805 -0.0583  0.1207
17133W        W37413   8.630   8.689  14.753 -0.0454 -0.0151 -0.0280
17134W        W37414   7.917  13.635   0.794  0.0943  0.0013  0.0610
17135W        W37415   9.415   3.959  11.372  0.0618 -0.3170  0.2270
17136W        W37416   8.859  13.743   4.087 -0.1663 -0.0601  0.1246
17137W        W37417   0.359   6.926  15.495  0.0976 -0.0819 -0.1962
17138W        W37418   5.711   0.600  15.735  0.1097 -0.1498 -0.1793
17139W        W37419   9.883   8.229  12.029  0.0953  0.3080  0.1412
17140W        W37420   7.071  15.551   2.777 -0.0517  0.0144 -0.0443
17141W        W37421   3.403   1.350  12.626  0.0717  0.1656 -0.2878
17142W        W37422  17.029   7.854   3.397  0.0169  0.2707 -0.3041
17143W        W37423  13.185   0.988   0.939  0.0004 -0.1581 -0.1153
17144W        W37424  16.465   2.045  13.535 -0.0586  0.1829  0.0588
17145W        W37425   1.230   3.049  14.784  0.2947  0.1768 -0.2715
17146W        W37426   7.404   7.539  13.911 -0.0108  0.1430  0.0472
17147W        W37427   8.690  16.366   2.484 -0.0359  0.1008  0.2190
17148W        W37428   5.804   1.805  13.599 -0.1709 -0.2074  0.1012
17149W        W37429  15.686  16.056   1.311  0.4073  0.1411 -0.1828
17150W        W37430   1.194  15.401  14.272 -0.2345 -0.3734  0.2427
17151W        W37431  17.786   7.345  15.282  0.1994 -0.0972  0.0795
17152W        W37432   5.375   2.815   2.252 -0.2450 -0.1362 -0.0410
17153W        W37433  13.953  14.222   3.814 -0.0406 -0.1872 -0.2533
17154W        W37434  16.805  11.220   3.289  0.0831  0.0053  0.2524
17155W        W37435   6.214   3.086  16.088 -0.0675  0.1254 -0.0832
17156W        W37436   8.793   4.416   3.787  0.2221  0.3473 -0.0576
17157W        W37437   1.877   2.053   2.531 -0.0817 -0.0872 -0.2698
17158W        W37438   2.046   6.031   2.769 -0.0611 -0.0996  0.2417
17159W        W37439   3.485  17.670  14.036 -0.0730 -0.3484  0.4310
17160W        W37440  10.403   5.015   1.387 -0.0927  0.1558  0.1612
17161W        W37441   0.517   9.963  15.759 -0.2278 -0.1247 -0.0740
17162W        W37442  12.371  12.737  13.002 -0.0745  0.0963  0.2526
17163W        W37443  14.714   0.348   0.364  0.0901 -0.1789 -0.2091
17164W        W37444   6.788   0.571   4.126  0.1091  0.0611  0.2685
17165W        W37445  11.890   2.911   0.731  0.2777 -0.0016  0.0984
17166W        W37446  12.616   7.831  15.925  0.2582 -0.1008 -0.4092
17167W        W37447  10.062  14.986  14.767 -0.0466 -0.1812 -0.3073
17168W        W37448   2.945  11.507   1.606 -0.1849 -0.2095 -0.1071
17169W        W37449  12.638   1.790  13.979  0.0222 -0.0385 -0.0391
17170W        W37450   7.912   2.279   1.318 -0.1482 -0.0431 -0.1804
17171W        W37451  17.861  15.171   4.015 -0.1855  0.1997 -0.3572
17172W        W37452  10.337   5.651   3.531 -0.0961  0.0867  0.2664
17173W        W37453  13.086   4.752   3.022  0.0193  0.2274  0.1719
17174W        W37454   2.308  12.303  14.087 -0.1956  0.0743  0.1361
17175W        W37455   2.050   4.930  16.139 -0.1365  0.1123  0.2243
17176W        W37456  17.910   5.970  14.351  0.2322 -0.0167  0.4226
17177W        W37457   3.071  16.737   3.293  0.2971 -0.1579  0.1707
17178W        W37458   2.412   3.803   2.093  0.0489  0.0252 -0.2898
17179W        W37459  17.898   6.422   1.303  0.1752  0.1034 -0.0698
17180W        W37460  11.490   4.495   2.608  0.0897  0.0541  0.2279
17181W        W37461   0.447   4.884  12.262  0.2232  0.0339 -0.0182
17182W        W37462  16.582  14.175   0.033 -0.0566  0.2214 -0.4845
17183W        W37463  10.553  16.684   1.649  0.0685 -0.0186 -0.1475
17184W        W37464   8.704   9.294  13.169 -0.0455 -0.2488  0.0668
17185W        W37465  14.705  10.751   0.225  0.1118 -0.1080  0.2411
17186W        W37466   3.819  13.613   4.817  0.0416  0.3957  0.2370
17187W        W37467   2.443  12.789  13.112  0.0414 -0.1434 -0.0457
17188W        W37468  15.689  14.317   4.583 -0.1757 -0.0234  0.1585
17189W        W37469   8.913  16.196   2.910 -0.2596  0.0594 -0.0217
17190W        W37470  13.110  13.671   2.613 -0.1710 -0.2173 -0.2462
17191W        W37471  15.794   8.651  16.154  0.4009 -0.0645  0.0484
17192W        W37472  15.537  13.825  12.512  0.0609  0.1205 -0.0988
17193W        W37473  12.943   9.194  14.051  0.1437 -0.1568 -0.0409
17194W        W37474  13.554   2.720  16.228 -0.3260 -0.1352 -0.0846
17195W        W37475   5.041  14.791  14.974  0.1904  0.0075 -0.1045
17196W        W37476  11.342   2.229   4.687  0.0337  0.0636 -0.4279
17197W        W37477  16.368   2.569  13.364  0.1670 -0.2174  0.0738
17198W        W37478  10.325   9.201   0.691  0.1444 -0.1874 -0.0891
17199W        W37479   6.676   4.324  15.638 -0.1326  0.1808 -0.1932
17200W        W37480   3.100   8.639  16.487 -0.3313  0.2787  0.0674
17201W        W37481   9.735   9.759  15.572 -0.0486  0.1274 -0.0123
17202W        W37482   6.823  10.464  16.204 -0.0707 -0.2008 -0.1731
17203W        W37483   4.864   6.513  16.480 -0.0117  0.0923  0.5024
17204W        W37484  14.110  17.396   4.998  0.2602 -0.0465 -0.0034
17205W        W37485  16.864   5.126  16.616  0.0203  0.0769 -0.4133
17206W        W37486  10.033   7.628  16.644  0.1051  0.0166 -0.0512
17207W        W37487   1.526   7.566   1.801 -0.0659  0.0645  0.0502
17208W        W37488  10.421   1.885  14.573 -0.0813  0.0271 -0.1637
17209W        W37489   4.301   2.072   2.113 -0.0941 -0.1263 -0.0999
17210W        W37490  16.521  15.870   2.816 -0.0537 -0.2244 -0.0098
17211W        W37491   3.910  17.599   5.673 -0.1167  0.0381  0.0037
17212W        W37492  15.973  10.683   0.549 -0.1478  0.0416 -0.4062
17213W        W37493  12.283  14.604  15.124  0.1424  0.0059  0.0389
17214W        W37494  11.609   8.740   2.242 -0.0327  0.1394 -0.1171
17215W        W37495   8.129  17.430   0.569  0.0698  0.0701  0.0416
17216W        W37496  11.394  10.385  14.346  0.2735  0.0685 -0.2869
17217W        W37497   3.078  16.762  15.454  0.2615  0.1891 -0.0074
17218W        W37498   6.178  17.195  13.326  0.0633 -0.0187  0.1321
17219W        W37499  11.009   6.182  12.834 -0.2132 -0.1430  0.0563
17220W        W37500  14.768   2.016  15.936 -0.0751 -0.5221 -0.0448
17221W        W37501   0.416   0.587  14.063 -0.3319  0.1392 -0.2832
17222W        W37502   7.982   3.833  14.750  0.0935  0.0815 -0.0270
17223W        W37503  12.343   4.635  15.571  0.1811 -0.1136 -0.0031
17224W        W37504   2.439   4.722   3.913  0.0858  0.0863 -0.0003
17225W        W37505  17.068   8.514  12.721  0.1547  0.0677  0.0109
17226W        W37506  17.902   4.722   1.194 -0.0105 -0.1459  0.0328
17227W        W37507   5.586  16.206   4.021 -0.0442  0.1759 -0.0288
17228W        W37508   0.176   0.205  12.841  0.5422  0.5439  0.0051
17229W        W37509  17.891  12.229   2.930  0.1639  0.0371  0.2158
17230W        W37510   9.079   9.559  12.740 -0.0267  0.3184  0.1589
17231W        W37511   2.663  15.946  13.112 -0.2339  0.4529  0.0428
17232W        W37512   2.784   0.911  14.302 -0.2949 -0.0268 -0.4026
17233W        W37513  14.374   6.458   4.707 -0.1764  0.3339  0.0938
17234W        W37514  11.719   3.273  12.896  0.0696 -0.1140  0.0478
17235W        W37515  17.392   4.606  15.246  0.0069 -0.1963 -0.2123
17236W        W37516  12.519   7.185   0.248 -0.1578  0.1236  0.0546
17237W        W37517  15.554   9.013  14.621 -0.0995  0.0144  0.2032
17238W        W37518   1.737   8.189  15.040 -0.0839 -0.0541  0.0428
17239W        W37519  14.569  16.519   1.670 -0.1249 -0.1421  0.1021
17240W        W37520   7.465   2.013   1.093  0.3700 -0.0081  0.0090
17241W        W37521  10.716   0.794   1.167 -0.0063 -0.1613  0.0540
17242W        W37522   7.212  15.444  15.636  0.0801  0.2266 -0.0976
17243W        W37523   5.727  15.831   4.703 -0.0903  0.1415 -0.2300
17244W        W37524  14.467  16.923  15.629  0.1517  0.1501 -0.0883
17245W        W37525  14.368  14.373   3.509 -0.0854  0.0583  0.2062
17246W        W37526   5.650   1.324  14.506  0.1419  0.0487  0.1036
17247W        W37527  15.089  11.996   0.007 -0.0338 -0.1402 -0.0917
17248W        W37528   7.008  13.046   2.184  0.1879 -0.0216 -0.3242
17249W        W37529   9.134   0.483  15.259  0.2912 -0.0378 -0.1657
17250W        W37530   2.306  11.368  16.175 -0.1427 -0.3170  0.2530
17251W        W37531   0.752   1.822   3.759  0.1569 -0.1416 -0.0355
17252W        W37532   3.369   1.179   2.749 -0.0081  0.1075 -0.0589
17253W        W37533   9.882   4.455  13.773 -0.1397  0.0210 -0.3119
17254W        W37534   3.059   0.956  13.337  0.0589  0.1517  0.2452
17255W        W37535   3.534   7.313   0.853 -0.2235 -0.0619  0.0769
17256W        W37536   4.830  16.926   0.884  0.1460  0.0368 -0.1923
17257W        W37537  10.588   2.670  12.919  0.2362  0.0684  0.1354
17258W        W37538   8.508   2.171   3.915  0.4334  0.2450 -0.0515
17259W        W37539   4.750  13.111   2.833  0.2460  0.1385 -0.0748
17260W        W37540   6.364  13.726  15.148 -0.0945 -0.1965 -0.0260
17261W        W37541   9.943  10.765  13.843 -0.1048  0.0334 -0.1332
17262W        W37542   8.888   4.715  12.141 -0.1924 -0.2406  0.1658
17263W        W37543   9.783  13.223   1.826 -0.0348 -0.2702 -0.0824
17264W        W37544   9.319  13.537   2.104  0.0773  0.2323  0.1010
17265W        W37545  15.220   2.087   2.031 -0.0470 -0.0916  0.3077
17266W        W37546   8.727  10.632  14.843  0.1304 -0.1881 -0.1396
17267W        W37547  12.982   4.126  14.757 -0.1018 -0.3114 -0.1808
17268W        W37548  11.819  12.868  12.391 -0.0335  0.2244  0.1381
17269W        W37549   5.139   7.321  13.491 -0.3260  0.1327 -0.0417
17270W        W37550  14.568  15.005   0.306  0.3127  0.1512 -0.2488
17271W        W37551  11.889  17.157  13.414  0.1832 -0.0497  0.0569
17272W        W37552   3.704  15.916   5.040 -0.2663 -0.0262 -0.1468
17273W        W37553   3.578   0.775   2.402 -0.1758  0.0670 -0.1819
17274W        W37554  17.457   9.640   4.708  0.1158  0.3021  0.1841
17275W        W37555   6.492  11.981   0.782  0.1932  0.2739  0.1271
17276W        W37556   7.041   2.189   0.995 -0.2173 -0.2133  0.3681
17277W        W37557  16.183   5.583   4.226 -0.0724  0.0800 -0.1123
17278W        W37558   4.766  13.789   5.720  0.3425 -0.0762 -0.1438
17279W        W37559  10.780   4.012   3.865 -0.3082 -0.3206 -0.3582
17280W        W37560  11.504   9.873   4.333 -0.0805 -0.1638 -0.1468
17281W        W37561   5.697  12.577  16.342 -0.0572  0.0577  0.0956
17282W        W37562   3.956  14.018  16.262 -0.2055  0.2276  0.1197
17283W        W37563   1.976  15.977   1.403  0.1988 -0.1060  0.1651
17284W        W37564  15.878  14.992  15.703 -0.1853 -0.1792  0.0629
17285W        W37565  16.784   9.815  13.365 -0.1013 -0.0565 -0.5951
17286W        W37566  11.288  14.043   4.364 -0.0766 -0.4268 -0.1640
17287W        W37567   9.708  13.556  15.635  0.0217  0.1851 -0.0320
17288W        W37568   7.160   5.242   1.316 -0.2591 -0.2505 -0.0263
17289W        W37569   7.335   5.805  14.593  0.1478 -0.3059  0.0165
17290W        W37570  12.424   5.425  14.410  0.1538  0.0794  0.1881
17291W        W37571  14.952  13.533   0.507  0.0756  0.0636  0.0710
17292W        W37572  15.115  17.687   2.337  0.0007 -0.1155 -0.2328
17293W        W37573   1.778  16.075  14.145 -0.2332  0.0077 -0.0239
17294W        W37574   6.533   9.753  15.381 -0.1757  0.1757  0.1944
17295W        W37575  10.334   7.094   1.078  0.0216 -0.1615  0.2084
17296W        W37576   0.270   4.245   5.756 -0.3232 -0.1943 -0.0478
17297W        W37577  16.261  14.897  12.725  0.2892  0.0601 -0.3183
17298W        W37578   4.060   0.961  15.699 -0.2439 -0.1848 -0.2711
17299W        W37579   1.198  17.131   2.329 -0.0810  0.1432 -0.1356
17300W        W37580   7.256   3.691   3.633  0.2646  0.0084  0.0097
17301W        W37581  14.897   7.366  16.091  0.1425 -0.2066 -0.0340
17302W        W37582  12.664   1.306  16.144  0.2294 -0.0732  0.0615
17303W        W37583  16.548   5.190   4.277  0.4603 -0.0096  0.1351
17304W        W37584  14.860   7.393  15.576  0.1216  0.1196  0.0216
17305W        W37585   9.533  13.364   3.547 -0.0141 -0.0630 -0.4323
17306W        W37586   3.092   2.384   2.006 -0.1228  0.0742 -0.0468
17307W        W37587   0.290  15.051  16.279  0.2019  0.0640  0.1284
17308W        W37588  11.469   0.238   0.882  0.2257  0.2523  0.2544
17309W        W37589  10.083   6.321  11.855 -0.1177 -0.0659  0.2191
17310W        W37590  16.959  10.349   3.788  0.0065 -0.1098 -0.0428
17311W        W37591   0.336   6.626  14.168  0.2427 -0.0126  0.0647
17312W        W37592   0.418  11.920  15.415 -0.1756  0.2015  0.0598
17313W        W37593  13.900   7.896   5.436 -0.0385 -0.3843 -0.1516
17314W        W37594  10.892  12.122  15.670  0.4371  0.3438 -0.2907
17315W        W37595   4.826  12.396   3.367  0.1316  0.4451 -0.0338
17316W        W37596   2.567   6.555  15.835  0.0702 -0.2501 -0.0087
17317W        W37597   2.232   7.055   1.504 -0.0115  0.1692  0.1829
17318W        W37598  16.518  16.383   2.533 -0.1116 -0.1415  0.0693
17319W        W37599  16.953  14.207   4.866  0.2696 -0.4132  0.0799
17320W        W37600   7.313   2.810   4.545  0.1359 -0.1853 -0.2577
17321W        W37601   7.857  14.770   2.918 -0.1097  0.1254 -0.2541
17322W        W37602   7.680   6.712  15.831  0.2489 -0.0135  0.1482
17323W        W37603  17.704   9.383  14.059  0.2614 -0.4084 -0.0440
17324W        W37604  13.062   7.096  16.008  0.1382  0.1034 -0.2047
17325W        W37605  14.946   3.515   4.769 -0.0300 -0.0623  0.1288
17326W        W37606   2.619   9.228   1.924 -0.2461  0.2102 -0.0460
17327W        W37607  16.932   1.884  15.539  0.0445 -0.1043 -0.0555
17328W        W37608   1.036  15.907   0.431  0.0169 -0.0107 -0.2482
17329W        W37609   3.436  17.269   4.135  0.0525 -0.1858  0.3305
17330W        W37610  15.124   6.966   5.371  0.2412 -0.1257 -0.0592
17331W        W37611   6.498   9.540  14.852 -0.1254 -0.0336 -0.1771
17332W        W37612   4.782   6.555   3.474  0.2574 -0.0998 -0.1337
17333W        W37613   1.888   3.354  12.097 -0.0781 -0.2761  0.0314
17334W        W37614  11.647   0.424  12.153 -0.1130  0.1046  0.0035
17335W        W37615  16.864   3.186   1.933  0.0289 -0.1136  0.0188
17336W        W37616  17.466   0.122   4.352  0.2159 -0.1120 -0.0583
17337W        W37617  15.222   9.522   0.630 -0.0809  0.1364  0.0568
17338W        W37618  10.823   3.104   3.340 -0.0122  0.0820 -0.2211
17339W        W37619  17.944   6.228   4.781  0.0554  0.0296 -0.0889
17340W        W37620  17.959  16.399   3.671 -0.0291 -0.1446  0.0377
17341W        W37621   0.790  14.075   0.519  0.1635 -0.2197 -0.2900
17342W        W37622  12.863  11.824   4.250  0.2473 -0.0182 -0.1233
17343W        W37623  12.471  14.514   1.414  0.1345  0.1330  0.2547
17344W        W37624   1.144   5.087   3.080  0.3925  0.0370  0.0183
17345W        W37625  12.192   5.030  16.222 -0.2810 -0.0623  0.0483
17346W        W37626  17.158   1.178   2.085 -0.1510  0.0690 -0.1229
17347W        W37627   7.137   6.857   0.366  0.2780 -0.2357 -0.1305
17348W        W37628   7.404   8.356   0.061  0.2252  0.0015  0.1193
17349W        W37629   3.564   1.528   3.023 -0.0390 -0.1353  0.0779
17350W        W37630  14.360  16.221   2.666 -0.2318 -0.2759  0.2935
17351W        W37631  17.120  13.060  16.181 -0.0163  0.1476 -0.1098
17352W        W37632   3.043  16.904   4.059 -0.0148 -0.1074 -0.1480
17353W        W37633  16.424   1.723  13.978 -0.1831 -0.1758  0.0714
17354W        W37634  15.540  10.205  14.023  0.0466  0.2279  0.3863
17355W        W37635  13.895  15.689   0.077  0.0099  0.0504  0.0084
17356W        W37636   2.380   5.822   0.283 -0.0282 -0.1076  0.1333
17357W        W37637  16.315  13.925   0.366  0.1544  0.2669 -0.0696
17358W        W37638   8.207   3.912   1.431  0.0736  0.1709 -0.0520
17359W        W37639   5.626  13.852   3.811 -0.0710  0.2713  0.1303
17360W        W37640   5.471  11.550  13.703  0.0801 -0.0519 -0.5577
17361W        W37641  10.597   1.389   2.796  0.0649 -0.0944  0.2911
17362W        W37642   7.470  11.832  12.858 -0.0463 -0.0977  0.0997
17363W        W37643  15.729   8.542  13.275 -0.2639  0.0734  0.0154
17364W        W37644   8.087  11.130  15.508 -0.1515 -0.1241  0.4269
17365W        W37645   7.791  16.046   2.248 -0.2106 -0.1632  0.0700
17366W        W37646  10.576   9.945   1.456  0.1967 -0.1676 -0.2363
17367W        W37647  17.705  17.617   2.485 -0.0628 -0.1257  0.0006
17368W        W37648   8.324  16.560  13.352  0.1641  0.0494  0.1370
17369W        W37649  17.875  15.520  16.242 -0.1337 -0.1325  0.2012
17370W        W37650  12.233   8.796  16.044  0.1956  0.3345 -0.1589
17371W        W37651   1.568  12.794  14.804 -0.1937 -0.3072  0.4267
17372W        W37652   3.629  10.242   3.567 -0.0864 -0.2647 -0.0419
17373W        W37653   3.279  10.522  13.413  0.3212 -0.2092 -0.2950
17374W        W37654   9.975  17.586   2.420 -0.1357 -0.1590 -0.0678
17375W        W37655  13.330   1.193   2.686  0.1704 -0.1676  0.0304
17376W        W37656  11.032  15.204  12.426  0.0545  0.1573 -0.0443
17377W        W37657  13.162   6.107   3.116  0.2130  0.0397  0.1600
17378W        W37658   4.693   4.185   1.744 -0.1043  0.2290  0.3166
17379W        W37659   4.247  11.394   3.218 -0.1615 -0.0482  0.0478
17380W        W37660  11.417  15.870  11.913  0.0031  0.2658 -0.2602
17381W        W37661  16.648   1.332   2.202  0.0473  0.0074  0.0604
17382W        W37662  10.297   2.664   0.888  0.1927 -0.1194  0.0029
17383W        W37663   7.481  16.478   0.551 -0.1986 -0.0229 -0.2815
17384W        W37664   3.856  17.820  11.686 -0.0217 -0.0357  0.1375
17385W        W37665  11.147  16.753   0.071  0.1886 -0.0136  0.2696
17386W        W37666  13.077   2.616   0.746  0.2658  0.0670 -0.0135
17387W        W37667  15.429  13.432   1.581 -0.4144 -0.0259  0.2008
17388W        W37668   1.427   0.688   3.105 -0.1683 -0.1633 -0.1525
17389W        W37669   5.015  11.592  13.446  0.1375  0.1604 -0.0479
17390W        W37670  16.149  17.271  12.122  0.2219  0.1177 -0.0198
17391W        W37671  14.491   2.461  14.021 -0.1845 -0.0373 -0.0331
17392W        W37672  13.659  13.692  13.731  0.0898 -0.0931  0.0680
17393W        W37673  10.552   8.350  12.256  0.1512 -0.0754  0.1298
17394W        W37674   5.525  11.296  15.864 -0.0373  0.1352 -0.0059
17395W        W37675   7.113   3.962   0.661 -0.1437 -0.0865 -0.0707
17396W        W37676  16.974  13.627   1.922  0.0551  0.0770 -0.0504
17397W        W37677   3.158   3.187   2.971  0.0282  0.0358 -0.0177
17398W        W37678   3.890   4.898  12.937  0.0489  0.2013  0.0770
17399W        W37679  10.568   0.809  15.063 -0.0955  0.0047 -0.4952
17400W        W37680   4.314   1.937   1.502 -0.0189  0.0034  0.1402
17401W        W37681  16.330   4.426  13.482  0.0951  0.2999 -0.0328
17402W        W37682  17.903   9.389   3.390 -0.0754  0.0568  0.0378
17403W        W37683   9.049   1.389  12.949 -0.1016  0.0467  0.1673
17404W        W37684   5.226  17.314   1.825  0.1796 -0.0552 -0.2867
17405W        W37685   8.893   9.736  12.298  0.0763  0.2293  0.0056
17406W        W37686  13.873  15.721  14.255  0.1861  0.1575 -0.3884
17407W        W37687  11.359  14.030   0.082  0.1287 -0.0883 -0.1680
17408W        W37688   2.339  14.951  13.839  0.0188 -0.1889 -0.0764
17409W        W37689   8.632   4.790  15.283 -0.2568  0.1052  0.1596
17410W        W37690  16.068  11.557   4.520  0.0354  0.0781 -0.0360
17411W        W37691   9.775   6.864  14.850  0.0329 -0.3503 -0.1607
17412W        W37692   7.105  14.539  14.988 -0.0735 -0.3214 -0.0261
17413W        W37693  15.613   9.898   4.560  0.3222  0.1700  0.0995
17414W        W37694   0.136   7.948  14.087  0.0548  0.0747 -0.0556
17415W        W37695   7.187  15.302   2.341 -0.0720 -0.1133 -0.0377
17416W        W37696   0.377   3.488  16.666 -0.4864 -0.0315 -0.0741
17417W        W37697   8.580   1.761   1.164  0.1566  0.1325 -0.1317
17418W        W37698   3.742  15.001   0.614  0.0920 -0.0929 -0.0289
17419W        W37699   8.003   9.338   0.811  0.0644 -0.1109  0.0308
17420W        W37700   5.101   8.768   4.488 -0.1089  0.1034 -0.0881
17421W        W37701  15.675  14.365   3.009  0.0906 -0.3360 -0.0814
17422W        W37702   6.487   9.448  14.332 -0.1426  0.3498 -0.1325
17423W        W37703   4.096   1.675   5.176  0.2974 -0.1608 -0.3076
17424W        W37704  13.259  11.425   3.292 -0.1859  0.1744 -0.2712
17425W        W37705   5.939  11.826  14.885  0.0698 -0.0835  0.0192
17426W        W37706  13.898   5.987  12.206  0.0991 -0.1531 -0.0085
17427W        W37707   9.331   6.646   2.231  0.0292 -0.1603 -0.2086
17428W        W37708  13.996   0.183  16.112  0.1794 -0.0663 -0.0904
17429W        W37709   3.651  15.564  16.530  0.1600  0.3158 -0.4219
17430W        W37710  14.502  11.277  14.466 -0.0648  0.0506  0.1813
17431W        W37711  17.689   1.017   0.755 -0.1031 -0.1015  0.2361
17432W        W37712  13.348   5.370  12.924 -0.2577 -0.2366  0.0679
17433W        W37713   9.038  11.409  16.270  0.0618  0.0426 -0.2275
17434W        W37714  11.646  10.211   0.678 -0.1071  0.1704 -0.1163
17435W        W37715  11.571  14.114   2.893  0.0251 -0.0973 -0.1064
17436W        W37716  11.477   9.372   0.517 -0.1949  0.0092 -0.2207
17437W        W37717   6.834   1.006  10.964  0.3211 -0.1485  0.1353
17438W        W37718   3.660  13.379   2.003 -0.1281  0.0868 -0.4162
17439W        W37719  10.571  10.640  12.768 -0.0868  0.0525  0.0106
17440W        W37720   5.102   6.894  14.259 -0.3608  0.0112  0.1281
17441W        W37721  10.982   0.593   2.714  0.2230 -0.1698 -0.1001
17442W        W37722   3.215  12.116  13.131 -0.0158 -0.0252  0.1563
17443W        W37723   3.112   5.130  13.883  0.1620 -0.0097  0.0966
17444W        W37724   7.151   6.662   2.988  0.0867  0.0393  0.0805
17445W        W37725   6.852  11.603  14.743 -0.0970 -0.3010  0.2340
17446W        W37726  13.093  13.591   0.250 -0.0084 -0.1842 -0.1359
17447W        W37727   1.343   6.056  12.930 -0.2346 -0.1615  0.0784
17448W        W37728  15.010  15.690  15.733  0.0667  0.3093  0.3868
17449W        W37729  15.517   3.622   3.868  0.2716 -0.1017 -0.1808
17450W        W37730  16.556  10.640   4.598  0.0692 -0.1302  0.0150
17451W        W37731  14.667  13.746   3.299  0.2043  0.0316  0.0720
17452W        W37732   2.381   3.114   3.776  0.1893 -0.0914  0.0000
17453W        W37733  12.114   0.984  15.487 -0.1184  0.0654  0.3558
17454W        W37734  11.719  16.248  13.886 -0.0752  0.2103  0.1054
17455W        W37735  12.171  14.432   4.252 -0.1233  0.0313 -0.1494
17456W        W37736   7.483  14.402   0.748  0.0645 -0.1028  0.0059
17457W        W37737   3.081   8.243  16.142  0.2827 -0.1847  0.1181
17458W        W37738  10.422  13.770  16.581 -0.0617  0.4109 -0.0589
17459W        W37739   8.567   3.706  15.621  0.2218  0.3820 -0.0487
17460W        W37740  17.434  10.827  16.672 -0.1539 -0.2453  0.0658
17461W        W37741  17.173   8.474  15.989 -0.3509  0.1472  0.3377
17462W        W37742   6.734   4.441  14.493  0.0446 -0.1093 -0.1282
17463W        W37743  17.310   2.622   2.833 -0.6318 -0.0318 -0.2723
17464W        W37744  10.906   4.616  13.679 -0.0609 -0.1695  0.0948
17465W        W37745   6.716   3.918   2.851 -0.3089 -0.2960  0.0424
17466W        W37746   7.542   2.500   0.468  0.1785  0.4521 -0.1169
17467W        W37747  12.269   4.910   4.630 -0.1496  0.1618 -0.2814
17468W        W37748   7.770  14.788   2.067  0.0294  0.3962 -0.1984
17469W        W37749  17.185  15.136   2.456 -0.0315 -0.1564  0.2354
17470W        W37750  14.131  10.488   3.986 -0.2370 -0.0528  0.1212
17471W        W37751  14.762   6.668  13.842  0.1469  0.2476  0.1305
17472W        W37752  13.324   6.333  11.508 -0.7835 -0.0055  0.0042
17473W        W37753  15.152   5.237  12.609  0.1338 -0.2069  0.0866
17474W        W37754  11.243  15.282   3.868 -0.0509  0.1375  0.0678
17475W        W37755  15.386   2.419  13.739 -0.0646 -0.0149  0.2195
17476W        W37756  12.080   6.766  13.382 -0.0579 -0.2792  0.3537
17477W        W37757  10.358  16.767   4.487 -0.1325 -0.1228 -0.1316
17478W        W37758   6.283   8.172  12.601  0.0743 -0.1256 -0.1160
17479W        W37759   4.155  17.043  14.688 -0.1703 -0.1093  0.0692
17480W        W37760  10.728  14.293  13.774 -0.2042 -0.1199 -0.0261
17481W        W37761   7.266   7.882  15.283 -0.1792  0.1724  0.2599
17482W        W37762  14.215  15.072   4.822  0.2117  0.0344 -0.4074
17483W        W37763   6.716  15.626  16.516 -0.1630 -0.2845  0.2423
17484W        W37764  14.790   1.140   3.249 -0.1534 -0.0154 -0.1430
17485W        W37765  12.787  12.775  13.283 -0.0620  0.0613 -0.0380
17486W        W37766  14.519  14.077   3.892  0.2896  0.0777 -0.1724
17487W        W37767  15.922   0.531  13.090 -0.1033 -0.0234  0.1434
17488W        W37768  14.084   6.136   3.929  0.0547 -0.1051 -0.0261
17489W        W37769  10.603   5.137  13.652 -0.1893  0.1124 -0.1874
17490W        W37770   5.198   7.501  12.972 -0.0676  0.1064  0.1944
17491W        W37771   3.407  12.572  16.008  0.1249  0.0558  0.0715
17492W        W37772   4.482  12.862  12.291 -0.2473  0.1215  0.2987
17493W        W37773   6.624   1.545  16.457  0.5852  0.3518 -0.1275
17494W        W37774   0.687   6.148   1.377 -0.5266 -0.0761 -0.1280
17495W        W37775  16.288  17.782  15.709 -0.0392  0.2681 -0.1524
17496W        W37776   7.451  12.953   0.432 -0.2077  0.3813 -0.1820
17497W        W37777   3.470   0.980  13.688  0.0655  0.1067  0.1006
17498W        W37778  11.538  11.593   3.689  0.2514  0.2955 -0.1354
17499W        W37779  14.447   7.703   0.834 -0.0633  0.0412 -0.1287
17500W        W37780   3.740   9.959   1.586  0.0464 -0.1709 -0.0491
17501W        W37781  17.152  12.606  16.076  0.1869  0.2774  0.2863
17502W        W37782  15.615   8.738   0.850  0.1662  0.5680 -0.1843
17503W        W37783   6.895   8.658   2.222  0.1582 -0.0086  0.3279
17504W        W37784  16.836   0.520  13.524  0.1620 -0.1334  0.0042
17505W        W37785   3.295   3.926   4.399  0.1377  0.0606  0.1301
17506W        W37786   4.877  10.745   6.732  0.0890  0.1274 -0.0874
17507W        W37787  11.965   1.487  15.164 -0.1477 -0.1139  0.0848
17508W        W37788  15.677   6.459   1.122  0.3300 -0.0340  0.0264
17509W        W37789  16.852  13.785   2.446 -0.3843 -0.0596  0.0448
17510W        W37790   9.877   1.206  12.889  0.1188 -0.1948  0.1506
17511W        W37791   7.396  16.327  16.680 -0.1050 -0.0949  0.1879
17512W        W37792  10.299   1.100  15.450  0.2241 -0.0064 -0.4441
17513W        W37793  14.391   4.770   0.911  0.2187 -0.3374 -0.1230
17514W        W37794   6.959  16.038  10.955  0.2736  0.1670  0.2979
17515W        W37795  10.713  17.076   1.376 -0.1481  0.0372  0.1304
17516W        W37796  13.642  13.903   0.570 -0.0835 -0.0755  0.2176
17517W        W37797   7.059   0.509   2.910 -0.2080 -0.5438 -0.3522
17518W        W37798  10.472  11.524   3.112  0.0356 -0.2712 -0.0937
17519W        W37799  12.638  13.618   3.895 -0.2066  0.1795 -0.0418
17520W        W37800  15.843   4.014   0.450  0.2344  0.1915  0.0080
17521W        W37801  15.747  11.194  12.710 -0.1024  0.1132 -0.0969
17522W        W37802   2.125  12.854  16.505 -0.1437  0.0615  0.0351
17523W        W37803  14.121   4.990  16.523  0.1285  0.2270 -0.1119
17524W        W37804  10.591  12.286   2.477  0.1051  0.1059 -0.1333
17525W        W37805   0.841  16.209   1.598  0.2434  0.0157  0.0666
17526W        W37806   3.771   6.856  16.503  0.1026 -0.2793 -0.1201
17527W        W37807  13.398   5.854  12.919  0.3635 -0.0934 -0.0799
17528W        W37808   3.918   6.182   5.032  0.6172 -0.0469 -0.1503
17529W        W37809   9.154   7.552  12.744  0.0717  0.2107 -0.2412
17530W        W37810  11.314   3.960   2.301 -0.1822  0.0665  0.0263
17531W        W37811  12.402   6.260  16.263  0.1148  0.0165  0.0540
17532W        W37812   5.501  17.775  13.057 -0.3627  0.0855  0.4376
17533W        W37813  11.851  14.192   0.079  0.0533  0.2849  0.0111
17534W        W37814  15.868   1.198  16.078 -0.1727 -0.0049  0.0295
17535W        W37815   6.121  16.636   5.580 -0.1988 -0.1649  0.1556
17536W        W37816   9.670  10.439   2.536  0.2477 -0.0966  0.2685
17537W        W37817   4.886  11.248   1.398 -0.2962 -0.0872 -0.1414
17538W        W37818   3.893  14.432  14.457  0.0605  0.2125 -0.1336
17539W        W37819  12.280  15.013  13.335  0.1711  0.1017 -0.1227
17540W        W37820   4.550  16.893   1.978  0.0091 -0.2201 -0.0087
17541W        W37821  12.660   8.915  13.688  0.4057 -0.1040 -0.3589
17542W        W37822   8.130   8.639  16.104  0.1430  0.1427  0.0192
17543W        W37823  11.973   7.550   3.567 -0.1530 -0.4890 -0.1117
17544W        W37824  10.270   6.184  14.396  0.0085  0.0203  0.1094
17545W        W37825  12.950   1.232   2.312 -0.4105  0.3695  0.0736
17546W        W37826   2.114  10.063   0.801 -0.0420 -0.1778  0.0280
17547W        W37827  10.433   4.250   0.523  0.1020  0.0774 -0.2744
17548W        W37828   1.978   6.165   1.799 -0.1869  0.1350 -0.1401
17549W        W37829  11.321   4.899  14.234 -0.2805 -0.5847  0.3111
17550W        W37830  15.327   9.512   1.805  0.2184  0.2403 -0.0652
17551W        W37831   6.957   7.079  16.352 -0.1099 -0.1453  0.2735
17552W        W37832   3.876  16.680  14.295  0.2112  0.2440 -0.1603
17553W        W37833  12.433  15.506  13.036 -0.3235  0.0509  0.0705
17554W        W37834   0.412   9.779  11.981 -0.0031 -0.0016  0.0224
17555W        W37835   6.918   7.526   0.202  0.0425  0.2587  0.0672
17556W        W37836   2.345   8.878  12.674  0.3571  0.0650  0.1245
17557W        W37837   7.290   8.560  15.786  0.1949  0.2629  0.0898
17558W        W37838  12.924   4.469   3.627 -0.0993  0.0487  0.1224
17559W        W37839   5.972  15.353  14.697  0.1105 -0.0085  0.2909
17560W        W37840   7.293   1.998   2.180 -0.2995 -0.3301 -0.2292
17561W        W37841   2.296   8.649  13.241  0.0284 -0.1879 -0.0001
17562W        W37842  11.801  16.414   3.056 -0.0764  0.1053  0.2032
17563W        W37843   9.815   6.332  14.124 -0.4034 -0.0240 -0.0666
17564W        W37844  13.291   0.321   4.667  0.1448  0.1285  0.0464
17565W        W37845  10.906  17.869  15.894 -0.0737  0.1492 -0.0684
17566W        W37846  13.200   3.231   1.526  0.2907  0.0765  0.0705
17567W        W37847   5.640  17.300   3.717 -0.0677  0.3755  0.1211
17568W        W37848   0.849  17.646   4.404  0.2490 -0.3192  0.3288
17569W        W37849  10.520   3.829  11.486 -0.2141 -0.0720  0.0060
17570W        W37850  11.506   2.164  15.975 -0.0462  0.1618  0.3689
17571W        W37851  17.452   7.703   1.772 -0.0314 -0.2339  0.0849
17572W        W37852  15.384  16.025   2.463  0.2046 -0.0024  0.0231
17573W        W37853   1.626  16.326   1.739  0.4728  0.1313  0.2757
17574W        W37854   8.430   8.805  15.237  0.1009  0.1623  0.2725
17575W        W37855   5.837   9.943  12.332 -0.1348  0.2120 -0.0515
17576W        W37856   6.095  14.929   0.774 -0.0028 -0.0049  0.0128
17577W        W37857   9.474   0.808  11.596 -0.0749 -0.0006 -0.2060
17578W        W37858  16.107  10.797   4.566 -0.2834 -0.1155 -0.0758
17579W        W37859   8.607   2.645   3.591  0.1096 -0.2604 -0.0498
17580W        W37860  17.584   1.766   1.305  0.0835  0.0217 -0.1885
17581W        W37861  13.386   4.829  12.670 -0.1698 -0.2149  0.0946
17582W        W37862  14.738  13.871  13.413 -0.2732  0.0811 -0.1065
17583W        W37863   5.081   0.409   2.917 -0.1012 -0.4644 -0.2433
17584W        W37864   6.339   2.063  12.436  0.2802  0.4109  0.0792
17585W        W37865   5.320   9.980   4.567  0.4074  0.1705 -0.1164
17586W        W37866   4.019  12.074  14.201  0.3109  0.2301  0.0362
17587W        W37867  15.290  13.876   0.434  0.2816  0.2379 -0.0852
17588W        W37868  17.378   7.637  12.325  0.0068 -0.2653  0.0632
17589W        W37869   6.829   8.498   0.320  0.0129  0.0221 -0.1091
17590W        W37870  10.346   2.109  15.348  0.0755  0.1586 -0.0776
17591W        W37871   6.802   6.360  15.183 -0.3999 -0.2198  0.1774
17592W        W37872   4.601  14.536  12.952  0.0534  0.0672 -0.0774
17593W        W37873  11.289   7.172  13.948  0.1288  0.3896  0.0306
17594W        W37874   3.925  10.602  14.877 -0.3255 -0.0298  0.2688
17595W        W37875  13.881   9.952  16.638  0.4353  0.0065  0.2099
17596W        W37876   0.144  14.462   4.732 -0.0104  0.2738  0.1822
17597W        W37877  11.320  16.951  12.636 -0.0528 -0.1644  0.2714
17598W        W37878   0.852  11.744  15.641 -0.1533  0.0052 -0.0923
17599W        W37879   5.707   4.098  12.018 -0.0726  0.2424 -0.2210
17600W        W37880  13.744   8.382  12.020  0.1908  0.1028  0.1370
17601W        W37881   7.032   0.059  13.468 -0.1389  0.3031 -0.1704
17602W        W37882  14.235  12.449   0.902  0.0383 -0.0935  0.1541
17603W        W37883  14.152   0.515  12.526  0.0815  0.0139 -0.0554
17604W        W37884  13.025   3.837  15.597  0.1881  0.1129 -0.2958
17605W        W37885  12.497  10.865  12.604  0.1704 -0.0931  0.0205
17606W        W37886   7.050  12.848   4.071 -0.0529  0.1362 -0.0262
17607W        W37887  13.705  11.113   3.407 -0.2333 -0.1002 -0.1991
17608W        W37888  17.209  11.972   1.045  0.0650  0.1186  0.1583
17609W        W37889  13.648   5.919   3.371 -0.1429  0.2288  0.0551
17610W        W37890   1.235   8.592  12.939  0.0559  0.1263 -0.2556
17611W        W37891   4.480  11.747  14.086 -0.2099  0.2404 -0.2199
17612W        W37892  10.892   0.757   5.756 -0.1858  0.0899  0.1036
17613W        W37893   0.780  11.902   0.617  0.1254 -0.0201  0.2056
17614W        W37894   1.655  16.783   5.628  0.2286  0.0974 -0.0173
17615W        W37895   7.683   3.013   2.555  0.1162  0.1993 -0.4369
17616W        W37896   1.089   8.388   1.771 -0.0741  0.1178  0.1183
17617W        W37897   2.841  16.832  14.889 -0.0748  0.3360 -0.2164
17618W        W37898  10.720   8.343  16.647  0.2191  0.0111  0.1759
17619W        W37899   5.319   3.407  13.192  0.0605  0.0413  0.1871
17620W        W37900  11.013   9.191  13.737  0.2317 -0.0695 -0.0344
17621W        W37901   0.813   0.313   4.467  0.0603 -0.0789  0.0256
17622W        W37902  13.926   4.530  14.870 -0.0733  0.0424  0.1190
17623W        W37903  14.611   7.935   1.315 -0.0689  0.0031  0.2908
17624W        W37904   0.600   9.379  12.322 -0.2622  0.2913 -0.2214
17625W        W37905  16.090   5.536  13.102  0.2580  0.2746  0.0351
17626W        W37906  10.237  10.624   3.828 -0.3576  0.2115 -0.3254
17627W        W37907   2.704   2.318   3.390  0.1632 -0.0181  0.2807
17628W        W37908   1.158  13.442  11.262 -0.2404 -0.5091 -0.2965
17629W        W37909   1.731   4.614   0.791 -0.2827 -0.1875  0.1090
17630W        W37910  12.954  16.991   3.333  0.0114 -0.3254 -0.0921
17631W        W37911  14.291   9.534   1.813  0.0218  0.1877 -0.1994
17632W        W37912   6.818   0.518  13.663 -0.0031 -0.0828 -0.1117
17633W        W37913  16.962  13.809  15.408 -0.0618 -0.1045 -0.3214
17634W        W37914  17.990   8.491   1.974  0.1400  0.0357  0.0138
17635W        W37915  15.312  16.687  11.095  0.0797 -0.2483 -0.2537
17636W        W37916  15.313   7.996   3.767  0.1518  0.0760 -0.0148
17637W        W37917   0.652   4.556  13.161  0.3137 -0.1776 -0.0645
17638W        W37918   8.588   7.026  15.802 -0.0703 -0.0935  0.2912
17639W        W37919   2.640   1.662  13.311 -0.2884 -0.1626 -0.0049
17640W        W37920   3.011   0.076   4.188  0.1303 -0.1354 -0.1856
17641W        W37921  16.499   5.954  13.975  0.2173 -0.3588  0.3475
17642W        W37922  15.984   4.976  12.137  0.1431 -0.0742 -0.4755
17643W        W37923  15.002  12.568   3.552 -0.4933 -0.0279 -0.1245
17644W        W37924  14.565   6.790  12.902  0.2023  0.0524  0.4389
17645W        W37925  14.809   4.799   1.196  0.3818  0.1229 -0.0229
17646W        W37926  13.302  12.765  14.235 -0.0853  0.2069 -0.0732
17647W        W37927  13.774  17.445   4.621  0.2385  0.1505 -0.0065
17648W        W37928  16.436  11.747   1.965  0.2882 -0.3132 -0.0242
17649W        W37929  12.365  13.155   2.075  0.1051  0.2500 -0.0402
17650W        W37930  10.164   6.191  13.677 -0.0112  0.0781  0.1583
17651W        W37931   0.308   1.985   4.070 -0.0724 -0.1509  0.0111
17652W        W37932  14.934   9.672   3.348 -0.3843  0.0214 -0.1799
17653W        W37933  14.335   4.521   3.416 -0.1374  0.0943  0.0246
17654W        W37934   1.492  15.684  13.342  0.1940  0.1278 -0.0687
17655W        W37935  12.243   3.891  14.936  0.0798  0.0349 -0.2140
17656W        W37936   2.674  10.922  16.363  0.0027  0.0725 -0.1796
17657W        W37937  12.197   7.120   2.902 -0.1962 -0.0413  0.0094
17658W        W37938   2.344  16.827  12.741 -0.0432 -0.0443 -0.1438
17659W        W37939  14.138  12.097   0.208 -0.0215  0.2049 -0.2420
17660W        W37940   7.857   7.000  14.383 -0.2358  0.1213  0.0700
17661W        W37941  15.776  14.752   2.380 -0.0361 -0.0435  0.0646
17662W        W37942   0.784   5.241  13.813  0.0622  0.1891 -0.0008
17663W        W37943   1.007   1.851  15.989 -0.0294  0.0513  0.0788
17664W        W37944   3.682  10.736  15.269  0.1299 -0.2352 -0.2499
17665W        W37945   8.765  10.400   4.225 -0.0488  0.0291 -0.2467
17666W        W37946  14.155   0.590   3.619  0.0936  0.0633  0.3438
17667W        W37947   2.522  12.586   1.234 -0.0641  0.1657 -0.0958
17668W        W37948  15.322   8.061   3.225  0.3756  0.2316 -0.1461
17669W        W37949   2.311  17.690  15.566 -0.1822 -0.1544  0.1206
17670W        W37950   6.245   1.203  16.264  0.2756 -0.0704 -0.1487
17671W        W37951  16.316  10.258  15.099 -0.0677 -0.1887  0.0388
17672W        W37952   6.022   7.493   4.813 -0.2103  0.1650 -0.0949
17673W        W37953   3.252   8.349   1.018 -0.0732  0.2273  0.0267
17674W        W37954   6.845   9.361  15.149  0.0281  0.2329 -0.0824
17675W        W37955  14.022  13.911  14.356 -0.0333 -0.1773 -0.1576
17676W        W37956  10.202  14.286   1.353  0.1075  0.3434  0.1053
17677W        W37957   2.770  15.507  14.819  0.0336  0.1212 -0.2506
17678W        W37958   6.445   9.215  15.822 -0.0445  0.1801  0.0771
17679W        W37959   6.846  10.225  15.066 -0.1974 -0.1215  0.1451
17680W        W37960   6.161  13.190   4.551 -0.0101 -0.4945 -0.2097
17681W        W37961  11.632   7.607  12.090 -0.0742 -0.0079 -0.0273
17682W        W37962   9.708  11.051  14.625 -0.0602  0.0667  0.0126
17683W        W37963   7.743   7.685   3.754  0.0016  0.2372  0.0065
17684W        W37964  13.970  12.809  16.224 -0.0846 -0.0687 -0.3514
17685W        W37965   0.280   8.709   1.445 -0.1712  0.1809 -0.3063
17686W        W37966  11.941  13.278   4.187  0.1104 -0.3195  0.2304
17687W        W37967   6.272  16.555  16.436 -0.0593  0.3395 -0.0330
17688W        W37968  14.717   1.886  14.695  0.0799 -0.1439 -0.3520
17689W        W37969   8.568   5.202   1.176  0.2342 -0.1003  0.1803
17690W        W37970  17.116  15.058  12.110 -0.2775  0.0757 -0.1203
17691W        W37971   8.907   7.855  14.967 -0.0281  0.0427 -0.1614
17692W        W37972   8.815   9.503  15.973 -0.0411  0.3456 -0.2319
17693W        W37973   4.653   2.873  12.123  0.0695  0.0617 -0.0617
17694W        W37974  13.218   4.221  11.469  0.1743  0.0693 -0.0010
17695W        W37975  14.800  17.816   1.509 -0.1543 -0.0442 -0.0481
17696W        W37976   7.246   8.123   1.754 -0.0765 -0.0265  0.2014
17697W        W37977  12.951   7.365   1.642  0.1389 -0.3031  0.1627
17698W        W37978   0.656   0.836   2.329 -0.0796 -0.1496  0.3032
17699W        W37979  10.684  12.935   0.328 -0.0235  0.0056  0.0206
17700W        W37980  11.000  17.272  11.628 -0.0108  0.1187  0.0452
17701W        W37981   5.305   2.746   2.801  0.0901  0.1479  0.1763
17702W        W37982  14.758  16.025   3.343  0.0738 -0.1001 -0.1298
17703W        W37983  13.850   9.042  13.874  0.2408 -0.1122  0.0044
17704W        W37984  10.383   4.162   3.503 -0.0916  0.0374  0.2188
17705W        W37985   8.184  17.126   3.575 -0.1745 -0.0945 -0.0160
17706W        W37986  12.612  12.091  14.122  0.2470  0.1729 -0.0751
17707W        W37987   5.826   9.168   2.459  0.0555  0.1185  0.0486
17708W        W37988  10.742  17.128  12.195  0.0877 -0.0323 -0.1530
17709W        W37989   1.522  10.520  16.650 -0.0379  0.1011  0.0030
17710W        W37990  11.335   0.849   4.872  0.0881 -0.0056 -0.1016
17711W        W37991   1.154  13.411  12.741  0.3942 -0.0648  0.0049
17712W        W37992  11.754   2.834  14.887 -0.1410  0.1965 -0.3168
17713W        W37993   3.824   5.803  13.830  0.0730  0.0954 -0.1047
17714W        W37994  17.101   4.683  13.674  0.0285 -0.2367 -0.0189
17715W        W37995  15.279   3.162   2.135 -0.0865 -0.2599  0.1036
17716W        W37996  13.146   2.257   4.040 -0.0438 -0.0127  0.2051
17717W        W37997  13.984  15.683   1.467  0.3075 -0.1812  0.3375
17718W        W37998   1.726  10.290   3.620 -0.0122  0.0223 -0.1517
17719W        W37999   1.201   4.116  12.095  0.0231 -0.0616  0.1382
17720W        W38000   6.229  13.966   2.492 -0.0185  0.2411 -0.0631
17721W        W38001   8.794   1.347   1.474  0.0351 -0.0376  0.2941
17722W        W38002   1.950   7.876  13.649 -0.0334 -0.3846 -0.0751
17723W        W38003  12.259   0.541   2.371 -0.2484 -0.2082  0.1382
17724W        W38004   3.372  13.570  12.282  0.1250  0.1406 -0.0369
17725W        W38005   3.466  14.371  15.514  0.0492  0.1440 -0.2567
17726W        W38006   7.794  17.933   4.023  0.0937 -0.4129  0.0998
17727W        W38007   1.622  16.446  12.809  0.2603  0.2699  0.1914
17728W        W38008   8.474   7.323   3.500  0.0600 -0.3305  0.2381
17729W        W38009  10.177   6.112   2.818  0.0539 -0.1826  0.1101
17730W        W38010  13.902   0.611   4.118 -0.0147 -0.2804 -0.2084
17731W        W38011   3.423   7.176  12.925  0.2681  0.0496  0.0739
17732W        W38012  15.966   3.032  12.523  0.1528  0.2042 -0.2125
17733W        W38013   8.262   9.266   0.156 -0.2000  0.0251 -0.0162
17734W        W38014   0.059  14.244  13.449 -0.1897  0.1453 -0.1111
17735W        W38015  10.491   7.266  12.683 -0.0831 -0.0276  0.0923
17736W        W38016   7.773   8.850  13.765  0.0462  0.0688  0.0363
17737W        W38017   7.884   7.941   4.871 -0.2645 -0.1156 -0.2978
17738W        W38018   8.236   2.535   0.899 -0.0214 -0.0946 -0.2900
17739W        W38019   6.800   7.244   3.745  0.0610 -0.0675 -0.0456
17740W        W38020  11.343   1.831  12.608  0.0283  0.1324 -0.0160
17741W        W38021  15.161   8.159  12.981  0.0555  0.0125 -0.0104
17742W        W38022   8.225  11.651   3.494 -0.2597 -0.1609 -0.1397
17743W        W38023   5.894   4.059  16.691  0.0517  0.2751  0.2028
17744W        W38024   8.082   6.132  13.082  0.0547  0.2562 -0.0419
17745W        W38025   9.724   5.764   4.790  0.2007 -0.0180 -0.0180
17746W        W38026  17.460   5.292  15.084  0.3853 -0.1483  0.0882
17747W        W38027   1.807  17.112  13.733  0.3131  0.2463 -0.3602
17748W        W38028   9.806   1.636  12.641  0.1648  0.4669 -0.0713
17749W        W38029   6.959  11.705  15.627  0.2643 -0.0265  0.1694
17750W        W38030  10.269  16.000   1.284  0.1943 -0.0285  0.4035
17751W        W38031   6.691   8.606  13.822 -0.1646  0.3249  0.3032
17752W        W38032   3.416   6.767  16.123  0.0206  0.0507  0.0757
17753W        W38033   4.482  13.919  15.023  0.0628  0.0373 -0.0978
17754W        W38034  14.588   5.344  13.120  0.1261 -0.1075  0.1978
17755W        W38035   3.859   9.971  12.366  0.0737  0.1536  0.2035
17756W        W38036  10.198   9.763   2.067 -0.0658  0.1045 -0.0446
17757W        W38037   0.712  15.621  16.051 -0.0746  0.0923  0.1400
17758W        W38038   9.506   9.301   3.244  0.0326  0.3148 -0.1921
17759W        W38039   5.875   8.250  12.885 -0.0593 -0.1096  0.2708
17760W        W38040  14.752  17.519   3.881  0.0906 -0.2496  0.0138
17761W        W38041  14.371   5.707   3.965  0.2706 -0.0361  0.2175
17762W        W38042  15.719   9.438   3.154 -0.0505 -0.1932 -0.0833
17763W        W38043   5.596   2.570  13.299 -0.3058  0.1411  0.3013
17764W        W38044   0.803   1.540  12.481  0.1298  0.1822  0.0245
17765W        W38045  17.849  12.056   3.416  0.2478  0.0384 -0.0081
17766W        W38046   3.584   2.662   1.793 -0.0623  0.0114 -0.1758
17767W        W38047  12.141   8.586   1.436  0.0773  0.2483 -0.1072
17768W        W38048  11.668   3.058  11.468 -0.2127 -0.2211  0.0843
17769W        W38049   9.085  10.761   4.441  0.1530 -0.0100 -0.1928
17770W        W38050   4.083   0.154   2.446 -0.0227 -0.1558 -0.0446
17771W        W38051   9.131   7.921  15.420  0.2420 -0.2071  0.1126
17772W        W38052  10.468   3.517  16.511  0.0252  0.2431 -0.2262
17773W        W38053   8.794  12.661   0.425 -0.0669 -0.4042  0.0554
17774W        W38054  16.620  13.135  14.301 -0.0057 -0.1268  0.2154
17775W        W38055  16.621   4.625  12.482 -0.0211 -0.1277  0.1034
17776W        W38056   2.625  15.138  12.321  0.1783  0.0358 -0.0196
17777W        W38057  10.184  17.982   3.320  0.3138 -0.0926 -0.0482
17778W        W38058   3.066  13.011  14.401  0.2552  0.0588  0.2832
17779W        W38059  11.002  12.835  12.635  0.0820  0.3341  0.0769
17780W        W38060  11.090   3.960   0.372 -0.1130  0.1621  0.5689
17781W        W38061  17.205   0.023   1.050 -0.4982  0.1001  0.1982
17782W        W38062   6.202  15.307   2.807 -0.2231 -0.1697 -0.1870
17783W        W38063  17.714   9.290   2.191  0.4668 -0.0905 -0.0955
17784W        W38064  13.969  15.228  15.011 -0.0450  0.1660 -0.1030
17785W        W38065   7.607  12.691  14.043 -0.1766 -0.0320 -0.1666
17786W        W38066  11.672   6.635  14.032  0.4946 -0.0032 -0.1185
17787W        W38067   9.841  14.133  15.121 -0.1129 -0.2788  0.0744
17788W        W38068   8.436   0.430  14.334 -0.3840 -0.0976 -0.2342
17789W        W38069  14.891  12.937  16.502  0.0757  0.3240 -0.2616
17790W        W38070   0.722  13.903   5.379 -0.1261  0.0004 -0.2251
17791W        W38071   6.278   8.630  11.987 -0.0742 -0.0741  0.0324
17792W        W38072   1.386  13.131   2.485  0.2742  0.0593 -0.2010
17793W        W38073  10.547  14.821  14.951 -0.1450  0.1564  0.1276
17794W        W38074   8.821  17.973  14.768  0.0577 -0.3157 -0.0466
17795W        W38075  10.590   1.759  14.992 -0.1401  0.3520  0.2201
17796W        W38076   6.674  15.389   2.041  0.0111 -0.1523 -0.1305
17797W        W38077  11.196   8.919   4.577  0.1318 -0.0448 -0.1633
17798W        W38078   2.546   6.740   2.320 -0.0041 -0.0670 -0.0142
17799W        W38079   3.863  10.134  14.712 -0.1263 -0.1147  0.1178
17800W        W38080   4.218   9.068   1.305 -0.5181 -0.1041  0.3493
17801W        W38081   6.506   6.999   2.133  0.0181  0.4553  0.2277
17802W        W38082  16.415  14.453  13.691 -0.1218  0.1604  0.1928
17803W        W38083   4.976   9.892   4.917  0.1800 -0.1714 -0.0567
17804W        W38084  12.488   6.922  14.734  0.0858 -0.0196 -0.2917
17805W        W38085   9.961  10.158  15.892 -0.1041  0.1005  0.1391
17806W        W38086   0.538   2.782  13.002  0.2346  0.3298 -0.1617
17807W        W38087   8.744   2.257  12.466  0.2101 -0.2497  0.0934
17808W        W38088  16.759   3.306   3.494 -0.0503 -0.3121 -0.4748
17809W        W38089   4.016   0.136   0.026 -0.1169 -0.1990 -0.1529
17810W        W38090  17.069  16.590   4.404 -0.1218  0.1695 -0.0314
17811W        W38091   0.210  13.033  15.331 -0.1793 -0.0982  0.2167
17812W        W38092   7.139   6.446   1.663  0.0171 -0.1584 -0.0120
17813W        W38093  16.171   5.959   3.439 -0.0616 -0.2563  0.3276
17814W        W38094   5.140   7.435  16.075 -0.0247  0.0030  0.2051
17815W        W38095  13.220   0.082  15.946  0.1438  0.0070 -0.1265
17816W        W38096   4.167   1.708   0.999 -0.1600  0.0385  0.2080
17817W        W38097   2.695  17.775  12.915 -0.5741 -0.0435  0.1136
17818W        W38098   5.772  14.638  12.779  0.2521  0.1647  0.2249
17819W        W38099  13.208  13.362   4.747 -0.1710 -0.1645 -0.1466
17820W        W38100  17.408  15.501  13.477 -0.0213  0.1673 -0.1183
17821W        W38101  16.244  15.694  13.290 -0.0838  0.2020 -0.1670
17822W        W38102   0.785   7.706  16.014  0.0538 -0.4077 -0.0921
17823W        W38103  15.680   3.375  16.660  0.1690  0.0908 -0.1428
17824W        W38104   5.990   7.694  11.911  0.0146  0.0008  0.1563
17825W        W38105   2.917  13.272  16.079 -0.3601 -0.0330 -0.0782
17826W        W38106   7.424   8.414  14.502 -0.0845 -0.1168 -0.0714
17827W        W38107   9.550  11.398  16.402 -0.0781  0.0216 -0.0943
17828W        W38108   2.176  13.028   1.327 -0.0988  0.0736  0.0297
17829W        W38109  16.210  14.316   0.705  0.0394 -0.1879  0.0007
17830W        W38110   6.644  12.655  13.005 -0.0203 -0.0001 -0.1034
17831W        W38111  17.709   0.531   0.237 -0.0775 -0.0199 -0.1194
17832W        W38112  14.418   8.383   2.124 -0.1057 -0.2709 -0.2607
17833W        W38113   7.608  14.838  16.235 -0.2899  0.1359 -0.3027
17834W        W38114   3.521   7.713   4.434 -0.1972 -0.0329 -0.1548
17835W        W38115   0.949   0.704   3.443 -0.1760 -0.1617  0.1516
17836W        W38116   8.310   7.100   1.749 -0.2980 -0.1495  0.0484
17837W        W38117  17.872   6.865  12.506  0.0758  0.0691  0.1534
17838W        W38118  13.362   6.225  12.074  0.0853  0.1686 -0.0824
17839W        W38119  17.861  14.909   0.463  0.0587 -0.1397 -0.0997
17840W        W38120  17.037  16.310  15.684 -0.1163  0.0908 -0.0668
17841W        W38121  14.246   8.894  12.780 -0.5521  0.0995  0.1054
17842W        W38122   7.599   2.443   2.380 -0.1458 -0.0558 -0.1723
17843W        W38123   8.617   0.046   2.148 -0.0051  0.3236 -0.0810
17844W        W38124   7.140  10.494  15.361  0.0255 -0.0197 -0.0752
17845W        W38125   7.357   3.493  13.040  0.1245 -0.0928  0.1088
17846W        W38126  13.704   5.132  12.305  0.0591  0.2950 -0.2017
17847W        W38127   9.482  15.575  12.157 -0.1162 -0.0063 -0.1629
17848W        W38128   0.760  15.690  14.257 -0.0577  0.0727  0.1793
17849W        W38129  16.483   7.811   2.188  0.2652 -0.1255  0.0344
17850W        W38130   8.560  11.524   4.053  0.1903 -0.0852  0.2929
17851W        W38131  17.219   8.600   0.218 -0.3451 -0.2305  0.4220
17852W        W38132  17.334  16.257  16.101  0.2572  0.0713  0.0288
17853W        W38133   0.565  14.116   3.307 -0.0398 -0.0815  0.0051
17854W        W38134   8.130   3.539  15.848 -0.0002  0.0258 -0.1168
17855W        W38135  13.863  14.700   2.684 -0.0337 -0.2476 -0.1015
17856W        W38136   8.902   4.145  12.160  0.2967 -0.0504 -0.0556
17857W        W38137  14.207   6.926   4.623  0.3026  0.1684  0.1930
17858W        W38138  17.190  10.626  15.399  0.3043  0.1351 -0.0293
17859W        W38139  13.751   0.162   3.367 -0.4525  0.1833 -0.2985
17860W        W38140  13.220  13.126  16.021 -0.2891  0.3646  0.2269
17861W        W38141   5.416   5.462  13.392 -0.1038 -0.4463  0.2016
17862W        W38142   2.022  15.950  16.528  0.3247  0.1004  0.1066
17863W        W38143   8.486   2.129  16.558  0.4225  0.0785  0.3320
17864W        W38144   7.455   3.200  13.798  0.3001  0.1191  0.1969
17865W        W38145   0.857   8.555  15.472  0.2076 -0.0380  0.1035
17866W        W38146  10.057  10.840   3.428  0.2155  0.1305  0.2141
17867W        W38147  10.845   2.379  13.303  0.0393 -0.2385 -0.1011
17868W        W38148  14.482  12.235   0.488 -0.0342 -0.0781  0.0171
17869W        W38149   5.539   9.054   0.209  0.2239  0.1654  0.0032
17870W        W38150  14.864   6.317   2.256  0.0030  0.0490  0.1733
17871W        W38151   7.295  10.908   5.941 -0.2400  0.1233 -0.0281
17872W        W38152  15.975   6.489  13.971 -0.3005  0.1976  0.0165
17873W        W38153   0.247  17.216   2.593  0.0993 -0.0297 -0.2148
17874W        W38154  17.751   9.432  16.580  0.4113  0.2127  0.0376
17875W        W38155   3.979   7.940   4.599 -0.0410 -0.2376  0.2475
17876W        W38156  15.931  12.558  12.316  0.2704  0.2828  0.0699
17877W        W38157   6.232   7.944   3.289  0.2775  0.0573  0.0745
17878W        W38158   5.582  10.661  14.047 -0.1323 -0.0508 -0.2669
17879W        W38159  10.461  12.561  12.699 -0.1575  0.1237 -0.1503
17880W        W38160   8.402  11.405   0.754  0.3847 -0.2348 -0.0823
17881W        W38161   3.827   4.393   2.778  0.0353  0.0928 -0.0998
17882W        W38162  16.067  16.849   2.412 -0.0484  0.0906 -0.0324
17883W        W38163  15.346   4.650  16.297 -0.4892  0.0405  0.0147
17884W        W38164   4.226  14.178   0.410  0.0795  0.0200 -0.2005
17885W        W38165   5.264  14.689  12.811  0.2747 -0.1060  0.3748
17886W        W38166   6.506   0.108   2.956  0.0694  0.1728  0.0484
17887W        W38167   1.253  10.202   0.847 -0.2127 -0.2072  0.3637
17888W        W38168   4.141   7.285   3.098  0.2586 -0.1927 -0.1449
17889W        W38169   8.159   7.165   1.175  0.1102  0.0420 -0.1874
17890W        W38170  13.497  15.145  13.738  0.1363  0.0735  0.0436
17891W        W38171  15.417  10.550  13.632  0.0880 -0.3311 -0.0103
17892W        W38172   7.062  14.344   3.776  0.2574  0.1491  0.4465
17893W        W38173  16.830   1.846  16.065  0.1458  0.0038  0.2155
17894W        W38174   7.024   7.517   4.583 -0.0674  0.0958  0.2996
17895W        W38175  17.768  10.984   4.853 -0.1726 -0.1704  0.3173
17896W        W38176   2.070   7.161  13.471  0.0590 -0.3688  0.0632
17897W        W38177   9.487  14.198  14.351  0.0329  0.3409  0.0112
17898W        W38178  14.877   4.528  15.531  0.1651  0.0371  0.3678
17899W        W38179   3.261   0.401   2.370 -0.2220  0.2756  0.2191
17900W        W38180   2.578   2.137  15.423  0.2661 -0.1407 -0.1300
17901W        W38181   4.531   8.532   1.617 -0.0906  0.1005  0.2046
17902W        W38182  14.210  15.907  13.917  0.2537  0.0231 -0.0733
17903W        W38183  12.353   9.881  12.408 -0.0934  0.0453 -0.0012
17904W        W38184   6.687   2.381  15.375  0.1871 -0.1328  0.1165
17905W        W38185   5.499   9.773  14.688 -0.0349 -0.0851 -0.0126
17906W        W38186   9.557   5.300   4.667  0.0204  0.1708 -0.2984
17907W        W38187  16.672  12.170  16.362  0.0569  0.1596 -0.1543
17908W        W38188   6.178   3.831   0.357  0.1823  0.1784  0.0886
17909W        W38189  11.258   1.799   4.346 -0.0239  0.1848 -0.2079
17910W        W38190  14.794  14.480  12.508  0.2113  0.1372 -0.0362
17911W        W38191   4.687   9.643  15.737  0.1550  0.2757 -0.1050
17912W        W38192  10.497   2.005   0.149 -0.1171 -0.0554  0.0916
17913W        W38193  14.601  17.921  14.700  0.0101 -0.1303  0.1668
17914W        W38194  15.605   3.341  13.376 -0.0985  0.3277  0.0127
17915W        W38195   5.494  13.813  14.955  0.1779  0.0737 -0.1093
17916W        W38196   9.540  16.149   3.620  0.1135  0.1402  0.2390
17917W        W38197   4.627   9.758   2.857 -0.0831 -0.0889 -0.0978
17918W        W38198   8.413  16.107   2.812  0.1044 -0.2089 -0.0622
17919W        W38199   9.825  17.576   4.821 -0.0247 -0.2381 -0.1884
17920W        W38200  11.085   6.793  13.519 -0.2425  0.2484  0.2713
17921W        W38201   0.673  12.172  14.003  0.0242  0.2556  0.2102
17922W        W38202   1.673   0.685   2.582  0.0995  0.1511  0.1179
17923W        W38203   6.685   1.887   0.886  0.2863 -0.0702  0.0094
17924W        W38204  17.307   3.755   4.386 -0.0098 -0.0623  0.0341
17925W        W38205  11.872   8.081  15.503  0.0132 -0.2249 -0.2575
17926W        W38206  13.709  14.131   4.254  0.3211  0.0246  0.1591
17927W        W38207   9.107  16.317  12.036 -0.1506  0.0179  0.1307
17928W        W38208  17.533  11.386  15.864 -0.1436 -0.1670 -0.0711
17929W        W38209  15.445   0.976  15.316 -0.1461 -0.3441 -0.0616
17930W        W38210  10.630  16.146   1.735 -0.1679  0.0961 -0.1570
17931W        W38211   3.281   6.636  14.655  0.0772  0.0442 -0.2366
17932W        W38212   5.947  13.460  13.499 -0.0277  0.5483 -0.1056
17933W        W38213   3.626  17.580   3.670 -0.0507  0.2331 -0.3475
17934W        W38214  10.920   2.257   3.740  0.1547  0.0742 -0.1289
17935W        W38215   7.749  17.543  15.009 -0.1008  0.0451 -0.0399
17936W        W38216   0.785  14.665  12.546  0.1071 -0.0022 -0.0779
17937W        W38217   6.952  16.375   3.335  0.1752  0.0614 -0.4408
17938W        W38218   8.124  16.653   4.855 -0.2402  0.0223  0.0374
17939W        W38219  15.933  11.595   1.905  0.2474 -0.0323  0.1040
17940W        W38220   8.494  14.061   1.905  0.2340  0.4022 -0.2099
17941W        W38221   0.005  11.529   2.196 -0.0185  0.1019  0.5138
17942W        W38222  12.141   6.689   0.591  0.1121 -0.0051 -0.2354
17943W        W38223  12.443   2.147  15.003  0.0417 -0.2302  0.2971
17944W        W38224  12.115   1.187  15.953  0.0239 -0.0666  0.1762
17945W        W38225  11.851  11.185   3.807 -0.3222 -0.0861  0.1839
17946W        W38226   5.971   8.402  13.508 -0.2162 -0.1675  0.0357
17947W        W38227  11.585   4.947  12.104 -0.0480 -0.2406 -0.3730
17948W        W38228  11.051   5.349  11.694 -0.0892  0.2066 -0.0861
17949W        W38229   4.793  10.415   0.570  0.2316  0.1123  0.1859
17950W        W38230   3.145  14.709  13.532 -0.2117 -0.0528  0.0346
17951W        W38231   3.779   4.760   3.200  0.0802 -0.2642 -0.0067
17952W        W38232   7.509   8.684  13.297  0.2448 -0.0871 -0.2477
17953W        W38233  17.577   2.432   0.216  0.1108  0.0136  0.3021
17954W        W38234   9.080   3.261  16.518 -0.2381 -0.1946 -0.1858
17955W        W38235   2.496  16.440  12.504  0.2137 -0.2928  0.1934
17956W        W38236  11.464  16.218   1.238  0.0783  0.2168  0.2865
17957W        W38237   7.072  12.709   0.187 -0.0727  0.1300 -0.0239
17958W        W38238  14.677   4.299   2.995  0.1610 -0.3980 -0.0578
17959W        W38239  12.470  11.048  16.251 -0.1877  0.0145  0.1061
17960W        W38240   5.269   3.169  12.674 -0.2444 -0.0999  0.2450
17961W        W38241   3.817   4.959  14.491 -0.1441 -0.0839  0.0036
17962W        W38242   8.907  14.002  15.467 -0.0408 -0.1096  0.2307
17963W        W38243   7.056   1.807  16.282 -0.2002  0.2787 -0.0104
17964W        W38244   4.267  12.327  14.519 -0.3153 -0.0288  0.0212
17965W        W38245  13.423   6.115   1.233  0.2315 -0.2315 -0.0718
17966W        W38246  13.318  16.694  13.096  0.0174 -0.0470 -0.0857
17967W        W38247  17.109   6.649   1.997 -0.0594  0.1049  0.3065
17968W        W38248   8.186   0.867  13.281  0.0951 -0.2167  0.0602
17969W        W38249   6.340   2.499  16.175 -0.2053  0.0073 -0.0681
17970W        W38250   1.361   1.631   4.038 -0.1954 -0.0207 -0.1704
17971W        W38251  17.176  16.537  14.651  0.0961  0.0324 -0.0763
17972W        W38252  11.388  11.903  15.743  0.0844 -0.0999  0.0587
17973W        W38253  16.297  14.245  16.338  0.0807  0.1459 -0.0577
17974W        W38254   6.210   5.568   3.107  0.0145 -0.2282 -0.4773
17975W        W38255   1.538   1.904   1.148  0.0409 -0.1333 -0.1831
17976W        W38256   0.721  10.628   3.079  0.2124  0.1996 -0.0264
17977W        W38257   6.015  13.607  13.003  0.0249 -0.1318  0.0895
17978W        W38258  10.925   7.605   0.966 -0.0919  0.0044 -0.4158
17979W        W38259  13.990   3.346  15.152 -0.0623  0.1461 -0.2309
17980W        W38260   7.048   0.618   3.653 -0.0193  0.2740  0.3647
17981W        W38261   5.709   2.110   3.448  0.0203  0.1062  0.1114
17982W        W38262  17.500  13.560   1.884  0.0283 -0.1923 -0.0749
17983W        W38263  13.409   7.124  14.844 -0.0126  0.1181 -0.1398
17984W        W38264   1.287   3.280   1.392 -0.2396  0.1448  0.0024
17985W        W38265   3.249  13.479   3.066  0.2187  0.0366  0.2969
17986W        W38266  17.592  10.368  15.080 -0.0317 -0.2334  0.0924
17987W        W38267   6.604   6.194  14.755 -0.0098  0.2225 -0.1390
17988W        W38268  12.084   7.010   3.401 -0.2534 -0.0481  0.0952
17989W        W38269   0.817   3.170   1.731 -0.2256  0.2387 -0.0650
17990W        W38270   1.758   2.202   1.989 -0.0659 -0.0015  0.2505
17991W        W38271   2.627   8.004   0.546 -0.0928  0.0314 -0.0872
17992W        W38272  11.465   3.565  13.307 -0.1131 -0.0463 -0.2514
17993W        W38273   7.489   7.496   0.581 -0.3197  0.0827  0.1971
17994W        W38274   5.492  10.542   1.366  0.2146 -0.1072 -0.2968
17995W        W38275  17.280   6.706   3.812  0.0010  0.0599  0.1219
17996W        W38276   6.343   7.508   3.820 -0.1283 -0.3705  0.2816
17997W        W38277  11.781  17.040  12.187 -0.1282  0.4185 -0.2895
17998W        W38278   8.042  10.906   4.662  0.0989 -0.2782  0.1069
17999W        W38279  15.362  15.680  13.358  0.2963  0.2947 -0.4350
18000W        W38280   3.453   2.170   1.702  0.1572 -0.0724  0.2185
18001W        W38281   3.797  17.088   3.822  0.0063 -0.0176  0.0186
18002W        W38282   1.139  10.729  14.348  0.0020 -0.2957 -0.3758
18003W        W38283   9.504   8.779  15.219 -0.0748  0.0828 -0.0041
18004W        W38284  13.594   7.115   3.995  0.0948  0.0760 -0.0083
18005W        W38285  17.005  14.918   4.958 -0.0922 -0.1488 -0.1855
18006W        W38286  17.401   0.573   5.726  0.0794 -0.2877  0.1368
18007W        W38287  13.549   5.617   0.932 -0.1259  0.0201  0.0233
18008W        W38288  14.984  10.379  12.421 -0.2225 -0.1625  0.1332
18009W        W38289   4.533   1.721   2.438  0.1579 -0.1074 -0.0512
18010W        W38290   0.670   3.438   4.386 -0.0410 -0.0462  0.1176
18011W        W38291  10.087   2.429   1.694 -0.0270 -0.0585  0.0877
18012W        W38292  10.989   0.617  11.591  0.2533 -0.1402 -0.1527
18013W        W38293   4.596   5.785  12.680 -0.3468 -0.1042  0.0211
18014W        W38294   0.393  13.995   4.972 -0.1368 -0.1517 -0.1588
18015W        W38295   6.145   8.461   2.427 -0.1327 -0.2959  0.0492
18016W        W38296   1.825  14.545  14.075  0.2195  0.3396  0.0831
18017W        W38297   4.162   2.356  16.452  0.1272 -0.3342 -0.0951
18018W        W38298   4.335   0.007  13.859  0.0827 -0.0265  0.0436
18019W        W38299  16.687   6.783  13.349 -0.0841  0.0454 -0.1155
18020W        W38300   8.721   6.701   1.815 -0.0289  0.1019  0.2115
18021W        W38301  14.205   9.065   3.753 -0.0322  0.1835 -0.1544
18022W        W38302  13.934   5.187   2.859  0.2037  0.5098 -0.1853
18023W        W38303   0.164   1.333  13.683 -0.3097 -0.2028 -0.0821
18024W        W38304   3.088   6.951  15.797 -0.0352  0.0216  0.2303
18025W        W38305  13.334   3.136   2.994  0.2966 -0.0513 -0.0467
18026W        W38306  10.797  12.797  13.061 -0.1104 -0.3532 -0.0404
18027W        W38307   0.114   2.580   3.276 -0.0341  0.3849 -0.1081
18028W        W38308   2.876   9.578   4.503 -0.0778 -0.0513 -0.0166
18029W        W38309  13.733   6.286  16.139  0.2174 -0.1290 -0.1407
18030W        W38310  17.812   6.802  15.305  0.0300 -0.0762 -0.3539
18031W        W38311  11.841  16.659   3.925 -0.1824 -0.2658 -0.1974
18032W        W38312   5.531   6.001   0.118  0.0712  0.1601  0.0632
18033W        W38313  11.178  15.266  15.306 -0.0362 -0.4033 -0.1875
18034W        W38314  14.509  16.551   1.201 -0.1898 -0.0265 -0.1789
18035W        W38315  12.151   6.263   2.411 -0.1308 -0.0589 -0.2202
18036W        W38316   8.989   3.279   0.713 -0.1353  0.2162  0.0161
18037W        W38317   7.000   0.681   2.422 -0.1787  0.2181 -0.1037
18038W        W38318  16.133   8.676   0.799  0.0148  0.0130 -0.3202
18039W        W38319   8.595   9.400  12.680 -0.1603 -0.2201 -0.3457
18040W        W38320   0.370   3.596  15.063 -0.1198 -0.3002  0.0507
18041W        W38321  12.403  17.377  15.266 -0.1838  0.2685  0.1733
18042W        W38322   8.169  12.646   3.309  0.2069 -0.3417 -0.0090
18043W        W38323   6.002   9.920  15.524  0.0530 -0.3919  0.0729
18044W        W38324   4.913  11.977  12.569  0.4184 -0.0715 -0.1235
18045W        W38325   7.162   4.709  12.962  0.2696 -0.0042 -0.0463
18046W        W38326   7.633  12.242  15.257 -0.0333 -0.0993 -0.0392
18047W        W38327   2.303  10.298   3.484  0.0196  0.4397  0.1901
18048W        W38328   6.806  15.317  12.975 -0.1024 -0.2539  0.1295
18049W        W38329   7.212  12.550   3.443  0.0286  0.0925 -0.1050
18050W        W38330   6.870  14.829   3.832  0.3805  0.1873 -0.1028
18051W        W38331  11.946  17.573  15.525  0.0125  0.0526  0.2499
18052W        W38332  10.477   5.933   1.684  0.0053  0.5146 -0.2302
18053W        W38333   0.225  16.378  15.851  0.0451  0.1231  0.5002
18054W        W38334  13.865   9.652   0.391  0.1434 -0.1794  0.4499
18055W        W38335  15.951   4.656   5.819 -0.2490 -0.4338 -0.0383
18056W        W38336   3.729   7.318  16.611  0.0398 -0.3267  0.1986
18057W        W38337   7.165  12.215  15.427  0.0635 -0.4350  0.0464
18058W        W38338   3.324  15.915   0.780  0.0398 -0.2094  0.0065
18059W        W38339   4.303   6.065  12.261  0.0692  0.2058  0.1275
18060W        W38340  15.330   8.525   0.252  0.0660 -0.3223 -0.2526
18061W        W38341  10.063   6.517   4.152  0.0889  0.0514 -0.0961
18062W        W38342  12.181   7.085  11.892 -0.2449  0.3259 -0.3110
18063W        W38343  15.912   5.724  12.661  0.2059  0.0525  0.0504
18064W        W38344   7.623   2.475   3.554 -0.1125  0.0719  0.2233
18065W        W38345   7.755  17.183  15.485 -0.1459  0.2875 -0.1850
18066W        W38346  13.644   6.426  16.634 -0.1709  0.0666 -0.1118
18067W        W38347  16.740   5.810   2.149  0.2731  0.0470 -0.5864
18068W        W38348   0.334  10.949   4.565  0.1067 -0.1150 -0.2859
18069W        W38349   8.981  17.976   1.774  0.1297  0.5098 -0.0853
18070W        W38350  10.071  12.442  13.084  0.2888 -0.1738 -0.1709
18071W        W38351   6.133  11.524  15.417  0.1718  0.1369  0.1815
18072W        W38352   7.901  17.452   3.319 -0.1163 -0.2205 -0.3775
18073W        W38353  12.221  15.083  12.816  0.0166 -0.2591  0.1801
18074W        W38354  16.587  16.274   0.476 -0.1147  0.4543  0.0660
18075W        W38355  11.879  13.984   1.193 -0.2708  0.4016 -0.3254
18076W        W38356  17.783  17.932  13.478  0.1449  0.0548 -0.0314
18077W        W38357   2.923  17.752  12.288 -0.0851  0.2664  0.0715
18078W        W38358   5.414  11.107  14.984  0.2570 -0.1871 -0.0801
18079W        W38359  16.206  17.344   3.423 -0.1064 -0.0090 -0.0743
18080W        W38360  14.718  11.316   4.303 -0.3554 -0.2967 -0.1489
18081W        W38361   3.464   8.688  13.976 -0.0034 -0.0320  0.0055
18082W        W38362   5.128  11.758   4.038  0.2097 -0.2922 -0.0413
18083W        W38363  11.671  14.280  13.544 -0.1661 -0.0282 -0.1817
18084W        W38364   2.881  12.861   4.507 -0.0095  0.0932 -0.0762
18085W        W38365   2.530   6.885  13.391 -0.1095 -0.0131 -0.2431
18086W        W38366   9.068  16.699  16.671  0.1186  0.2030  0.0300
18087W        W38367  15.093   4.421  14.274  0.1035  0.1015  0.0188
18088W        W38368   8.319   3.938  13.420  0.2879  0.1119  0.0291
18089W        W38369   8.648  14.372  15.641 -0.2705  0.1084 -0.0695
18090W        W38370  12.826  11.398   3.992 -0.2701  0.1242  0.1057
18091W        W38371   6.528  10.045  12.012 -0.1560 -0.6181  0.3646
18092W        W38372   4.499   3.736  16.018 -0.2316 -0.0412 -0.3665
18093W        W38373   0.825   3.594  15.406  0.3235  0.1046  0.0933
18094W        W38374  15.890  12.584   1.827 -0.3261 -0.0433 -0.1158
18095W        W38375   4.069   9.574  13.170 -0.1612  0.1395  0.2577
18096W        W38376   9.897   5.707  13.607 -0.0418 -0.2461  0.0791
18097W        W38377   9.430   1.330  11.424 -0.0904 -0.5678 -0.0480
18098W        W38378   0.009   3.956   2.476 -0.1902  0.1175 -0.1040
18099W        W38379  13.044   0.445  15.047  0.4212  0.1446  0.1390
18100W        W38380  14.986   3.560  15.608  0.0592 -0.1462 -0.0846
18101W        W38381   2.691  17.281  16.620 -0.0806 -0.0506  0.4324
18102W        W38382   2.985  14.295  15.482  0.0517  0.1565 -0.2523
18103W        W38383   0.176   3.833  12.835  0.3006 -0.2153  0.4644
18104W        W38384  16.191  17.037   2.898 -0.1084 -0.1944  0.0547
18105W        W38385   8.279  11.018   4.224  0.0668  0.3442 -0.0074
18106W        W38386  12.052   8.109   3.673 -0.3755  0.0329 -0.0949
18107W        W38387   3.268   4.954   4.346 -0.1086 -0.2197  0.3288
18108W        W38388  16.766   5.528   4.584  0.1723 -0.1565  0.1448
18109W        W38389  11.156  12.758   0.297 -0.1637 -0.2135  0.0412
18110W        W38390   1.548  15.012  11.654  0.3409  0.2325 -0.2435
18111W        W38391  10.311   1.620  15.508 -0.0382 -0.1991 -0.0100
18112W        W38392   2.817  10.619  14.008  0.1353 -0.1722 -0.1562
18113W        W38393  17.807  10.379  13.153 -0.2768 -0.1188 -0.3406
18114W        W38394   5.462   5.521   1.752  0.1993 -0.2840  0.0039
18115W        W38395  10.250  14.672  16.313 -0.0204  0.0621  0.1980
18116W        W38396  12.376   3.768  12.833 -0.1576 -0.1134  0.1106
18117W        W38397   1.345  10.005  14.636 -0.2557 -0.1641 -0.0971
18118W        W38398  12.418   3.874   4.132 -0.0454 -0.3136 -0.0218
18119W        W38399  12.889  13.043   2.244 -0.1360 -0.1830  0.0819
18120W        W38400   4.377   6.903   3.316  0.0786  0.1158 -0.1019
18121W        W38401   3.405   7.951  12.268  0.2944  0.0985 -0.4112
18122W        W38402   9.255  12.721  14.098  0.0087 -0.1488 -0.2086
18123W        W38403   9.154  16.879   3.702  0.3045 -0.3041 -0.1165
18124W        W38404  11.187  10.636  12.721 -0.2353  0.1652 -0.2606
18125W        W38405  17.677   3.862   4.739  0.1007  0.3086 -0.1004
18126W        W38406   3.203  11.923  14.481  0.2748  0.0374 -0.0412
18127W        W38407  17.152   1.656   1.989  0.0460 -0.1989  0.1776
18128W        W38408  10.899  14.485   2.170 -0.0061  0.0233 -0.1464
18129W        W38409  10.087   3.413   2.091  0.1118 -0.2285  0.2267
18130W        W38410   0.682  15.526   1.360  0.1554 -0.2195 -0.0063
18131W        W38411  17.905  15.304  14.209  0.1107 -0.2164  0.4811
18132W        W38412  17.796   5.829   0.478  0.0698  0.2380  0.2474
18133W        W38413   0.078   7.517  13.866 -0.0577 -0.0001  0.1298
18134W        W38414  15.334  12.188  14.525  0.1395 -0.1458  0.1660
18135W        W38415  11.266   7.155  12.172  0.1488 -0.2973 -0.0481
18136W        W38416   2.639   6.610   0.065 -0.1571  0.1158  0.0821
18137W        W38417   1.265  11.569  12.348  0.1745  0.1001 -0.2990
18138W        W38418  10.561   3.220   0.740  0.0339  0.2744  0.2393
18139W        W38419  16.510   3.404  13.357 -0.0123 -0.2820 -0.2727
18140W        W38420   8.119  17.376   1.071 -0.1897  0.3792  0.0019
18141W        W38421   7.732  14.030  14.113 -0.0827  0.1545 -0.4271
18142W        W38422  11.440  16.258  11.638  0.1318 -0.4268  0.1096
18143W        W38423   6.912   9.134   0.472  0.0080 -0.2854  0.0265
18144W        W38424  16.706   8.243   3.431 -0.2249  0.0761 -0.2772
18145W        W38425   8.799   8.497  12.846  0.1370  0.0019 -0.1426
18146W        W38426   0.646  15.300   3.816 -0.0702  0.0210 -0.1156
18147W        W38427   8.346   6.528  13.328 -0.0005  0.0409  0.0980
18148W        W38428  15.794   1.394   2.630 -0.3921  0.2195  0.1354
18149W        W38429   6.647  11.620   3.178  0.1690  0.2682  0.2448
18150W        W38430  12.791  13.852   1.018  0.2443  0.1969 -0.1446
18151W        W38431  10.653  12.268  13.147  0.0016  0.1739 -0.0736
18152W        W38432  10.864  16.445  14.274  0.4058  0.1624  0.0994
18153W        W38433   4.141   4.437  16.380 -0.2414  0.2052 -0.2470
18154W        W38434  17.854  17.826   3.287 -0.4668  0.3959 -0.0908
18155W        W38435   8.685  10.069  12.643  0.4354 -0.0291 -0.0503
18156W        W38436   8.754  11.080   4.211  0.0219 -0.1252 -0.0990
18157W        W38437  10.063   8.769   0.996 -0.2432  0.1577 -0.1122
18158W        W38438   0.014   5.256   4.856  0.1356  0.0791  0.0996
18159W        W38439   6.016  15.658  15.167  0.1206 -0.0195 -0.0721
18160W        W38440   2.721   6.656  13.898  0.2451  0.2603 -0.2374
18161W        W38441   5.253  16.971  16.355 -0.0418  0.0010 -0.2524
18162W        W38442  11.376   2.354  14.527  0.1262  0.2009 -0.0224
18163W        W38443   7.352  11.253   4.383 -0.4332  0.1427 -0.1002
18164W        W38444   4.776  16.526   2.905  0.0473  0.1536 -0.0873
18165W        W38445  13.766   1.282  12.547  0.0056 -0.0611  0.0481
18166W        W38446   2.935   1.300  14.668  0.0634 -0.2247 -0.1323
18167W        W38447   4.059   6.460   2.912 -0.2827  0.0681 -0.0949
18168W        W38448   6.991   4.237   1.044 -0.1491 -0.1074 -0.4013
18169W        W38449   4.217  15.263  15.015  0.0957  0.2175 -0.2925
18170W        W38450   3.493  13.124   2.408 -0.1421  0.0114  0.1719
18171W        W38451   7.623   6.451  16.309 -0.0071  0.0338  0.1068
18172W        W38452  13.096  10.952  13.255 -0.1349 -0.3981 -0.0681
18173W        W38453  10.354   8.798   0.192 -0.1358  0.1600 -0.1107
18174W        W38454   0.096   3.013   3.913  0.0210  0.2174  0.2232
18175W        W38455   4.777  10.295  14.492  0.0271  0.1397  0.2035
18176W        W38456  15.064  10.826  12.706  0.2386 -0.2519  0.2303
18177W        W38457   7.374   5.065  16.132 -0.1861  0.1240  0.0505
18178W        W38458  11.283   7.657   2.375  0.1986  0.1820  0.0155
18179W        W38459  10.838  16.151   3.452 -0.1237 -0.0209 -0.0910
18180W        W38460   3.539   8.285   3.008 -0.0078  0.2406 -0.0171
18181W        W38461  11.407   0.234   4.574 -0.0454  0.0394  0.2529
18182W        W38462  10.045  12.082   0.180  0.1394 -0.2298  0.1260
18183W        W38463  14.146  12.253  16.365 -0.1170 -0.0044  0.0701
18184W        W38464  16.785  10.553  14.751  0.0208 -0.2175 -0.1195
18185W        W38465   2.722  15.291   2.512 -0.0000  0.0292 -0.0990
18186W        W38466   7.929   5.473   1.862  0.0077 -0.2096 -0.1157
18187W        W38467   9.556  17.133   0.706 -0.0256 -0.0312 -0.1302
18188W        W38468  13.980   1.626   2.183 -0.0118  0.1752 -0.1374
18189W        W38469   9.598   2.596   3.306  0.1926 -0.0739 -0.0877
18190W        W38470  10.965   2.077   3.194  0.1033 -0.2887  0.2661
18191W        W38471   5.091  11.699   0.565  0.1176 -0.1644 -0.1090
18192W        W38472  13.246   3.987   4.284  0.1610 -0.2601 -0.0866
18193W        W38473   1.461   3.407  14.571 -0.2968  0.0744 -0.0326
18194W        W38474  15.789  11.806   2.835  0.0604  0.1889  0.3015
18195W        W38475   1.727   1.976  14.193  0.2675 -0.1940  0.0777
18196W        W38476  10.360   4.780  10.530 -0.1177 -0.1465 -0.1358
18197W        W38477   2.111  15.375  12.109  0.0637 -0.0561 -0.1484
18198W        W38478  11.962  17.111  15.975 -0.0390 -0.1260 -0.1459
18199W        W38479  13.340  10.752  16.463 -0.0445  0.1883  0.2752
18200W        W38480  16.948  15.525   0.977  0.1138  0.1481  0.1192
18201W        W38481  11.519  10.657   0.511 -0.1412  0.0359 -0.0297
18202W        W38482   1.723   5.164   4.125 -0.1318  0.1360 -0.0698
18203W        W38483  12.800  15.297  12.755 -0.0412 -0.4199  0.0156
18204W        W38484  10.405  16.626  14.478 -0.1738 -0.1761  0.0015
18205W        W38485   5.813  14.038  16.594  0.1938  0.1753  0.1170
18206W        W38486   7.865  14.328  15.485 -0.0871 -0.0674 -0.2375
18207W        W38487  10.389  15.501  14.730 -0.1532 -0.1794 -0.1819
18208W        W38488   1.840  17.692   1.651  0.1370 -0.1298  0.1008
18209W        W38489  12.704  13.756   4.581 -0.0428 -0.3211 -0.1055
18210W        W38490  17.644  12.863   0.345  0.0183 -0.0145  0.0523
18211W        W38491   0.103   7.947  12.063 -0.2007 -0.1605 -0.0584
18212W        W38492   1.475  12.534  11.755  0.0291  0.1944  0.2989
18213W        W38493   0.295  10.305  12.404  0.0914 -0.2443  0.1680
18214W        W38494   3.754  17.823  15.831  0.1866  0.0911  0.0651
18215W        W38495   0.502   6.538  15.049  0.1511  0.1310 -0.1993
18216W        W38496   5.820   9.150  13.755 -0.2387 -0.0333 -0.1668
18217W        W38497  16.374  15.519   0.261  0.4600 -0.0959 -0.0911
18218W        W38498  17.979  16.879   3.816 -0.0562  0.0407  0.0005
18219W        W38499   5.490  15.771  12.258  0.0025  0.2688  0.2649
18220W        W38500   6.704  12.772  13.771  0.4778 -0.1476  0.1469
18221W        W38501  17.958   3.589  12.351  0.2235  0.1691  0.1033
18222W        W38502   0.335  16.873   0.448  0.0103 -0.0519  0.0624
18223W        W38503   8.487   3.465   0.556 -0.1087  0.0726  0.0644
18224W        W38504   2.971   9.291  15.630  0.0156 -0.1919  0.0155
18225W        W38505   5.199  13.697  13.100 -0.0400 -0.3220 -0.0474
18226W        W38506   1.906  15.929   2.399  0.0128  0.0543  0.0651
18227W        W38507   7.554  10.515   2.287  0.0976 -0.0696  0.3194
18228W        W38508  11.705   8.915  16.096 -0.0414 -0.0155 -0.0584
18229W        W38509   3.721   8.973  12.818  0.0100 -0.1080  0.2045
18230W        W38510   3.716  10.103   2.948 -0.2422 -0.0258  0.0536
18231W        W38511   8.634  13.550   3.276  0.0340 -0.1899  0.0441
18232W        W38512  15.067   0.628  15.324  0.0611 -0.1188  0.2992
18233W        W38513  12.843  17.784   3.976  0.0068  0.2420  0.0335
18234W        W38514  14.905   8.350   1.185  0.0485  0.1297  0.1434
18235W        W38515  13.936   2.452   3.272 -0.0413 -0.0070  0.2149
18236W        W38516   8.732  10.132  15.412  0.0411 -0.1629 -0.1540
18237W        W38517  15.967  15.190   4.482 -0.0319  0.0113  0.0381
18238W        W38518  15.466  13.641  14.069 -0.0321 -0.0419  0.3491
18239W        W38519  13.409  11.942   3.150 -0.0706 -0.2438  0.1100
18240W        W38520   2.642   4.135  12.459  0.0822  0.0239 -0.2052
18241W        W38521   7.129   0.425  12.732  0.0962  0.1085  0.4201
18242W        W38522  14.420  17.915   2.898  0.0087  0.0373  0.0404
18243W        W38523  14.975  13.358   3.427  0.2818  0.0862  0.1153
18244W        W38524  17.401  17.398  16.461 -0.0660 -0.1084 -0.0224
18245W        W38525  11.423   8.862   2.734 -0.0794  0.1825  0.1476
18246W        W38526   3.818  12.329   6.209 -0.2017  0.0994 -0.1297
18247W        W38527  10.783  15.466  12.072 -0.1010 -0.1074  0.0890
18248W        W38528  14.603  14.482  15.226  0.0030  0.0214  0.0766
18249W        W38529  11.698   6.814  16.184  0.0194 -0.2695  0.0788
18250W        W38530  17.763   2.639  13.562  0.1342  0.2239 -0.1556
18251W        W38531   4.355   7.623  16.639 -0.0427 -0.0188  0.3112
18252W        W38532   9.460   8.968   2.280  0.0888  0.1823 -0.1165
18253W        W38533   1.561  17.913   3.543 -0.3104 -0.6857  0.1178
18254W        W38534   2.676  13.624  15.843  0.5145 -0.1639  0.0188
18255W        W38535  10.055  13.686  12.174 -0.0505  0.0588  0.1153
18256W        W38536   9.364   1.453   0.790 -0.1495  0.3748 -0.0457
18257W        W38537   0.274  16.798   2.838 -0.0682  0.0362 -0.1164
18258W        W38538   9.420   8.176   4.239 -0.1157 -0.2461  0.2306
18259W        W38539   0.530   9.590  16.235 -0.0364 -0.0964 -0.0405
18260W        W38540  14.804   3.724  12.754 -0.1184  0.1452 -0.0478
18261W        W38541   7.997   7.801   1.876 -0.0777  0.0566  0.0684
18262W        W38542   0.155   4.672  13.406  0.2503  0.5641  0.2138
18263W        W38543   9.591  17.255  15.955 -0.0375  0.1507 -0.2976
18264W        W38544   6.749   0.353  16.085 -0.0383 -0.4207 -0.4760
18265W        W38545   5.434  14.903   2.082  0.2071  0.0870 -0.1319
18266W        W38546   2.878  10.911   0.428  0.3426 -0.0133 -0.2340
18267W        W38547   4.135  15.626  14.493 -0.2762  0.3628 -0.0608
18268W        W38548   3.166  17.174  11.827  0.2131  0.0862  0.0856
18269W        W38549  15.553   5.336   3.420 -0.2843  0.0999  0.0850
18270W        W38550  16.180   3.478   0.570 -0.1381  0.1445  0.2865
18271W        W38551  15.885   6.535   2.212  0.1696 -0.3978 -0.0034
18272W        W38552   5.328  17.718  14.624  0.1518 -0.0162  0.0615
18273W        W38553   1.489   2.330   3.253 -0.0833  0.1292  0.0238
18274W        W38554  16.813  12.054  13.203 -0.0619 -0.0270  0.0227
18275W        W38555   4.577  13.073   0.972 -0.0436 -0.2496 -0.0133
18276W        W38556   6.215   1.960   4.606  0.0063 -0.3949 -0.2918
18277W        W38557   1.361   6.265  13.411  0.1463 -0.3225 -0.0344
18278W        W38558  11.567   0.894  14.658 -0.0091 -0.0986 -0.0091
18279W        W38559  17.150   5.877   5.999  0.0072 -0.2792  0.0101
18280W        W38560  17.864   8.359   1.485  0.0548 -0.0900 -0.0361
18281W        W38561  10.445  15.031  16.552  0.2817 -0.1667 -0.1917
18282W        W38562   4.051  13.539   4.002  0.2447  0.1528 -0.1323
18283W        W38563  15.476   3.642   4.646 -0.1478  0.2396  0.1463
18284W        W38564   5.214   3.393  14.780  0.1531  0.0603 -0.1736
18285W        W38565   3.981   4.046  12.744  0.3106 -0.0237 -0.0112
18286W        W38566   0.307   8.238   1.700  0.0208 -0.1974 -0.0625
18287W        W38567   2.242   9.170   0.820  0.1226  0.2685  0.0357
18288W        W38568   8.731  14.620  12.754  0.2256  0.1740 -0.0007
18289W        W38569  12.424   2.125  15.683  0.4440 -0.0342 -0.0721
18290W        W38570   3.273  11.497  13.211  0.2300  0.1077 -0.1728
18291W        W38571   6.424   8.386   3.903  0.1319 -0.0984  0.0831
18292W        W38572   5.101   7.821   3.179  0.0550  0.1813 -0.1108
18293W        W38573   3.956  10.639   0.569  0.1518  0.2403  0.4061
18294W        W38574  14.760   6.794  14.833 -0.1925  0.0003 -0.1827
18295W        W38575  11.016  14.153  15.798  0.0861 -0.1497  0.2651
18296W        W38576  14.286  17.410  13.396  0.0153  0.0174 -0.3786
18297W        W38577   2.562   9.236   4.513  0.4773 -0.0446  0.0463
18298W        W38578   4.299  11.845  16.477  0.2999  0.1507 -0.0670
18299W        W38579   0.449   2.429  14.845  0.0457  0.0830 -0.1323
18300W        W38580  16.025   5.324  15.021 -0.2980  0.0580  0.5175
18301W        W38581  16.373   4.314  14.119 -0.0359  0.0888  0.0670
18302W        W38582   2.981  16.496   3.708 -0.0164  0.2190 -0.2852
18303W        W38583   5.034   9.915   0.760 -0.1954  0.1086  0.1430
18304W        W38584  13.285   3.922  12.529 -0.0824 -0.2974 -0.0910
18305W        W38585   4.326   7.057   4.229  0.2617  0.0375 -0.0914
18306W        W38586   9.806  16.165   0.613 -0.0454  0.1600  0.1464
18307W        W38587  15.800  13.704  14.585  0.0373  0.3490 -0.2406
18308W        W38588   5.135   7.752  13.950  0.2179 -0.1701 -0.0705
18309W        W38589   9.107  14.489   1.272 -0.0225 -0.0346  0.2233
18310W        W38590   3.760  16.342   4.275 -0.0398 -0.0765  0.0732
18311W        W38591  14.142  11.584  11.912 -0.1887  0.1023 -0.2986
18312W        W38592   8.973  13.906   3.142  0.0560 -0.0863 -0.2179
18313W        W38593  15.772   5.034  14.159 -0.5456 -0.3315 -0.0252
18314W        W38594  17.541  15.530   3.606  0.0061 -0.1291  0.2870
18315W        W38595  14.047  16.245   0.754 -0.1834  0.0219  0.1378
18316W        W38596   1.475  17.746  12.182  0.0247 -0.1720 -0.1347
18317W        W38597  11.720   9.864  12.598  0.0495  0.3523  0.0927
18318W        W38598   2.273  11.673  12.219  0.2166 -0.5579 -0.1060
18319W        W38599   6.725  13.294  13.607 -0.1233  0.1223 -0.1201
18320W        W38600   4.604  14.460  16.313 -0.3408  0.0128 -0.0893
18321W        W38601  10.132  11.653  15.316 -0.1487  0.1231  0.0381
18322W        W38602   2.707   4.990   4.611  0.2607 -0.1394 -0.3699
18323W        W38603   5.280   4.709  16.623  0.0633 -0.2133  0.2058
18324W        W38604   2.788   3.431  12.444 -0.1806  0.3296 -0.0028
18325W        W38605   3.496   9.886  13.192 -0.0749  0.1109  0.1031
18326W        W38606   3.729   3.856  13.737  0.0753 -0.5738  0.4612
18327W        W38607  17.498  13.404  12.790 -0.1060  0.2510 -0.0221
18328W        W38608  16.826  15.729  15.152 -0.1832  0.2863  0.2738
18329W        W38609  15.849  15.351   2.316 -0.3293 -0.2565  0.2314
18330W        W38610  11.505  10.203   2.072  0.2307  0.1177  0.1277
18331W        W38611   2.631  15.195  13.510 -0.2838  0.0738 -0.0513
18332W        W38612  15.176  10.597   0.362 -0.1235 -0.0364  0.0445
18333W        W38613   0.052  17.854   3.799  0.1199 -0.2645  0.1940
18334W        W38614  13.543  13.396   2.678 -0.4111  0.1382  0.0530
18335W        W38615   4.615   8.305   0.515  0.0616  0.1020 -0.3385
18336W        W38616  13.139   9.227  15.044  0.3384  0.2241  0.2556
18337W        W38617  11.229  17.038  16.325 -0.0697  0.0448 -0.0224
18338W        W38618  10.060  16.055   1.843  0.1266  0.2441  0.0636
18339W        W38619  12.880  17.794  14.266 -0.0525  0.0600  0.1478
18340W        W38620  16.685   1.135  15.998 -0.1955 -0.0889 -0.2669
18341W        W38621  14.062   1.306  14.889  0.1100 -0.1355  0.1100
18342W        W38622   7.959   8.115  12.173 -0.0577 -0.2271 -0.0087
18343W        W38623   4.186   3.383  16.311  0.0106 -0.1123  0.1546
18344W        W38624   8.223  11.533  13.824 -0.1434 -0.0790 -0.0455
18345W        W38625  10.203   0.938   4.458 -0.4204  0.2568  0.1371
18346W        W38626   0.054  15.964  12.798 -0.0167  0.1533 -0.2366
18347W        W38627  12.008  14.961  14.176  0.0542  0.0075 -0.3908
18348W        W38628   0.961   3.052   3.665  0.1285 -0.0463 -0.6919
18349W        W38629  12.622  13.436   3.431  0.3022  0.1368  0.2022
18350W        W38630   9.810   0.214  12.617 -0.1409 -0.1599  0.1447
18351W        W38631   2.399  17.742  16.348 -0.0114 -0.1548 -0.1650
18352W        W38632   7.608   0.232   0.743 -0.0400 -0.1297  0.1405
18353W        W38633  11.695   5.704   3.179 -0.0815  0.2223 -0.0677
18354W        W38634  11.204  13.363   1.207 -0.0781 -0.0085 -0.0544
18355W        W38635   8.947  11.070   2.615  0.0067  0.2748 -0.1016
18356W        W38636  12.129   5.772   1.522 -0.0206  0.0116 -0.1818
18357W        W38637  11.972   6.256  13.567  0.0930 -0.0333 -0.0399
18358W        W38638   5.852  10.258  15.884  0.0568  0.0800  0.0891
18359W        W38639   3.861   2.115   1.214 -0.0109  0.0543 -0.1170
18360W        W38640  10.741   7.216   4.447 -0.0178 -0.3573 -0.0905
18361W        W38641   0.535  15.176   1.097 -0.0003  0.0472  0.1218
18362W        W38642   6.108   9.600   4.672  0.0204  0.0685 -0.2764
18363W        W38643  15.195  12.453   1.815  0.1218  0.2171  0.0659
18364W        W38644   6.848   0.350  11.673  0.0820 -0.1794 -0.3473
18365W        W38645  11.977   0.856   4.955 -0.1665 -0.2527 -0.0193
18366W        W38646  14.493   3.334  15.404  0.2455 -0.0533  0.2154
18367W        W38647  10.494  12.071   4.084  0.0373 -0.2231  0.1103
18368W        W38648   1.998   7.021   0.223 -0.0614  0.0067 -0.0833
18369W        W38649   6.681  16.269  15.723  0.4053 -0.1397 -0.3137
18370W        W38650  14.493  11.879  15.456  0.2289  0.1183 -0.1944
18371W        W38651  11.627  11.506   4.644  0.0788  0.3027  0.1338
18372W        W38652  12.842   3.000  15.847  0.0461  0.1084  0.0265
18373W        W38653  16.635   3.288  16.438 -0.0010  0.3270  0.0606
18374W        W38654  11.833   6.319   4.519  0.0640  0.0144  0.1166
18375W        W38655  17.384   8.898  12.875 -0.1582 -0.0241 -0.0997
18376W        W38656  16.644   7.536  14.312 -0.0318  0.3583  0.1590
18377W        W38657  14.714  10.855  14.211  0.2941 -0.0427 -0.2245
18378W        W38658   9.441  16.834   1.132 -0.0446  0.1456  0.1648
18379W        W38659   1.588  13.483   1.597  0.1940 -0.3225  0.1607
18380W        W38660  16.440  10.253  13.674 -0.2624 -0.3405 -0.1924
18381W        W38661  17.119  13.928  12.219  0.1182  0.0110  0.0711
18382W        W38662  15.278  11.590   1.470 -0.1364 -0.0150  0.0218
18383W        W38663  12.195   6.586   3.023  0.2517 -0.0426  0.1807
18384W        W38664   8.762   7.921   0.770  0.1656  0.1071  0.1668
18385W        W38665  15.771  11.727  12.866 -0.1215  0.2056 -0.0270
18386W        W38666   7.968  16.545   0.552  0.2296  0.0156  0.2864
18387W        W38667   4.143   4.918  12.438  0.1094 -0.3880 -0.1791
18388W        W38668  13.038   0.223  14.569 -0.0505  0.0276  0.1327
18389W        W38669  14.326   1.864   3.855  0.2694  0.2724 -0.0306
18390W        W38670   8.304   2.484   4.585 -0.1029 -0.0833  0.0187
18391W        W38671  11.029  10.651   0.249  0.1935  0.3109 -0.2462
18392W        W38672   6.546   6.368   0.958  0.0771  0.2073 -0.0311
18393W        W38673  13.698  15.272  14.201 -0.0995  0.2923 -0.0421
18394W        W38674   9.091  17.170  13.257  0.0422 -0.0640  0.0707
18395W        W38675  10.054  10.405   1.940 -0.0903  0.1081 -0.1078
18396W        W38676  10.082  10.621  15.787  0.0846  0.0380 -0.2563
18397W        W38677  14.286   9.692   0.632 -0.2316  0.0297 -0.2788
18398W        W38678  15.254  14.060  14.240  0.0277  0.2092  0.2192
18399W        W38679  16.200   7.755   0.764 -0.2276  0.2236  0.2699
18400W        W38680  17.785   8.947  13.945  0.0198  0.2594  0.4958
18401W        W38681  13.203   6.333   1.699 -0.1088 -0.0145  0.2502
18402W        W38682  16.594   1.975  14.796  0.2104  0.0689  0.4678
18403W        W38683   9.743  15.695   0.511 -0.0232  0.1796 -0.2222
18404W        W38684   9.673   5.689   4.321  0.3186 -0.2055 -0.1586
18405W        W38685  15.793   0.155  14.985 -0.0069  0.1370  0.0113
18406W        W38686  12.358   9.455  14.610 -0.0221  0.1743  0.5390
18407W        W38687  10.951   6.453   4.930  0.0007  0.1810 -0.0234
18408W        W38688   9.292  13.591  13.199 -0.1047 -0.0021  0.3483
18409W        W38689  16.856   9.100   1.049 -0.0052  0.2057  0.0337
18410W        W38690  14.896   8.989   2.144  0.4704 -0.3403 -0.0143
18411W        W38691   9.445  12.978   1.618  0.1165 -0.3380  0.0532
18412W        W38692  12.071   5.104  14.156  0.1087 -0.0769 -0.1881
18413W        W38693   6.387   4.382   2.202 -0.1239 -0.1806 -0.1463
18414W        W38694   9.648   7.907   3.733  0.1597  0.0986 -0.2237
18415W        W38695  16.620   6.875   4.582  0.0126  0.1694  0.0403
18416W        W38696   5.823   8.165   3.091  0.0539  0.2992  0.2183
18417W        W38697   9.079   8.762  14.442 -0.2531 -0.3234  0.1396
18418W        W38698   9.718   1.620  13.147 -0.2137  0.1748 -0.0785
18419W        W38699   7.606   7.349   4.105  0.1923 -0.1714 -0.5913
18420W        W38700   5.822   1.611  14.861 -0.0012  0.1196  0.1571
18421W        W38701  12.083   3.129   3.001  0.0933 -0.0015  0.1137
18422W        W38702   9.088  14.311  13.992  0.2507  0.1813  0.0362
18423W        W38703   8.636  15.904   3.448 -0.1955 -0.0571  0.0094
18424W        W38704  15.780   2.521   3.522 -0.0058  0.1404  0.3732
18425W        W38705   0.910   2.198   1.011 -0.0413 -0.1165 -0.0833
18426W        W38706   9.709  16.243  13.320  0.0588 -0.0566 -0.0380
18427W        W38707   5.877   5.245  13.132  0.0266 -0.1690  0.1285
18428W        W38708   6.927   3.774  16.351 -0.1180  0.0094 -0.1823
18429W        W38709  10.183   9.511  15.405 -0.1300  0.2621 -0.2415
18430W        W38710   9.166  14.120   0.175  0.3853  0.1695 -0.1624
18431W        W38711  17.212   9.910  13.201 -0.0928 -0.0443 -0.1115
18432W        W38712   5.655  10.031  13.317 -0.3068 -0.0065 -0.0813
18433W        W38713   1.160  10.790   6.200 -0.2162 -0.2236 -0.0600
18434W        W38714   5.822  13.843   1.146 -0.2376 -0.0687 -0.1859
18435W        W38715   5.142   1.968  16.605  0.2205  0.3410  0.4280
18436W        W38716   2.644  13.746   3.792  0.1832 -0.0295  0.2357
18437W        W38717   3.239   8.929  12.212  0.0464 -0.1015  0.0645
18438W        W38718   4.540  11.232   1.046  0.2183  0.4662 -0.1659
18439W        W38719  11.205   9.493   3.672 -0.2200 -0.0783 -0.1606
18440W        W38720   5.148   9.846   0.151  0.0182  0.0798 -0.0204
18441W        W38721   0.721  10.843   1.320  0.1228 -0.0643  0.2814
18442W        W38722   2.436  16.859   1.664 -0.0953 -0.0807 -0.0917
18443W        W38723  10.203   3.376  14.697 -0.0192  0.2358 -0.1378
18444W        W38724   9.199  15.093   3.331 -0.2206  0.0350  0.0881
18445W        W38725   7.383   2.415  15.511 -0.0507  0.2249 -0.0689
18446W        W38726  12.576  13.074   1.463 -0.1099  0.1071 -0.2610
18447W        W38727   8.404   5.469   1.630 -0.0781 -0.2067 -0.0966
18448W        W38728  13.814   3.326   3.647  0.3520 -0.1084 -0.0688
18449W        W38729  16.541  12.478   0.067 -0.0646 -0.1174  0.1491
18450W        W38730  15.060   5.158  16.320  0.1152 -0.1269  0.0350
18451W        W38731   9.350   3.585   0.732  0.1744  0.0972 -0.0989
18452W        W38732   7.179   6.651  16.104  0.0835 -0.0606  0.0257
18453W        W38733   4.227   6.516  14.981 -0.1194 -0.1284 -0.0761
18454W        W38734  16.570  14.830  16.106  0.0922 -0.0878 -0.0068
18455W        W38735  17.867  16.772  12.977  0.0042 -0.3018  0.2702
18456W        W38736  15.071   9.838  12.266 -0.0718 -0.1020 -0.2999
18457W        W38737  16.316  11.172   4.297 -0.5085 -0.0856 -0.1440
18458W        W38738   7.346   8.629   1.561  0.1905 -0.1488 -0.0658
18459W        W38739   9.397   2.031   2.403 -0.1348 -0.1097  0.1318
18460W        W38740   7.644   5.895  12.324  0.1456  0.1879 -0.2378
18461W        W38741   3.849   6.546  14.577 -0.5649 -0.3387  0.1729
18462W        W38742   5.784  16.630  16.226 -0.1046  0.2504  0.1871
18463W        W38743   2.039  10.042   1.584  0.1136  0.1561 -0.1000
18464W        W38744  11.433  10.006  14.712 -0.3576 -0.1520 -0.1204
18465W        W38745   3.937   6.718  15.954 -0.2743 -0.2847  0.2193
18466W        W38746  14.345  14.564   2.736  0.0946 -0.0864 -0.0508
18467W        W38747   9.524  10.176  14.498 -0.1388  0.1073 -0.2263
18468W        W38748  10.483   0.594   0.205 -0.0657 -0.0594 -0.0318
18469W        W38749  12.098   0.811   0.788  0.0741  0.1319 -0.3225
18470W        W38750  14.265   1.576  11.899  0.0943  0.1301  0.0795
18471W        W38751   7.116  13.289  15.675  0.0643 -0.1347  0.0331
18472W        W38752   1.226  17.688  13.276  0.0559 -0.1149 -0.5070
18473W        W38753  16.950   8.020  15.830 -0.2689  0.1173  0.2497
18474W        W38754  14.168  15.161   0.121  0.0599  0.1619  0.1412
18475W        W38755   5.652   9.812  15.823  0.3291 -0.1354 -0.1889
18476W        W38756   0.813   4.335  15.142 -0.0117 -0.0335 -0.2137
18477W        W38757   5.198   7.806   0.038  0.1731 -0.4123 -0.4991
18478W        W38758   8.485   6.288  13.742 -0.1114  0.0608 -0.2567
18479W        W38759   6.802   9.090   1.023  0.1729 -0.1860 -0.1232
18480W        W38760   4.815  13.882   4.060 -0.2693 -0.2312 -0.0150
18481W        W38761   9.900   2.873  11.081 -0.1356 -0.0799 -0.2181
18482W        W38762   3.161   9.562  13.372 -0.1782  0.0657  0.1850
18483W        W38763  16.372   8.493   1.238  0.0625  0.0223 -0.0074
18484W        W38764   5.804   3.368   0.619  0.0348  0.0287  0.0596
18485W        W38765   0.522   3.345   3.669  0.1373  0.0673  0.0455
18486W        W38766  17.508   9.056  14.782 -0.0813  0.2252 -0.1049
18487W        W38767   4.010  13.723  15.196 -0.3396 -0.3776  0.1143
18488W        W38768   7.485   3.825  13.788 -0.1472  0.0618 -0.4653
18489W        W38769  17.661  11.100  12.069  0.2562 -0.0856  0.3820
18490W        W38770  15.008   5.447   0.457 -0.5582 -0.1876 -0.3725
18491W        W38771  14.557   4.602   3.936 -0.2836  0.1011 -0.2440
18492W        W38772  13.335  14.876  14.225  0.2334 -0.1830 -0.1090
18493W        W38773  12.997   8.614  12.256 -0.0944  0.0084  0.1714
18494W        W38774   7.555  15.186   1.823 -0.1492  0.0277 -0.0476
18495W        W38775  15.024   3.986   4.396  0.1648  0.0712  0.0404
18496W        W38776  17.888   8.640  14.940 -0.0374 -0.2712  0.0892
18497W        W38777  12.030  10.753  15.089 -0.1208  0.0227 -0.1500
18498W        W38778   4.847   0.090   0.122  0.1229 -0.2184  0.0400
18499W        W38779   1.185   6.105  13.910 -0.0178  0.0836 -0.0658
18500W        W38780  15.699   0.688   3.008 -0.0957 -0.3527  0.1722
18501W        W38781  11.239   1.436   3.874 -0.1239  0.1641  0.0241
18502W        W38782  12.350   3.838   0.363  0.1768  0.3456  0.1014
18503W        W38783   8.126  16.666  14.732 -0.0467  0.0852 -0.1295
18504W        W38784  15.969  13.782  14.071 -0.0354  0.1318 -0.0724
18505W        W38785   9.892   4.964  14.738  0.0103  0.3962  0.1328
18506W        W38786   0.037   2.442  15.107  0.1335  0.2325 -0.2062
18507W        W38787  13.162  17.058  12.771 -0.1072 -0.2384  0.0342
18508W        W38788  14.212   3.415   0.545 -0.5845 -0.1278  0.0658
18509W        W38789  17.505  11.899   4.544  0.0835  0.1695 -0.1672
18510W        W38790   5.783   0.515   1.199  0.2715  0.1637 -0.2166
18511W        W38791  12.145  11.714   1.434 -0.2633 -0.2015  0.0816
18512W        W38792  12.571  10.332  12.575  0.0751  0.1191 -0.0898
18513W        W38793  16.153  11.704   1.021 -0.1548 -0.1135 -0.2883
18514W        W38794  10.832   4.590   3.130  0.0126 -0.0228 -0.1961
18515W        W38795   7.908   2.034  12.989 -0.0707 -0.3170  0.1528
18516W        W38796   9.446  13.759   4.011 -0.0538 -0.2539 -0.0007
18517W        W38797   9.563  11.311   0.694  0.1521 -0.1436  0.2493
18518W        W38798  16.740   2.418  13.915 -0.0359 -0.0090 -0.0390
18519W        W38799   7.499   8.633   1.059  0.2645  0.2246  0.3940
18520W        W38800   7.944   2.307   4.853  0.0480  0.1541  0.2074
18521W        W38801   9.612  11.124  13.054  0.2154 -0.0797  0.2270
18522W        W38802   9.502   0.359   0.209 -0.1111  0.1284 -0.2998
18523W        W38803  15.170   2.181  11.771 -0.0955 -0.3572 -0.3878
18524W        W38804  13.732   8.821   4.597  0.1039  0.0690 -0.0703
18525W        W38805   1.649  11.003  16.442 -0.3617 -0.2167  0.0042
18526W        W38806   9.986  15.904  12.371  0.2796  0.1185 -0.0330
18527W        W38807  11.582  10.367  12.487 -0.0861 -0.1505  0.0279
18528W        W38808   0.028  14.595  15.942  0.2021 -0.1988 -0.1690
18529W        W38809   7.043   4.299  12.033 -0.1742 -0.1938 -0.1229
18530W        W38810   4.140   5.236   4.847 -0.0078  0.1821 -0.0672
18531W        W38811   8.575  16.635   2.854  0.3511 -0.2339  0.0463
18532W        W38812   4.666   0.805  16.436  0.1100 -0.2714  0.0531
18533W        W38813   9.569   7.115   3.029  0.1917 -0.1003  0.1090
18534W        W38814   2.246   7.730  13.264 -0.0077 -0.1541  0.2075
18535W        W38815  12.936   0.951  15.896  0.0581  0.0090  0.2105
18536W        W38816  15.218  15.499  12.302  0.0146  0.0854  0.1151
18537W        W38817   4.685  11.084  12.295 -0.2740 -0.3700 -0.0722
18538W        W38818  15.319  10.712  12.269 -0.0979 -0.0029 -0.0731
18539W        W38819   3.238   3.117   4.991 -0.0244  0.1740  0.1326
18540W        W38820   9.156  17.649   1.424 -0.0645 -0.1361 -0.1265
18541W        W38821   7.076   8.404  14.942  0.3887  0.1115  0.0560
18542W        W38822  12.966   8.422   0.914 -0.2458 -0.1482 -0.2404
18543W        W38823   7.375   3.858  16.064  0.3348 -0.3129 -0.1800
18544W        W38824   4.198  10.053  13.364  0.0481  0.0234  0.1321
18545W        W38825   4.693   3.335   3.889 -0.0750  0.0789  0.2552
18546W        W38826  17.491   4.832  12.065  0.2343 -0.0953 -0.0041
18547W        W38827   5.274  12.383  12.694  0.1978 -0.1144  0.4366
18548W        W38828   7.951   7.874   1.260  0.3946 -0.0632  0.2626
18549W        W38829  14.803  14.261  14.300  0.0319 -0.0348  0.0163
18550W        W38830  16.930   6.990   0.278 -0.2290  0.0864  0.0478
18551W        W38831  13.591  16.123  12.355  0.3188 -0.1941 -0.1581
18552W        W38832  17.244  15.410   1.421 -0.2602 -0.1617  0.1148
18553W        W38833  14.152   9.929   3.881  0.0135  0.0584 -0.1838
18554W        W38834   7.606   8.286  15.057 -0.1503  0.1586 -0.1218
18555W        W38835   2.964   9.772   1.169  0.0165  0.1305  0.0923
18556W        W38836   5.399   7.958   3.888 -0.1675 -0.3368 -0.0515
18557W        W38837   5.730   7.888   4.239  0.2576 -0.1283  0.1835
18558W        W38838  17.034  12.376  13.607 -0.2606 -0.1229 -0.0035
18559W        W38839   7.844  10.323   3.834  0.0135 -0.2146 -0.2147
18560W        W38840   7.430   2.517   1.073 -0.1756  0.1629 -0.1016
18561W        W38841   2.741   2.848   4.131  0.2300 -0.2164 -0.1825
18562W        W38842  11.875  12.037   1.803  0.0607  0.3384 -0.5056
18563W        W38843  11.271  12.331  15.413  0.1626  0.2439 -0.1759
18564W        W38844  17.202   6.589  16.424  0.1088  0.1332  0.0541
18565W        W38845   2.606   4.988   1.485  0.2127 -0.1190 -0.0733
18566W        W38846   6.393  13.866  14.643  0.1112  0.3646  0.0585
18567W        W38847   9.887   4.900   4.681  0.2244  0.1371  0.2166
18568W        W38848  16.568   2.553  14.507 -0.1164  0.2024 -0.0366
18569W        W38849   9.785  13.577   2.286 -0.1223 -0.1820  0.4979
18570W        W38850   2.070   6.855   3.017  0.1113  0.1302  0.3244
18571W        W38851  13.503  14.302  14.966 -0.2729 -0.1522  0.1822
18572W        W38852  14.442  10.936   4.205 -0.0453 -0.0393  0.0218
18573W        W38853   2.563   6.078   1.894  0.0119 -0.3445  0.1425
18574W        W38854  10.956  13.493  15.762 -0.0122 -0.0512  0.0607
18575W        W38855   7.845   3.719  11.784  0.0315 -0.1127 -0.1459
18576W        W38856   6.135   4.696  16.192 -0.0797  0.2513 -0.1743
18577W        W38857   6.372   7.626  16.403  0.4544 -0.1094  0.2134
18578W        W38858  17.297   2.139  14.372  0.0032  0.2710 -0.1475
18579W        W38859  15.422  11.921   0.566 -0.0543  0.0428  0.2332
18580W        W38860   5.297  17.292   2.356  0.0262 -0.0481  0.2104
18581W        W38861  17.264  10.065  15.467 -0.2572  0.0965  0.0325
18582W        W38862   3.434   2.855  15.537 -0.1173 -0.0903 -0.3847
18583W        W38863  14.323   7.135  14.665 -0.1335 -0.0505  0.2973
18584W        W38864  16.403   7.471  15.570  0.1874  0.0414 -0.1693
18585W        W38865  15.726   2.668  11.723  0.0591 -0.2489 -0.1470
18586W        W38866   1.932  15.228  15.798  0.3782 -0.1004  0.4790
18587W        W38867  10.686   8.420  14.650 -0.0951  0.1140 -0.0301
18588W        W38868  15.769  14.005   0.437  0.0369 -0.1200 -0.0734
18589W        W38869   3.393  10.928   3.389  0.0865  0.0981  0.0896
18590W        W38870  15.927   0.149   2.361  0.1161 -0.1361 -0.2491
18591W        W38871   4.739  17.851  13.545  0.0470  0.1675 -0.1882
18592W        W38872   0.432   2.104   0.835 -0.1315 -0.1687  0.1820
18593W        W38873   8.587   6.135  14.910  0.2638  0.1042  0.0285
18594W        W38874  16.997   1.527   3.336 -0.1828 -0.0001  0.0796
18595W        W38875  17.149   4.883  14.848 -0.2549 -0.2690 -0.1069
18596W        W38876   9.014  13.111  15.100  0.1022 -0.1064  0.0996
18597W        W38877  12.058   5.077  15.700  0.2875  0.2457  0.1306
18598W        W38878  11.065  17.227   4.346 -0.1480 -0.0030 -0.1164
18599W        W38879   7.027  10.778   0.787  0.2876 -0.3678  0.0010
18600W        W38880   9.353   7.353   0.750 -0.0846 -0.1064  0.1940
18601W        W38881   4.443   0.436   0.112  0.1698 -0.2485  0.0808
18602W        W38882  17.491   8.507  16.418 -0.0143  0.0341 -0.0196
18603W        W38883  10.671   6.094  11.862 -0.1727 -0.1261  0.2141
18604W        W38884   9.078   4.849   1.946  0.2303  0.0806 -0.3606
18605W        W38885  15.490  15.193   2.606 -0.0558  0.4686  0.1076
18606W        W38886  13.024  16.566  12.633 -0.1793  0.0148 -0.2730
18607W        W38887   0.747   3.849   3.792 -0.1263  0.0800 -0.1206
18608W        W38888  14.344  17.516   1.497 -0.0486  0.1175  0.1101
18609W        W38889   9.359   2.032  13.897 -0.0150 -0.0482  0.0617
18610W        W38890  10.889  13.189   2.134  0.4449 -0.2131 -0.1470
18611W        W38891  15.318   3.380   0.895  0.1015 -0.3383 -0.1962
18612W        W38892   4.315   6.193  13.839 -0.1998  0.1434  0.0408
18613W        W38893   6.661  12.054  12.461  0.0139 -0.3742  0.0259
18614W        W38894   3.812   2.944   2.659  0.0180  0.0206  0.0463
18615W        W38895   4.418   0.433  12.145 -0.0296  0.2218 -0.0452
18616W        W38896   2.313  12.170   5.279 -0.1570  0.1037  0.1234
18617W        W38897   0.804   3.888  14.870  0.0620  0.0087 -0.1777
18618W        W38898  10.528  10.042  13.267 -0.1505 -0.1064  0.4586
18619W        W38899   7.587  10.678  15.708 -0.1024 -0.1626 -0.0262
18620W        W38900  16.119  17.006   0.906  0.0887  0.1428  0.0042
18621W        W38901   3.021  14.727   1.757 -0.5205 -0.0788  0.0134
18622W        W38902   3.772   8.532  15.438  0.2066 -0.1367  0.0090
18623W        W38903   1.051   8.863  13.492  0.0122  0.1523  0.1234
18624W        W38904  16.839  17.053   0.851  0.2536  0.1955 -0.1142
18625W        W38905   9.977  16.375  14.410  0.2905  0.1982 -0.0649
18626W        W38906  15.843  12.102  14.855 -0.2627 -0.2597  0.1437
18627W        W38907   3.756   7.272  15.327  0.0045 -0.2703  0.0243
18628W        W38908  11.789  15.448  14.985  0.0627  0.0203 -0.2126
18629W        W38909   5.403   0.228   1.375 -0.3141  0.2544  0.0655
18630W        W38910  16.850  17.621   1.107 -0.1500 -0.1552  0.0770
18631W        W38911  15.778  13.966   5.173  0.2420 -0.1459  0.0279
18632W        W38912   7.660   8.273  12.542 -0.0393 -0.3094 -0.0654
18633W        W38913  15.521   6.371   3.624  0.0333  0.0017  0.2875
18634W        W38914  13.305  13.607  13.274 -0.0429  0.2488  0.0481
18635W        W38915   9.290   8.256  16.291  0.0802  0.0443  0.3757
18636W        W38916   7.296  16.601  11.943 -0.0919  0.0833 -0.1795
18637W        W38917   4.563  10.875   1.403 -0.1768  0.0910  0.1047
18638W        W38918  10.527  10.311  15.939  0.3525 -0.1754 -0.1070
18639W        W38919   6.981   2.498  13.711 -0.2078  0.1670 -0.0857
18640W        W38920   2.397   6.556   0.987 -0.0032 -0.4650  0.1087
18641W        W38921  17.201   2.994   0.730  0.3615  0.1036 -0.2035
18642W        W38922  12.024  10.967  12.399  0.0442  0.1506  0.0851
18643W        W38923   3.307  16.023  16.504  0.0263  0.2426  0.2039
18644W        W38924  14.036   8.737  16.184  0.1597 -0.0424 -0.0159
18645W        W38925   2.613   1.037   3.413 -0.0100 -0.0029 -0.0290
18646W        W38926   2.192  14.215   0.281 -0.0703  0.0011  0.0093
18647W        W38927   2.750   9.077  13.429  0.1710  0.1065  0.0860
18648W        W38928   7.546  11.493   0.772  0.0117  0.3695  0.0385
18649W        W38929  17.217  11.560   4.764 -0.1743  0.3434  0.1526
18650W        W38930  10.015  10.391  12.623 -0.1163  0.0119  0.0111
18651W        W38931   7.426  13.027  15.360  0.1231  0.1155  0.1445
18652W        W38932  17.392   7.911   2.219  0.0899  0.0087  0.3222
18653W        W38933   3.101   6.847   3.088 -0.0522  0.4125 -0.1150
18654W        W38934  16.308  11.810  13.805  0.1560 -0.0722  0.2558
18655W        W38935   1.312   3.693  16.465  0.1364  0.2457 -0.2734
18656W        W38936   4.461  16.212   1.052 -0.2552 -0.0581  0.1255
18657W        W38937  16.374   5.064   3.265 -0.2813 -0.1481  0.0202
18658W        W38938   0.035   0.664  12.983 -0.1152 -0.0192 -0.0278
18659W        W38939   9.884  16.347  12.584 -0.2278  0.3227  0.1449
18660W        W38940  14.528  11.776   0.621 -0.0002 -0.1267  0.2369
18661W        W38941  11.833   5.037   3.101  0.1035  0.2790  0.3803
18662W        W38942   2.050  13.694  12.291 -0.3376  0.0579  0.3423
18663W        W38943   3.770   7.231   4.334 -0.3384  0.4291 -0.3066
18664W        W38944  15.872  10.345   4.723 -0.0536 -0.2615  0.1401
18665W        W38945  13.038   4.745  14.853 -0.0270 -0.0180 -0.2106
18666W        W38946  17.413   4.760   3.066 -0.2153  0.4543 -0.1667
18667W        W38947  14.105   6.451  15.929  0.0364  0.1648  0.0896
18668W        W38948  10.071   5.753   0.074  0.1194  0.1450 -0.0406
18669W        W38949  16.628  11.467   0.579  0.0815  0.0026 -0.0086
18670W        W38950  14.343  12.081  15.937 -0.1461  0.0228 -0.0755
18671W        W38951   9.254   1.658  13.323  0.3349  0.0510 -0.1787
18672W        W38952   6.919   7.267   0.640  0.3347 -0.0759  0.2412
18673W        W38953   1.535   6.131  16.467 -0.0200 -0.1503 -0.5032
18674W        W38954  17.446  12.660  15.361 -0.0013 -0.0341 -0.0448
18675W        W38955  17.320  10.812   3.091 -0.0355 -0.0900 -0.1759
18676W        W38956   3.547  13.349   1.153 -0.0621 -0.0657 -0.1991
18677W        W38957  10.883  16.758   4.334 -0.1057  0.0121  0.0119
18678W        W38958  11.749  12.471   1.648  0.2864 -0.1380  0.0471
18679W        W38959  17.477  15.562  14.077  0.2398  0.1133 -0.1311
18680W        W38960   9.462   4.714   3.204 -0.0567 -0.1021 -0.1592
18681W        W38961  12.898  11.081  14.536 -0.0587 -0.1849 -0.2392
18682W        W38962  17.732  13.103  15.485  0.0847 -0.0966  0.1378
18683W        W38963   8.868  13.336  16.533 -0.3488 -0.1005 -0.1916
18684W        W38964  13.171  14.917  13.390 -0.0198 -0.1692  0.0734
18685W        W38965   1.337  11.307   1.977  0.1451  0.0186  0.1691
18686W        W38966   5.660  12.522   3.191  0.0983 -0.0916  0.2602
18687W        W38967   9.353   8.032   2.715 -0.1069  0.1130  0.0172
18688W        W38968   2.035   0.041  15.883 -0.3013 -0.0726 -0.5418
18689W        W38969  17.495  17.814   2.930 -0.1501  0.1161  0.0790
18690W        W38970   5.200  17.503   4.747 -0.2575 -0.1663 -0.1342
18691W        W38971   3.069   0.863  15.637  0.4160  0.2148 -0.2981
18692W        W38972  10.419  15.151  13.492 -0.1800  0.0264 -0.1402
18693W        W38973   4.437  17.289  13.668 -0.0997  0.1034 -0.1342
18694W        W38974   7.276   1.323  13.087  0.0369  0.0936 -0.0735
18695W        W38975  16.936  13.532   1.163  0.0077  0.2423 -0.2900
18696W        W38976  15.334   9.385  12.360 -0.1479  0.1553  0.0755
18697W        W38977  16.564   0.131   4.517 -0.0802 -0.0601  0.0110
18698W        W38978   6.091   3.731   0.815 -0.0421  0.0368 -0.0869
18699W        W38979  13.886   9.323  13.066 -0.2212 -0.1714 -0.0186
18700W        W38980   1.548   3.251   1.005 -0.0121 -0.1472  0.0110
18701W        W38981  12.718   4.882  12.097  0.2404  0.0477  0.1424
18702W        W38982  16.786   9.991  12.183 -0.1475 -0.0113  0.0493
18703W        W38983   8.868   5.698  14.913 -0.0536 -0.2370  0.1164
18704W        W38984  12.257  13.411  14.768  0.1897  0.2588 -0.1082
18705W        W38985   8.665   7.738  12.132 -0.0066 -0.1705  0.1366
18706W        W38986   5.048   6.910   1.139  0.0743 -0.1251 -0.1643
18707W        W38987  15.165   1.436  13.006  0.0262 -0.2857  0.2335
18708W        W38988   9.758  11.298   4.790  0.0625 -0.2484 -0.0519
18709W        W38989  13.943   2.566   2.294 -0.1511  0.0483  0.0361
18710W        W38990  14.959   3.902   1.579  0.0640 -0.1106  0.0806
18711W        W38991  14.834  17.115  16.228 -0.3170 -0.0543 -0.0495
18712W        W38992  12.040  15.400   4.072  0.1076  0.0487  0.4578
18713W        W38993   1.014  12.985  15.959 -0.1390 -0.0151  0.1566
18714W        W38994  16.624  17.139   4.702  0.2190 -0.1021 -0.1106
18715W        W38995  10.729  11.226   2.774  0.2221 -0.1254 -0.1498
18716W        W38996   6.870  14.517   2.916 -0.2105  0.0614  0.2306
18717W        W38997   4.274   2.192   0.985 -0.0006  0.3019  0.1014
18718W        W38998  14.127   8.109  12.285 -0.0751  0.0603 -0.0143
18719W        W38999   2.557  17.932   4.405  0.0127 -0.0595  0.1569
18720W        W39000  15.776   8.014  13.087 -0.0874  0.1258 -0.3233
18721W        W39001  11.275   4.606  13.192 -0.3416  0.1237  0.1654
18722W        W39002   6.547  17.646   2.767 -0.2125 -0.1978  0.0014
18723W        W39003  14.556   9.977   4.210  0.1585  0.1420  0.0731
18724W        W39004  17.633   4.305   5.028  0.0334  0.2573 -0.0698
18725W        W39005   7.443   3.465   0.915 -0.0150 -0.0001  0.3042
18726W        W39006   8.321  13.795  11.174  0.0437 -0.2168 -0.3591
18727W        W39007  17.160  14.258   0.090 -0.3389  0.2257  0.0272
18728W        W39008  11.474  11.075   0.288 -0.0373 -0.1118 -0.0698
18729W        W39009   9.361  10.928  16.515 -0.2773  0.1314 -0.1424
18730W        W39010   5.533  10.759   0.940 -0.0317 -0.0745 -0.1513
18731W        W39011  12.550   9.772   3.558  0.1197 -0.0256 -0.6012
18732W        W39012   4.934  10.236   1.656  0.1741  0.1128  0.0228
18733W        W39013   1.424   0.883   3.588  0.0661  0.1506 -0.1393
18734W        W39014   8.121  16.401   1.365 -0.2762 -0.2643 -0.2982
18735W        W39015   6.519   3.798   2.289  0.1565 -0.1942 -0.0024
18736W        W39016   5.417   1.911   2.737 -0.1897  0.0325 -0.2078
18737W        W39017   2.290  17.441   0.529  0.0386 -0.0749  0.3158
18738W        W39018   0.576  10.751  12.420 -0.1729 -0.1859  0.0111
18739W        W39019  13.002   1.923   3.032 -0.2057  0.2806 -0.0709
18740W        W39020   0.887  13.696   1.540 -0.0099 -0.0878 -0.1424
18741W        W39021   0.251  11.648  13.572 -0.1162 -0.1369  0.0407
18742W        W39022   1.697   7.640  15.858 -0.0899 -0.2865  0.1074
18743W        W39023   1.425   2.230   2.667 -0.3244 -0.1798 -0.1383
18744W        W39024  14.880   4.430   3.621 -0.0839  0.0246  0.0255
18745W        W39025   1.721   7.997   0.548  0.0930 -0.0914 -0.0036
18746W        W39026  15.996  15.304  15.303  0.1020  0.0885  0.0860
18747W        W39027   3.747  13.226   5.215 -0.1012  0.1320  0.0403
18748W        W39028  10.882  17.253  14.149 -0.2661  0.0396 -0.1206
18749W        W39029   4.265  11.824   4.404  0.2222  0.2057 -0.0156
18750W        W39030   0.456  15.735  12.517 -0.1102 -0.2288 -0.1945
18751W        W39031   5.477   2.367  15.960  0.1122 -0.0615  0.3330
18752W        W39032   7.881   0.377   2.582 -0.1333 -0.0521 -0.0521
18753W        W39033  17.522   1.976  13.829  0.0077 -0.1086 -0.1595
18754W        W39034  14.388   4.586  14.674 -0.2698  0.1385 -0.2828
18755W        W39035  14.178   4.701   2.991 -0.0328 -0.0443  0.5518
18756W        W39036   5.903   0.943   1.874 -0.0575 -0.1187 -0.2692
18757W        W39037   1.682   7.492  13.344 -0.1289  0.1721  0.3779
18758W        W39038   8.915   1.827   2.262  0.1206 -0.0044  0.4260
18759W        W39039  12.267   9.469  15.531  0.1780  0.2808 -0.0921
18760W        W39040  17.180  11.122  12.819 -0.0160  0.0063  0.1351
18761W        W39041   0.566   9.263  14.874  0.0186 -0.1072  0.1377
18762W        W39042  10.081  11.933  12.975  0.2020 -0.3053  0.1394
18763W        W39043   5.563   9.596  13.782  0.1389  0.1760 -0.0629
18764W        W39044  14.897   3.953  15.955 -0.0220  0.0119 -0.1119
18765W        W39045   6.580   4.094  13.584 -0.1375  0.1123  0.0726
18766W        W39046  12.891   8.253   4.439 -0.1166  0.1854  0.0003
18767W        W39047   3.418  13.613   0.360  0.3616 -0.2016 -0.0719
18768W        W39048  11.154   3.722   4.567  0.2559 -0.0564 -0.1061
18769W        W39049   2.157  17.173  14.215 -0.1683  0.1006  0.0244
18770W        W39050   3.184  10.458  14.452 -0.0863  0.2872  0.3696
18771W        W39051  12.831   6.178  16.579  0.1258  0.0004 -0.1972
18772W        W39052   2.014   7.285   4.093 -0.2250  0.2411 -0.2403
18773W        W39053  11.870   8.936  15.631  0.0620  0.2117  0.0740
18774W        W39054  17.645   3.157  14.555  0.1111  0.3778  0.0050
18775W        W39055  14.913   4.136  13.061  0.0166 -0.1072  0.1004
18776W        W39056   9.091   6.994  15.849  0.1016 -0.0914  0.2081
18777W        W39057   2.109   1.715   2.237  0.1465  0.0459 -0.0687
18778W        W39058   7.525   1.483  12.289  0.2216  0.0502  0.3181
18779W        W39059   3.216   2.397  16.195 -0.0411  0.5190 -0.2932
18780W        W39060   6.280  16.362  13.609 -0.0055  0.0752 -0.0551
18781W        W39061  10.861  15.903  11.801 -0.0068  0.1621 -0.0649
18782W        W39062   9.455  17.225   4.738 -0.0103  0.0757  0.3719
18783W        W39063   5.305  12.515  13.662 -0.2238  0.1211  0.1213
18784W        W39064   4.199   2.578  12.206  0.0798  0.1536  0.0508
18785W        W39065  15.136   4.984   2.563  0.0863  0.0328  0.0354
18786W        W39066  12.715   3.272  14.306  0.0004 -0.2084 -0.0893
18787W        W39067   6.140   4.612   3.058  0.1297  0.3110 -0.0521
18788W        W39068  12.312  13.707   2.733  0.4117  0.0811  0.1925
18789W        W39069   6.699   7.939   3.115  0.5312  0.2702 -0.2914
18790W        W39070   3.090   1.352   3.445 -0.0308 -0.1155 -0.0521
18791W        W39071   8.159   1.150   0.518  0.0600  0.1604 -0.0817
18792W        W39072   5.508   3.333   4.108 -0.1212 -0.1933 -0.0110
18793W        W39073  15.892  16.831  12.302 -0.4114 -0.3054  0.0287
18794W        W39074   1.395  13.222   0.241  0.0316  0.0410 -0.1144
18795W        W39075  13.757   9.387   4.636  0.1967  0.4627  0.0717
18796W        W39076  15.645  16.458   2.540  0.1697 -0.0746  0.2496
18797W        W39077  16.213   6.410   0.896 -0.3495  0.2482  0.3476
18798W        W39078  14.117   7.886   1.402 -0.4305  0.2566  0.0541
18799W        W39079   1.408   1.522   3.185 -0.1161  0.0406  0.1651
18800W        W39080   5.499  14.448   2.485 -0.1574 -0.0981 -0.2919
18801W        W39081   2.471   2.760  13.352  0.0263 -0.1086 -0.2367
18802W        W39082  14.614  12.322   1.909 -0.3838 -0.0445  0.3018
18803W        W39083  13.811  14.791  13.971  0.1669 -0.2326 -0.2194
18804W        W39084  10.860   9.665  13.459  0.0729  0.1104 -0.1903
18805W        W39085  16.566   0.108  16.665  0.1343 -0.3239  0.0887
18806W        W39086   9.267   0.248  14.832 -0.3514  0.1065 -0.1108
18807W        W39087   9.159  15.172  14.093 -0.1094  0.1851 -0.2480
18808W        W39088   5.420  12.872  15.225 -0.0564  0.2747 -0.3034
18809W        W39089  12.563   4.355  13.137 -0.2164 -0.1133  0.2224
18810W        W39090   7.669  11.801  13.750  0.2685 -0.1228 -0.1100
18811W        W39091   3.574   6.509   0.486 -0.0855 -0.1171 -0.1147
18812W        W39092   3.384   9.841   0.203 -0.0277 -0.0027  0.2066
18813W        W39093   2.770  17.254   1.609  0.1752 -0.3543  0.0916
18814W        W39094  17.819  14.320   2.237  0.0652  0.0107  0.1477
18815W        W39095   4.922  11.065  14.643 -0.2403  0.1135 -0.1196
18816W        W39096   7.581   3.504   3.903  0.3284  0.0540  0.0546
18817W        W39097  10.167  10.586   0.697 -0.0683 -0.1500 -0.0539
18818W        W39098  12.375   2.556  14.734  0.0254  0.0001  0.1504
18819W        W39099   6.092   4.061  13.409  0.1509  0.0813 -0.0464
18820W        W39100  10.025   7.739  11.878  0.4791  0.2365  0.3273
18821W        W39101   1.475  17.033  12.804 -0.0204 -0.1619 -0.0809
18822W        W39102   9.215   5.363   3.668 -0.1256 -0.1847  0.1703
18823W        W39103   0.677  15.160  14.216 -0.0534  0.1082  0.1491
18824W        W39104  10.562  14.712   4.299 -0.0595  0.1193  0.1121
18825W        W39105   2.447   8.178   1.047  0.1871  0.3401  0.1815
18826W        W39106  13.406   7.935   2.089 -0.2395  0.3365  0.1650
18827W        W39107   4.153  10.420   4.680 -0.0673 -0.0127  0.0434
18828W        W39108   5.821  14.989   1.228 -0.0663  0.0564 -0.0104
18829W        W39109   3.145  12.920  11.849  0.0923  0.1693 -0.1310
18830W        W39110   8.508   2.668  12.598 -0.0438 -0.0232 -0.2599
18831W        W39111  17.282   1.859  16.266  0.0779  0.1521  0.2845
18832W        W39112  12.722   4.767  15.332  0.1577 -0.1843  0.1173
18833W        W39113  11.040  13.317  16.264 -0.2830  0.0645 -0.0365
18834W        W39114  11.962  11.207   4.347 -0.1010  0.1167 -0.0828
18835W        W39115  10.699   4.818   0.993  0.1095  0.1551 -0.2175
18836W        W39116  12.798   0.628  16.568 -0.0343 -0.0355  0.1195
18837W        W39117   1.162   7.817   3.502 -0.1740  0.1299 -0.0048
18838W        W39118   5.609  12.283  14.048  0.0097 -0.5638 -0.0851
18839W        W39119   5.338   3.349   1.208 -0.1309  0.0650 -0.2726
18840W        W39120   1.282   9.842  15.368  0.1370  0.4476  0.3182
18841W        W39121   9.925   9.427  12.974 -0.2626  0.1968 -0.2523
18842W        W39122  13.944   1.664  13.952 -0.0617 -0.1407 -0.0723
18843W        W39123  17.836  10.167   0.430 -0.5112  0.1683 -0.0718
18844W        W39124   5.768   1.404  16.103 -0.1073 -0.1985 -0.1111
18845W        W39125   5.045  12.641  13.219  0.1152 -0.2571 -0.1484
18846W        W39126   4.185  10.830  12.330 -0.2137 -0.0125  0.2235
18847W        W39127   3.494   8.205   4.298  0.0587 -0.0680 -0.2439
18848W        W39128   7.609  15.756  12.787 -0.0182 -0.1535  0.1529
18849W        W39129  16.747  16.100  13.972  0.1043 -0.1287 -0.1436
18850W        W39130   3.674   8.713   0.417  0.0435 -0.1109  0.0750
18851W        W39131  16.984  14.653   3.706 -0.1903 -0.1563 -0.5005
18852W        W39132   8.791  14.876   4.149  0.0756 -0.2301  0.0100
18853W        W39133  16.736  16.388  14.428  0.1911  0.0406  0.0068
18854W        W39134   6.837   2.571   3.914 -0.2394  0.1822 -0.1399
18855W        W39135   1.987   3.406   3.889  0.0620 -0.4387 -0.1326
18856W        W39136  16.480   9.901  16.412 -0.0045  0.1091  0.1277
18857W        W39137   6.241  16.863   4.160 -0.2214 -0.2574 -0.0479
18858W        W39138   8.694  12.749  12.465 -0.0300 -0.2725 -0.0241
18859W        W39139   5.468  16.911  15.904  0.1564  0.0589  0.0028
18860W        W39140   3.349   5.471   0.087  0.1291 -0.0204 -0.1188
18861W        W39141   6.436  15.228  16.621  0.2332 -0.1967  0.1715
18862W        W39142   6.301   4.096   2.664  0.5214 -0.1082  0.1424
18863W        W39143  10.129   0.870   0.424  0.2221 -0.3209  0.1001
18864W        W39144   2.416   4.713  14.376  0.0798 -0.3957  0.1571
18865W        W39145   8.913   0.226  14.357 -0.0245 -0.3048  0.1291
18866W        W39146   1.245  11.609  14.614 -0.0942 -0.2541  0.2138
18867W        W39147  14.653  10.015   2.148  0.1031 -0.1496 -0.0398
18868W        W39148   2.023  10.556  14.394  0.1283 -0.0015 -0.0756
18869W        W39149  17.040   0.802   3.873 -0.1277  0.0005 -0.0314
18870W        W39150  13.105  10.861   4.067 -0.0364  0.1289 -0.0344
18871W        W39151  15.876   5.430   3.901  0.1571 -0.1087  0.1637
18872W        W39152   5.271   1.003   4.165 -0.2503 -0.1155 -0.0781
18873W        W39153  10.500   3.317  16.088 -0.0599 -0.0890  0.0194
18874W        W39154   0.578   4.231   0.520  0.0268 -0.2514  0.4927
18875W        W39155   9.195   9.817  14.376 -0.0361 -0.1467  0.1271
18876W        W39156   4.184  14.143   4.616 -0.1371 -0.2860  0.1870
18877W        W39157  13.646  17.009   4.337 -0.2955 -0.1659 -0.1604
18878W        W39158  12.789   9.313   3.466  0.0370 -0.1223 -0.2182
18879W        W39159   5.828   6.451   1.763  0.0690 -0.0698  0.1243
18880W        W39160  15.792   0.037  15.595 -0.1073  0.0180  0.2644
18881W        W39161  11.012   3.152  14.500 -0.2396 -0.2335 -0.3403
18882W        W39162  11.560  10.347  13.447  0.0016 -0.1176 -0.0064
18883W        W39163  17.848  12.444  12.444 -0.1365 -0.0885 -0.0148
18884W        W39164   5.073   8.734   1.801 -0.2306  0.3056  0.1326
18885W        W39165  14.080  12.217  15.302  0.0660 -0.1909 -0.1686
18886W        W39166   5.493  11.951  15.000  0.0530 -0.1040 -0.1164
18887W        W39167  14.813  12.424   0.947 -0.2866 -0.0810 -0.3020
18888W        W39168   5.650  16.720  14.495  0.1550  0.0464  0.1733
18889W        W39169   2.562   4.391   0.642  0.0674 -0.0754  0.0159
18890W        W39170   7.518   3.248   3.436  0.0642 -0.0593 -0.0662
18891W        W39171  12.500   8.392   3.678  0.0988  0.5800  0.1359
18892W        W39172  12.413  11.999   4.525 -0.2043  0.2179  0.0531
18893W        W39173   7.492   3.667  14.643  0.0412  0.0083 -0.4322
18894W        W39174  10.220  12.847   2.642  0.0913  0.2793 -0.0841
18895W        W39175   9.098   7.654   1.678  0.1653 -0.1896  0.2117
18896W        W39176  10.438   0.116  12.177  0.3368  0.2441  0.2072
18897W        W39177   9.126  13.321  13.640  0.2805 -0.2674  0.0616
18898W        W39178  13.465  17.141   1.569  0.0415  0.0198 -0.3520
18899W        W39179   5.359   3.706   1.751 -0.1120  0.1234 -0.0607
18900W        W39180   3.375   2.415  14.134 -0.2345  0.2135 -0.0956
18901W        W39181   1.301   0.356   3.757 -0.0107  0.1640 -0.2018
18902W        W39182  13.672  13.044  14.381 -0.2746 -0.0431  0.3510
18903W        W39183   8.589   6.058  15.816  0.3643 -0.1324  0.1105
18904W        W39184   6.434   8.734  12.523 -0.2337 -0.1688  0.0132
18905W        W39185   3.551   1.029   3.244 -0.1280 -0.1488 -0.0938
18906W        W39186   5.310   1.556  14.931  0.0261 -0.2353  0.2224
18907W        W39187  13.678  12.695  12.666 -0.1008 -0.0928 -0.2471
18908W        W39188   2.567   7.762   1.866  0.0231  0.1181 -0.0328
18909W        W39189  15.598   6.605  14.575  0.0118  0.0252 -0.3262
18910W        W39190  13.658  11.670  13.303 -0.0796  0.1622  0.0943
18911W        W39191  13.059  15.838  11.982  0.0139  0.0090 -0.0078
18912W        W39192  14.312  14.313  16.694  0.0717 -0.0208 -0.0287
18913W        W39193  11.891  12.520  14.989  0.1551  0.0170 -0.0002
18914W        W39194   9.796   5.287  12.385 -0.0682  0.1010  0.0201
18915W        W39195  15.688  10.894  15.483  0.1837 -0.2799 -0.0073
18916W        W39196  12.807  14.075  14.131 -0.2842 -0.0945  0.0648
18917W        W39197  10.341   6.723   1.433  0.0871  0.1863  0.1200
18918W        W39198  13.318   8.833   1.026 -0.0045  0.3358 -0.0538
18919W        W39199  10.343  14.234  15.399  0.4352 -0.2685 -0.2041
18920W        W39200  15.899   6.873   4.005 -0.1043 -0.0655  0.2040
18921W        W39201  14.258   3.864   3.674  0.4349 -0.2383 -0.1901
18922W        W39202   7.765   8.250   1.830 -0.1441 -0.0022 -0.3093
18923W        W39203   5.724  16.274   4.510 -0.1536  0.1062 -0.3437
18924W        W39204  16.448  12.103   4.589 -0.1269 -0.0715 -0.2453
18925W        W39205   6.878  14.332   4.385 -0.0470  0.0192  0.1986
18926W        W39206  13.156   3.572  10.407  0.1500 -0.0021 -0.1553
18927W        W39207   6.272  10.097  12.510 -0.2559  0.0654  0.4129
18928W        W39208  15.106   2.644  15.078 -0.1141 -0.0881  0.0010
18929W        W39209   1.865   1.206  13.838 -0.1744 -0.1555 -0.1378
18930W        W39210  16.999   0.505   1.241 -0.2300 -0.2629  0.3946
18931W        W39211   4.130   4.311   4.038 -0.0613 -0.2440 -0.1550
18932W        W39212  17.162  16.112  15.238 -0.2788  0.3013  0.1374
18933W        W39213  17.317  12.649   0.750 -0.0988 -0.4852 -0.2033
18934W        W39214   7.748  14.803   0.944 -0.1105  0.1057 -0.3410
18935W        W39215   3.911   1.868  14.740  0.2931  0.1738 -0.2444
18936W        W39216   6.769   4.575  11.724 -0.0069 -0.2464 -0.0869
18937W        W39217   2.861  13.681   4.913  0.2146  0.0655  0.0674
18938W        W39218   2.250  15.766   0.640 -0.0626  0.1620 -0.0088
18939W        W39219  15.799   2.668  14.671 -0.1270 -0.0719  0.0312
18940W        W39220   7.411   4.891   0.478  0.1389  0.4039  0.0386
18941W        W39221  15.856  13.754   1.532  0.2196 -0.0059  0.0235
18942W        W39222   7.065   6.856  14.064  0.2386  0.1746 -0.5303
18943W        W39223   8.544  14.942  12.437 -0.1373 -0.1280  0.0596
18944W        W39224   1.646   8.481  12.558  0.0270 -0.0182 -0.1816
18945W        W39225  13.891   8.402  15.307  0.1007 -0.0384 -0.0172
18946W        W39226  13.192  15.304   3.535  0.1259 -0.1652 -0.1090
18947W        W39227   2.741  16.549   4.119 -0.0535  0.0664  0.1733
18948W        W39228  10.042   3.127  11.616  0.2355  0.0640 -0.0581
18949W        W39229   7.504   5.151  16.653 -0.3409  0.2104 -0.1527
18950W        W39230   2.447   6.736  16.284  0.0104  0.0520  0.0674
18951W        W39231   7.016  13.057   3.234 -0.2246 -0.4658 -0.1751
18952W        W39232   4.123  10.789   1.273  0.2361  0.0843 -0.1882
18953W        W39233  16.381   4.589  15.528  0.1469 -0.0841 -0.2844
18954W        W39234   2.069   8.223   1.289  0.0722 -0.1347 -0.2071
18955W        W39235   5.900  17.941   0.133 -0.0860 -0.1038  0.0349
18956W        W39236   5.372  11.670   2.117  0.1380  0.0302  0.2615
18957W        W39237   9.851  16.275   2.236  0.1979 -0.2016  0.1481
18958W        W39238  14.731   4.682   1.710 -0.1370  0.0564 -0.1681
18959W        W39239  13.772  10.210   2.614 -0.1983 -0.1095 -0.1566
18960W        W39240  16.914   5.936  13.627  0.2734  0.2198 -0.2671
18961W        W39241   9.809  17.618  16.234  0.1837 -0.0685 -0.0612
18962W        W39242  11.216   9.981  13.317 -0.5240 -0.3334  0.3940
18963W        W39243   2.789   2.228  13.335  0.0295  0.0975 -0.1028
18964W        W39244   9.040   8.059   4.611 -0.0695 -0.0346 -0.0497
18965W        W39245   2.328  13.198   3.390 -0.0928  0.0180  0.2446
18966W        W39246   8.001   4.403   3.592 -0.0929 -0.2446  0.0630
18967W        W39247   4.874  12.035  11.918 -0.0067  0.0018  0.0638
18968W        W39248  11.211  14.983   1.356 -0.2163 -0.0896 -0.1035
18969W        W39249  17.924  13.963   4.702  0.2787  0.5270 -0.0713
18970W        W39250   3.345  10.369   3.171 -0.0644  0.2356  0.1429
18971W        W39251   3.686  11.208   0.698  0.3277  0.1216 -0.2474
18972W        W39252  11.048   5.600  14.707  0.0913 -0.1238  0.3565
18973W        W39253   6.276   1.335   4.101 -0.0064 -0.0211  0.0049
18974W        W39254  12.938   0.211   3.704  0.0623 -0.0048  0.0240
18975W        W39255   1.503  17.749   2.667  0.1174  0.0309  0.1966
18976W        W39256  11.271  17.650   0.602 -0.1051  0.1038  0.2695
18977W        W39257   0.746  11.361   0.506 -0.3010  0.0635  0.0250
18978W        W39258  11.776   7.955  14.362  0.0882  0.0455 -0.1047
18979W        W39259   6.044  15.428   4.339  0.1442  0.4896 -0.0344
18980W        W39260   8.888  13.309  13.153 -0.1535  0.2265  0.1014
18981W        W39261   4.444  16.481   3.325 -0.2260 -0.1708 -0.1338
18982W        W39262   0.530  15.415  11.741  0.3867  0.1399 -0.2760
18983W        W39263  15.192  13.000  12.380  0.2029 -0.0833  0.2313
18984W        W39264   5.191  10.127  14.976 -0.1955  0.1193  0.0376
18985W        W39265   5.531  16.055  13.227 -0.2063  0.0106 -0.0310
18986W        W39266  14.243   8.438  14.484  0.0526  0.0739  0.0382
18987W        W39267   1.166  12.964   2.073  0.2141 -0.1899 -0.0040
18988W        W39268   0.353  11.195  12.263 -0.0214 -0.2724  0.2698
18989W        W39269  10.977   3.824  11.650  0.1809 -0.3298 -0.0485
18990W        W39270   3.087   1.461  15.565 -0.0732 -0.0890 -0.0192
18991W        W39271   7.852  12.227   3.106 -0.2743 -0.0043 -0.0062
18992W        W39272   1.561  11.134   3.313  0.0127  0.1118  0.1315
18993W        W39273   1.881  11.969   3.129  0.1675  0.1322 -0.2682
18994W        W39274  12.980   6.707  13.106 -0.0475  0.0302  0.1284
18995W        W39275   8.207  10.606   1.526 -0.0133  0.0778  0.0946
18996W        W39276   5.849   1.884   1.903  0.1549  0.2574 -0.1087
18997W        W39277  13.798   5.435   1.319 -0.0184 -0.0728 -0.1636
18998W        W39278  12.139   4.981   0.994 -0.3400  0.2123 -0.0614
18999W        W39279  14.204   5.587  15.582  0.0162  0.0864  0.0060
19000W        W39280  12.964  15.610   1.631 -0.0328  0.1012  0.1469
19001W        W39281   6.702   7.314   2.750 -0.0502  0.2380  0.2812
19002W        W39282   9.673   5.408  11.433  0.0553 -0.0566  0.0166
19003W        W39283  11.569   0.496  12.630  0.2613 -0.0126  0.0515
19004W        W39284  10.485  11.745  13.182  0.0197 -0.2060  0.0511
19005W        W39285  10.356  16.721  13.555 -0.1392  0.0475  0.0171
19006W        W39286  12.730   3.379   0.315 -0.0573  0.1843  0.1415
19007W        W39287   6.041  17.032   0.243 -0.0106  0.1911 -0.1028
19008W        W39288  14.972  14.635  14.880 -0.2743 -0.0871 -0.1648
19009W        W39289   4.942   1.990  14.678  0.1551 -0.2032  0.0945
19010W        W39290  14.267  17.001  12.170  0.3151 -0.0919 -0.0467
19011W        W39291   4.082   1.115  13.221  0.3447  0.5495  0.0908
19012W        W39292   0.158   0.792   4.072 -0.0167  0.0112 -0.2991
19013W        W39293   2.403   7.731   4.110 -0.2582 -0.0421  0.1692
19014W        W39294  11.590  13.343  12.326  0.0470 -0.2888 -0.1920
19015W        W39295  13.086   5.246   3.032 -0.0231 -0.4030 -0.0877
19016W        W39296   9.919   8.884  11.576  0.0150  0.1686  0.0300
19017W        W39297  17.261  16.142   4.751  0.2389  0.0513  0.0738
19018W        W39298   4.900  10.467   2.229 -0.2368 -0.0937  0.0451
19019W        W39299  13.033  16.304  14.498 -0.1413  0.0466 -0.2446
19020W        W39300   2.456  14.888   5.267  0.0483 -0.2082  0.0613
19021W        W39301   1.844  16.341   0.073  0.1706 -0.1479  0.1833
19022W        W39302  14.861   1.904  15.314  0.1307  0.2095 -0.3053
19023W        W39303  13.541   3.430  12.654  0.0260 -0.3203 -0.0291
19024W        W39304  13.157  17.549  13.845  0.2349 -0.0741  0.1886
19025W        W39305   7.071  17.689   1.663 -0.0592 -0.0417 -0.2483
19026W        W39306   5.641   2.359   3.016 -0.1296  0.3557 -0.0400
19027W        W39307   7.805   5.513   3.907 -0.1990 -0.0788  0.3755
19028W        W39308   8.835   2.154  15.734 -0.2551  0.0702  0.0854
19029W        W39309  13.983  13.665   2.673  0.3906 -0.0211 -0.1033
19030W        W39310  10.844   0.346  15.112 -0.0170 -0.2449  0.0943
19031W        W39311   3.480  15.093   1.021  0.0638  0.3545  0.2598
19032W        W39312  11.270   7.624  16.321  0.3889 -0.1267 -0.0119
19033W        W39313  13.916   6.524  13.506 -0.2837 -0.0557 -0.0464
19034W        W39314   7.657  11.514  16.461  0.2591 -0.0221 -0.0398
19035W        W39315   7.788  17.016   0.893 -0.0324 -0.4308  0.1090
19036W        W39316  14.011   5.651  11.198 -0.2001 -0.1076  0.0157
19037W        W39317   6.935   3.873   3.324 -0.2549 -0.3370  0.2466
19038W        W39318  16.596  14.515  15.268 -0.1290  0.1813  0.0604
19039W        W39319   0.416  14.521  13.257  0.1036 -0.0574  0.3215
19040W        W39320   1.000  11.607  13.056  0.0727 -0.3113  0.0776
19041W        W39321   7.367   3.806  15.549  0.0838  0.2758  0.0206
19042W        W39322   9.146  16.836   2.251 -0.0899  0.2580 -0.0380
19043W        W39323  10.742   4.715  11.518  0.1146 -0.0466  0.1907
19044W        W39324   1.889   6.022  13.961  0.0737 -0.3917  0.0033
19045W        W39325   3.652  12.799  13.821  0.1280  0.1731 -0.0168
19046W        W39326  10.509   7.790  15.672 -0.0538  0.2665  0.0380
19047W        W39327  11.671   9.290  16.534 -0.2084  0.0116  0.0842
19048W        W39328  12.580  16.354  14.173  0.1231  0.0787  0.1212
19049W        W39329   1.969  12.071  14.458 -0.1124  0.2019 -0.0433
19050W        W39330  11.705   5.481  12.920  0.1281 -0.0519 -0.1009
19051W        W39331   2.618   3.062  14.340 -0.0364 -0.0535  0.1105
19052W        W39332   6.200   3.583  12.531 -0.1466  0.1994 -0.1111
19053W        W39333  16.853   7.044   1.916 -0.1066 -0.0008 -0.1373
19054W        W39334  15.880  17.338  12.500  0.3358  0.0663 -0.1856
19055W        W39335   0.143   1.644  14.446  0.2133 -0.1537  0.0122
19056W        W39336  17.231  13.182   0.279 -0.1037  0.0527 -0.0149
19057W        W39337  15.716   6.964   1.337  0.4981  0.1808 -0.3906
19058W        W39338  13.089  12.199   2.849  0.2780  0.1825 -0.2598
19059W        W39339  14.932  17.921   0.545 -0.2435 -0.0510  0.0903
19060W        W39340  17.289  11.671   3.854 -0.0712 -0.1616  0.1144
19061W        W39341  10.137  11.297   4.434  0.0718 -0.1859  0.0135
19062W        W39342   0.257   9.167   2.479 -0.0813  0.0458  0.2493
19063W        W39343   6.214  14.686   4.911 -0.0569 -0.0790  0.0156
19064W        W39344   0.973  10.715   5.733  0.1954 -0.3006  0.0556
19065W        W39345   1.508  13.816  13.336 -0.2367 -0.2226 -0.0424
19066W        W39346  13.901  14.362  16.333 -0.2896 -0.0308  0.1974
19067W        W39347  14.902   8.556   2.537 -0.0392 -0.0190  0.0397
19068W        W39348  10.552   0.925  16.072 -0.1275 -0.1284 -0.0194
19069W        W39349   3.158   4.190   0.810  0.2234  0.2884  0.1388
19070W        W39350   4.990  11.206   3.955 -0.2305 -0.0935  0.0746
19071W        W39351  10.486   2.246  16.272  0.1237 -0.0085 -0.3355
19072W        W39352   8.529   2.975   4.623  0.0778  0.3253  0.0522
19073W        W39353  11.274  12.157  13.353  0.0135 -0.2249  0.0502
19074W        W39354  11.598   1.345   1.602  0.2133 -0.1813 -0.3404
19075W        W39355   5.429  11.806  14.237 -0.0647 -0.1033 -0.1309
19076W        W39356  11.908  14.260   2.010 -0.1666 -0.0041  0.2835
19077W        W39357   2.073   9.878  12.810 -0.0683 -0.0547  0.0292
19078W        W39358   3.118   4.510   4.592  0.2591 -0.2993 -0.0339
19079W        W39359   3.682   3.242  14.307  0.2806 -0.0789  0.1675
19080W        W39360   1.772   1.864  13.328 -0.1540  0.4986 -0.0596
19081W        W39361   8.237  13.720   3.543 -0.1180  0.2710  0.2778
19082W        W39362   2.992   1.588  12.498 -0.0601  0.1022  0.1168
19083W        W39363   1.680  11.682   4.761  0.2323 -0.3122  0.0328
19084W        W39364   2.754  12.910   5.729  0.1217  0.0325  0.2816
19085W        W39365  16.220   9.448   3.367 -0.1501 -0.2649  0.1721
19086W        W39366  11.809  17.352   5.107 -0.2494  0.0341  0.2001
19087W        W39367   5.472   1.325   1.253  0.1307  0.0175  0.0203
19088W        W39368   1.310   9.587   2.324  0.0574  0.2266  0.1965
19089W        W39369  13.739   1.852  12.673 -0.0289 -0.1228  0.1903
19090W        W39370   4.598  12.912  12.926 -0.2067 -0.1788 -0.1514
19091W        W39371   3.898  11.643  14.948 -0.1624 -0.1843 -0.0548
19092W        W39372  16.133   4.238  15.851 -0.1239  0.0034  0.2065
19093W        W39373  12.492  14.343  15.498  0.1086 -0.2549  0.1602
19094W        W39374  10.029   4.593   0.531 -0.1014 -0.2981 -0.1048
19095W        W39375  13.283  15.498  12.803 -0.2460  0.1809  0.0449
19096W        W39376  13.802   5.156   4.102 -0.3492 -0.0747  0.2617
19097W        W39377  17.314   8.257   3.133  0.1296 -0.3801 -0.2218
19098W        W39378   1.098   9.033   0.107  0.0968  0.0272  0.3982
19099W        W39379  12.348  11.009   1.396  0.2279 -0.1878  0.2419
19100W        W39380   7.221   7.554   1.866 -0.1655  0.2488 -0.0806
19101W        W39381   5.755  17.454   2.908 -0.0773  0.0485 -0.1040
19102W        W39382   0.085   8.904   3.734 -0.2567 -0.1176  0.3367
19103W        W39383  14.976   1.110  14.462 -0.0966 -0.1408 -0.0891
19104W        W39384   7.802  12.209   0.754  0.0647  0.1235  0.3932
19105W        W39385   8.369   8.785   2.994  0.3017 -0.0376  0.0112
19106W        W39386  11.231  11.325  13.942 -0.0531  0.0502  0.1053
19107W        W39387   7.057   9.983   1.733  0.2521  0.3296  0.0830
19108W        W39388   0.106   7.711  15.202  0.2851 -0.1624 -0.1725
19109W        W39389   1.579   4.526   2.718 -0.0883  0.0064 -0.0473
19110W        W39390  11.338   6.633  15.303 -0.1120  0.2010 -0.2473
19111W        W39391  10.116  10.075   1.593 -0.2556  0.0752  0.3009
19112W        W39392   9.851  17.470  15.235 -0.1072  0.1907 -0.0869
19113W        W39393  13.710   2.748   3.658  0.0208 -0.0797 -0.2405
19114W        W39394   6.231   6.606  14.575  0.0200  0.1951 -0.3981
19115W        W39395   9.624   0.708   0.569 -0.3453  0.0063  0.3937
19116W        W39396   8.961   1.240  15.723 -0.0606  0.0859 -0.2796
19117W        W39397   9.346  17.796  13.941 -0.2845 -0.0499 -0.1547
19118W        W39398   1.469   2.238  12.055 -0.3033  0.1527  0.4885
19119W        W39399  14.999  10.698  14.750 -0.0356  0.0736 -0.1036
19120W        W39400  11.723  12.681   0.224 -0.0455 -0.0333  0.0525
19121W        W39401   8.251  15.430   4.461 -0.0500  0.0525 -0.0196
19122W        W39402   0.185   3.546  16.179 -0.1348  0.0513  0.3899
19123W        W39403   2.933   1.363  16.107  0.0829 -0.3810 -0.3007
19124W        W39404  17.575  17.332  14.775 -0.2210 -0.0647 -0.0462
19125W        W39405   1.794   4.091   2.898 -0.1077 -0.1155  0.3142
19126W        W39406   0.679   9.141  13.228 -0.2877  0.1707 -0.1118
19127W        W39407  17.297   7.135   4.427 -0.0480 -0.0081  0.2152
19128W        W39408  11.041   1.597   2.990  0.0225 -0.2955  0.4994
19129W        W39409   9.165   4.245   0.202  0.5126 -0.0506 -0.3636
19130W        W39410  12.689   0.293   0.233  0.4366 -0.1178 -0.1832
19131W        W39411   8.524  12.277   1.319  0.2130  0.0686  0.0505
19132W        W39412   0.276  11.849  15.978 -0.3507  0.2137  0.3028
19133W        W39413  15.836   8.774   0.389  0.0341 -0.0314 -0.1044
19134W        W39414  15.047   5.062  13.108 -0.3704 -0.1317 -0.1489
19135W        W39415   2.647  16.506   3.340  0.0255 -0.3806 -0.0841
19136W        W39416   4.025   1.590  15.207  0.3189 -0.0154  0.1553
19137W        W39417   3.225  16.685  11.603 -0.0544 -0.0796 -0.2206
19138W        W39418   0.582   1.880  12.173 -0.1953 -0.1007 -0.1686
19139W        W39419  10.178  12.570  12.214 -0.0358 -0.1753  0.2528
19140W        W39420  16.078   4.454  14.901  0.3351  0.1309 -0.1774
19141W        W39421   4.718   4.966   0.694 -0.1739 -0.2255  0.1316
19142W        W39422   0.554   1.739  16.143  0.0777  0.0916  0.3966
19143W        W39423   1.684   6.501   0.235 -0.3680 -0.0053 -0.0782
19144W        W39424   8.989   7.383  14.583 -0.4951 -0.2497 -0.0812
19145W        W39425   4.577  16.179  16.562 -0.0154  0.0887 -0.0814
19146W        W39426   5.313   2.215  15.475 -0.2513 -0.2051  0.0703
19147W        W39427   6.077   8.898   3.355 -0.0822 -0.1255  0.2446
19148W        W39428   5.115   7.326   1.746  0.2326  0.3660 -0.0857
19149W        W39429   1.660   1.805  14.646  0.0800  0.2435  0.0518
19150W        W39430   9.449   6.349   3.547 -0.0221 -0.2792 -0.0971
19151W        W39431  14.293  12.922  12.511  0.2099  0.0717  0.0158
19152W        W39432   3.892  17.496  14.399 -0.0914  0.0260 -0.0787
19153W        W39433  15.195   1.211   3.621  0.0091 -0.2245 -0.2326
19154W        W39434  15.611  15.224   1.897  0.0889 -0.0356 -0.0326
19155W        W39435  12.370   7.624  13.089 -0.1386 -0.0398  0.0373
19156W        W39436   9.241  11.922  16.584  0.0565  0.1166 -0.5022
19157W        W39437   2.253   8.560  12.196  0.1299  0.1981  0.0021
19158W        W39438  14.376   7.088   1.634 -0.3621 -0.0433 -0.4075
19159W        W39439   9.673  12.860  12.272  0.4303  0.1288  0.4964
19160W        W39440  14.536   4.947   3.259 -0.0124  0.0729  0.3462
19161W        W39441  17.460  14.672   0.218  0.0598  0.0493 -0.2147
19162W        W39442   4.568   9.533  13.297 -0.0935 -0.5674  0.0411
19163W        W39443  12.301  17.081   2.505 -0.0332 -0.0130 -0.0360
19164W        W39444  10.463  10.666  15.430 -0.4479  0.0201  0.0835
19165W        W39445  10.985   7.467  14.477 -0.1408  0.0638  0.4779
19166W        W39446   1.949   0.995   1.499 -0.0554 -0.0592  0.1158
19167W        W39447   5.065   3.179  13.817  0.1204  0.0473  0.4427
19168W        W39448  13.275   1.376  11.937  0.2109 -0.3168 -0.1792
19169W        W39449   1.209  14.301  14.482 -0.1428 -0.2625 -0.2590
19170W        W39450   6.968  12.872  16.384 -0.3027 -0.3502 -0.3151
19171W        W39451  16.358  13.084  13.419  0.1399  0.1651 -0.1690
19172W        W39452   7.333  13.764  13.216 -0.2054  0.2718 -0.2222
19173W        W39453  12.822   6.008  15.502 -0.0537  0.0337  0.3711
19174W        W39454  14.065   8.785   2.200 -0.0250  0.1941 -0.2519
19175W        W39455  12.540  14.117   4.180 -0.1704  0.3081 -0.0939
19176W        W39456  13.059   6.098   0.831 -0.0774 -0.0235  0.2051
19177W        W39457  14.499   9.091  16.107  0.2337  0.2240  0.0899
19178W        W39458   2.314  13.881   1.692  0.0285  0.1236 -0.1072
19179W        W39459   4.209  16.612  13.809 -0.0599 -0.0680  0.2747
19180W        W39460   5.780  10.123   4.488  0.3806 -0.0234  0.0643
19181W        W39461   4.901   4.520   0.757 -0.3651 -0.2053 -0.4913
19182W        W39462  17.029  15.239  12.605 -0.0069 -0.2007 -0.0229
19183W        W39463   4.444   3.940  13.073  0.1358 -0.0893  0.0406
19184W        W39464   2.823  15.757   1.467 -0.2006 -0.5036  0.2315
19185W        W39465   2.930   5.409  16.431  0.0964  0.0324 -0.1326
19186W        W39466  11.245  17.270   3.377  0.0882 -0.1138  0.0013
19187W        W39467   3.544   6.135  14.525  0.1046 -0.0900 -0.0139
19188W        W39468  17.516  17.365   3.246  0.1309 -0.1354 -0.3987
19189W        W39469   8.024  13.317  12.346 -0.0150 -0.0679  0.0626
19190W        W39470   7.490   7.824   0.992  0.2262  0.0189 -0.2220
19191W        W39471   7.718   0.589   3.407 -0.0504  0.2896 -0.0313
19192W        W39472  11.968   6.219  11.549  0.2541  0.0108  0.0453
19193W        W39473  16.853   1.338  14.761 -0.0693 -0.0793 -0.1524
19194W        W39474   3.556   9.923   2.082 -0.0364  0.0896 -0.0001
19195W        W39475  16.044  15.672   4.679 -0.1754  0.4296  0.0715
19196W        W39476  16.195   9.479   0.960  0.0012 -0.1383  0.2032
19197W        W39477  14.927  17.419  13.033  0.3013 -0.0305 -0.1593
19198W        W39478  11.398  15.374   3.320  0.1262  0.0340 -0.1784
19199W        W39479  11.578   8.354  14.187  0.0772 -0.3369 -0.2759
19200W        W39480   0.803   1.971  15.123  0.0965 -0.1522  0.5530
19201W        W39481   6.749  10.630   1.918  0.0748  0.0098 -0.0415
19202W        W39482   6.261   0.513  15.192 -0.1829  0.1018  0.1204
19203W        W39483   4.960  10.139   3.695 -0.1815  0.0008 -0.0829
19204W        W39484   4.439  10.757   0.343 -0.2467 -0.3968  0.2952
19205W        W39485  14.080  13.372   4.731  0.0804  0.2597  0.0761
19206W        W39486  15.067  15.043  14.604  0.2964  0.0544 -0.2230
19207W        W39487   7.974  11.699   1.504 -0.0058  0.1805  0.1826
19208W        W39488  13.695  12.101  16.002 -0.0443 -0.0112 -0.3893
19209W        W39489   9.130  14.504   4.546  0.1513 -0.5400  0.2712
19210W        W39490  17.749   4.412   0.771  0.2476 -0.0915 -0.0242
19211W        W39491  11.446   8.879  15.184 -0.0569 -0.4173  0.1352
19212W        W39492  12.858   8.145   2.646 -0.1097  0.1409 -0.2725
19213W        W39493   0.269   8.774   2.808 -0.2059  0.3126  0.0707
19214W        W39494  15.192   7.748  14.429  0.0740 -0.4384  0.0427
19215W        W39495   1.916   7.579  12.661 -0.0951 -0.1079 -0.0509
19216W        W39496  10.279  17.195   2.613  0.0466 -0.0110  0.2066
19217W        W39497   2.722   2.652   1.227 -0.1917  0.2226 -0.0339
19218W        W39498  11.918  17.779   2.771  0.0291 -0.0756 -0.5360
19219W        W39499   8.020   1.608   2.625 -0.1477  0.0274 -0.0020
19220W        W39500  16.969   0.355   0.758 -0.0485  0.0765  0.1079
19221W        W39501  17.858  13.867   0.079  0.0103 -0.0693  0.3080
19222W        W39502   2.652  12.686  14.065 -0.0833 -0.1698  0.5002
19223W        W39503  11.234   7.505  11.449 -0.0520  0.1248 -0.1976
19224W        W39504   5.632   7.172   4.968 -0.0875 -0.0792  0.1570
19225W        W39505   1.454   2.796   3.572  0.1454  0.1320 -0.2783
19226W        W39506  15.671   4.243   4.971  0.1273  0.2186  0.2590
19227W        W39507  14.977   1.728  16.534 -0.2036 -0.0092 -0.3128
19228W        W39508  16.750   6.553   1.605 -0.2047 -0.1505 -0.0092
19229W        W39509   3.692   4.179  16.661 -0.0466  0.1294  0.5110
19230W        W39510   2.129  10.089  14.700  0.0769  0.1088 -0.2995
19231W        W39511   0.045   2.965  14.263 -0.1153 -0.0170  0.1578
19232W        W39512   3.378   8.788   3.395  0.1149 -0.0001 -0.2069
19233W        W39513  10.924   1.614  14.336  0.1380  0.2751 -0.1766
19234W        W39514  12.343   2.983  12.017 -0.3068  0.2132  0.0937
19235W        W39515   7.688  15.525  16.311  0.0678  0.0703  0.0084
19236W        W39516   1.627  14.491   2.481 -0.0054  0.0022  0.1648
19237W        W39517  10.765  17.941  16.386  0.0872  0.1113  0.0742
19238W        W39518   5.580   8.089   0.268  0.0078 -0.0209 -0.2411
19239W        W39519  11.446   2.223  12.083 -0.1542 -0.1235  0.0709
19240W        W39520   1.486   5.170  13.819 -0.0980  0.3240  0.0622
19241W        W39521   4.855  10.678   2.674 -0.1027 -0.2242 -0.0751
19242W        W39522  13.721  17.845   2.330  0.2753  0.0759 -0.2056
19243W        W39523   9.552   2.600  12.879  0.0532  0.3830  0.0612
19244W        W39524  10.836   2.238   1.749 -0.0699 -0.2391  0.0366
19245W        W39525   5.601   8.279  14.357 -0.1181  0.1662 -0.2808
19246W        W39526  14.114   2.128  14.178  0.1907  0.1331  0.3089
19247W        W39527   0.811   1.512   1.672  0.3934 -0.1270  0.0084
19248W        W39528   7.726   0.774   0.739 -0.2588 -0.1054  0.1966
19249W        W39529  17.509  14.023  14.376  0.1891 -0.0089 -0.2584
19250W        W39530   6.616  13.071   4.046  0.3160 -0.0463  0.4135
19251W        W39531   5.108   7.760   2.030 -0.0105 -0.1601 -0.2233
19252W        W39532   5.799   3.616  12.208  0.0897 -0.0876 -0.1834
19253W        W39533   5.108   0.178  14.491  0.2313  0.0684 -0.2588
19254W        W39534   5.232   4.213   1.612  0.0408 -0.1001  0.1736
19255W        W39535  15.191  11.803  16.274  0.3143  0.1550  0.3357
19256W        W39536  10.057   8.032   0.710 -0.1272  0.2559  0.1603
19257W        W39537  13.098   1.347  14.525 -0.1114 -0.0869 -0.1011
19258W        W39538   8.304   6.222   4.243 -0.2404 -0.1744  0.3111
19259W        W39539   6.149  15.445   0.679  0.0127 -0.0443  0.0675
19260W        W39540  16.764  10.178   0.897 -0.3432 -0.3998  0.0981
19261W        W39541   7.041   5.082   3.543  0.0166  0.0525 -0.1027
19262W        W39542   9.502   7.960  14.153 -0.0376 -0.0102  0.2207
19263W        W39543  11.543   6.774  12.479  0.1919  0.1104 -0.0476
19264W        W39544   1.128  15.861  13.987  0.2854 -0.1647  0.2100
19265W        W39545   7.037   9.325  14.599 -0.2498 -0.0018 -0.1766
19266W        W39546   7.781  15.929  12.282 -0.0289 -0.0638 -0.2303
19267W        W39547   2.606  11.941   0.453  0.2108  0.4488  0.1835
19268W        W39548  11.247   5.095   1.831 -0.0752  0.0703  0.0822
19269W        W39549  16.186   9.217  13.613  0.0998 -0.1560  0.1553
19270W        W39550   9.042  16.628   2.721  0.1554  0.0238 -0.0553
19271W        W39551  12.634  12.802   3.653 -0.0633  0.0682  0.0965
19272W        W39552  17.820  13.701   2.781 -0.0650 -0.0421 -0.2115
19273W        W39553  12.252  12.374   3.036 -0.0756 -0.3809 -0.1607
19274W        W39554  12.612  17.249   2.005  0.0797 -0.1922 -0.0196
19275W        W39555   7.172   2.820   3.182  0.1206  0.0611  0.1369
19276W        W39556  17.532  10.948  14.472 -0.2876 -0.0116  0.0213
19277W        W39557  11.335   2.990  12.106 -0.0234  0.2554 -0.1426
19278W        W39558   6.096   5.767   4.277  0.0727 -0.2092 -0.0888
19279W        W39559   7.391   3.373   2.343 -0.1549 -0.2824 -0.2873
19280W        W39560   1.881   8.748  14.460 -0.1651 -0.0076 -0.0801
19281W        W39561  17.142   1.284  14.338 -0.0877 -0.3541 -0.0233
19282W        W39562   3.433  14.856  12.927  0.0592  0.0481 -0.0933
19283W        W39563  10.103   0.458  14.899 -0.1244 -0.0890  0.0281
19284W        W39564  16.633  10.487   1.419 -0.1758  0.1068  0.0526
19285W        W39565   3.824   6.141  12.605 -0.0911 -0.2493 -0.0607
19286W        W39566   9.000  11.422  15.274  0.2114  0.1370  0.1716
19287W        W39567   6.007  17.019  12.050 -0.2249  0.0065  0.1712
19288W        W39568  15.041   8.776   3.171  0.2816 -0.3906 -0.1051
19289W        W39569   3.661  13.010  14.391 -0.3056  0.0107  0.3011
19290W        W39570  13.239  14.166   1.206  0.0625 -0.0259 -0.1482
19291W        W39571   3.282  13.093   1.557 -0.0114 -0.1948  0.0055
19292W        W39572  16.867   6.433  13.796  0.0475  0.0963  0.1331
19293W        W39573  10.240  17.203  12.216  0.0105  0.0947  0.2475
19294W        W39574  10.282   3.346   2.946  0.3387 -0.2064 -0.5480
19295W        W39575   5.643   7.443  13.169  0.1655  0.0604 -0.1465
19296W        W39576  12.548   8.973   1.896 -0.4494 -0.2423 -0.1251
19297W        W39577  16.911   7.944  12.058 -0.3991  0.1094 -0.2724
19298W        W39578   2.779  14.685  15.775 -0.0696 -0.0460  0.0552
19299W        W39579   6.339  15.456  13.062 -0.0602 -0.2351 -0.3168
19300W        W39580   9.568  13.092  15.782 -0.0175 -0.1038 -0.2677
19301W        W39581   2.425   4.161  14.402  0.0523  0.2921  0.1138
19302W        W39582   4.719   4.475  12.870 -0.2153 -0.0231 -0.0755
19303W        W39583   3.714   3.311   4.709  0.2209 -0.0890 -0.0854
19304W        W39584  10.210  13.126  14.392 -0.2264 -0.1752 -0.1641
19305W        W39585   5.176  10.079  12.910  0.2067  0.1815  0.1060
19306W        W39586  15.003  11.701   0.386  0.0987 -0.2933 -0.2475
19307W        W39587   8.863   2.482   3.178  0.0672 -0.1250 -0.1414
19308W        W39588  12.674  13.920   3.338 -0.0989 -0.1624  0.0208
19309W        W39589   9.965   6.356  16.020  0.0043 -0.0372  0.1732
19310W        W39590   0.615   9.949   4.351 -0.2731  0.0909  0.0439
19311W        W39591  10.314  10.880  14.294 -0.0655 -0.0994 -0.3673
19312W        W39592  16.475  12.537  15.248  0.3686  0.2835 -0.1859
19313W        W39593   9.574   2.221  16.443 -0.2327 -0.2786 -0.5478
19314W        W39594  17.580   0.882  12.355 -0.2315 -0.0663  0.1191
19315W        W39595   2.503  13.563   4.260 -0.1426  0.1527  0.2038
19316W        W39596  11.385  13.985   1.528  0.0580  0.0314  0.2476
19317W        W39597  10.303   8.238  11.095  0.0450  0.1264  0.1074
19318W        W39598   0.571  11.052  13.986  0.2527 -0.1944  0.0533
19319W        W39599  14.652  10.923   1.672  0.2882 -0.2262  0.1253
19320W        W39600   2.290  17.692   2.876 -0.1268  0.1041 -0.0427
19321W        W39601  13.812   8.735  14.324 -0.0563 -0.0655 -0.1449
19322W        W39602   1.838   9.051   0.071 -0.1323  0.2835  0.0669
19323W        W39603   1.724   9.865   0.491  0.0517  0.0253  0.0386
19324W        W39604  12.925   5.195  12.897 -0.3901  0.0715  0.1826
19325W        W39605  15.237   7.567   3.040  0.2370 -0.3685  0.3238
19326W        W39606   7.534  14.614   3.568  0.0469 -0.0183 -0.1870
19327W        W39607   3.161  16.208  13.842 -0.0613 -0.1658 -0.0726
19328W        W39608   7.852  11.721   0.146 -0.2192  0.3383 -0.4671
19329W        W39609  16.119   3.003  13.401 -0.2317  0.1439 -0.1943
19330W        W39610   6.984  10.550   3.999 -0.4181  0.0961  0.2474
19331W        W39611  13.345   7.012   3.198 -0.1967 -0.0372  0.0060
19332W        W39612  15.009  14.685  15.412 -0.0009  0.2587 -0.0007
19333W        W39613  16.129   3.195   0.192  0.3263  0.0084  0.0969
19334W        W39614   3.031  14.452   0.180  0.3671 -0.1879 -0.2186
19335W        W39615  11.349   7.239   2.093  0.2985 -0.1565  0.1258
19336W        W39616  12.841  14.951  14.322  0.0985 -0.1678  0.3397
19337W        W39617   3.966   8.609   3.137  0.0776 -0.0782  0.0778
19338W        W39618   4.622  10.441  13.361 -0.0397  0.0390  0.1392
19339W        W39619   5.210  17.774  15.971 -0.0828 -0.0031  0.0395
19340W        W39620  17.944   1.643   3.227  0.0562 -0.2082 -0.2097
19341W        W39621   5.871  15.681  14.325 -0.1150  0.0681  0.2077
19342W        W39622   1.322   8.282   3.386 -0.0166  0.0618 -0.2735
19343W        W39623   1.529  17.509   2.219 -0.1107 -0.1488  0.2941
19344W        W39624  10.128  12.408   2.369  0.3303  0.2095 -0.2492
19345W        W39625  15.881   2.484  12.368  0.1860 -0.0756 -0.1100
19346W        W39626   7.857   7.490  14.181  0.1369  0.3376 -0.1650
19347W        W39627   8.805   1.404   2.393  0.1832 -0.0602 -0.1976
19348W        W39628   1.172   1.842  12.280 -0.0450  0.1409 -0.2590
19349W        W39629  17.293   5.177   2.476  0.5077  0.0331 -0.1071
19350W        W39630  13.208  16.769   2.318 -0.1785 -0.0761 -0.1337
19351W        W39631   4.384   1.352  14.135  0.1686  0.1822 -0.0792
19352W        W39632   9.438   7.944  12.782  0.0561  0.1428  0.1621
19353W        W39633   1.076   4.044   0.585 -0.2828 -0.1079 -0.0519
19354W        W39634   1.106  16.375   4.059 -0.0519 -0.3315 -0.0152
19355W        W39635   7.124   6.479  12.892 -0.1662 -0.1544 -0.3554
19356W        W39636  12.796  11.701   3.561 -0.2041  0.3543 -0.0976
19357W        W39637   2.313   9.113  13.145  0.0573 -0.3697 -0.0146
19358W        W39638   5.373   9.794  14.176 -0.1066  0.0433  0.1410
19359W        W39639   8.178   9.288   4.386  0.1843  0.2079 -0.2071
19360W        W39640   8.218   3.145  11.779 -0.1820  0.0533  0.2019
19361W        W39641   8.717   4.693   1.209 -0.0616 -0.1135  0.2181
19362W        W39642   8.937   5.838  13.140  0.1038 -0.0001 -0.2092
19363W        W39643  14.767  10.295  11.961 -0.3534 -0.0567 -0.0512
19364W        W39644  11.837  13.470   0.674 -0.1217 -0.1913  0.1590
19365W        W39645   7.741   2.620  13.312  0.1651  0.1215  0.1308
19366W        W39646  14.963  10.939   4.117 -0.0206  0.0375  0.1263
19367W        W39647  12.368  12.332  14.507 -0.1413 -0.1612  0.1834
19368W        W39648  16.043   7.122   2.752 -0.3052 -0.4776  0.0938
19369W        W39649  16.661   7.854   3.814  0.0855 -0.1097  0.1247
19370W        W39650   4.059   3.614  13.077  0.0670 -0.1507 -0.1371
19371W        W39651   1.901   2.590   4.236 -0.0326  0.1340  0.1998
19372W        W39652  10.034   8.033  12.501  0.2840  0.1359 -0.3195
19373W        W39653  12.469  12.342  12.034  0.0025 -0.2515  0.1003
19374W        W39654   7.062  16.424   0.811  0.0696  0.3041 -0.0492
19375W        W39655   4.275   9.091  12.063  0.1514  0.1696 -0.0276
19376W        W39656   3.352   4.736   5.668  0.4225  0.1501  0.0024
19377W        W39657  13.960   7.616  12.557 -0.2690  0.1698  0.1648
19378W        W39658   1.401  10.132   1.399 -0.0516 -0.0430 -0.0891
19379W        W39659  11.043   9.279  16.662 -0.0222  0.0375 -0.0511
19380W        W39660   0.690   3.907   0.921 -0.0037  0.2219 -0.3256
19381W        W39661   6.531  10.963   1.539 -0.4651 -0.2938 -0.3815
19382W        W39662  16.877  12.174   0.275 -0.1215  0.1189  0.1609
19383W        W39663  15.234  17.550   4.738  0.0484 -0.1180  0.1335
19384W        W39664   4.705   5.656   4.249 -0.0867 -0.1705  0.0110
19385W        W39665   6.570   1.847  15.583 -0.2173 -0.1745  0.2128
19386W        W39666  17.120   8.431   4.364 -0.4703 -0.0314  0.2636
19387W        W39667   7.189  12.109  14.867  0.0706  0.0893  0.2764
19388W        W39668   7.509  13.913   0.964  0.0257  0.4074 -0.0966
19389W        W39669   4.327  11.515   2.104  0.0628  0.0388 -0.0463
19390W        W39670  11.762  11.538  16.153  0.1220  0.1962  0.1721
19391W        W39671   4.522  10.548   3.111  0.1525 -0.1410  0.2902
19392W        W39672  10.409   6.742   3.685 -0.2122 -0.0496  0.0501
19393W        W39673   6.577  10.903  14.409 -0.2581  0.1764  0.0266
19394W        W39674  11.144  14.544  14.107  0.2291  0.3425 -0.2590
19395W        W39675  12.573  15.670   4.086 -0.1852 -0.1348  0.0147
19396W        W39676   1.105  14.175   1.579 -0.2323 -0.0228  0.0126
19397W        W39677   9.966   4.241   2.458 -0.1027 -0.0640  0.0656
19398W        W39678   8.588   9.850  16.447  0.0451 -0.4824 -0.1861
19399W        W39679   9.617   6.626  12.731  0.0579  0.0861  0.0348
19400W        W39680   0.896   4.954   0.003  0.3252  0.3191  0.1219
19401W        W39681   6.026  15.061   3.849  0.1016 -0.0164 -0.1355
19402W        W39682   4.098   1.688   2.886  0.2046 -0.5703  0.0996
19403W        W39683   5.255  10.975   5.472  0.1464 -0.0157 -0.1300
19404W        W39684  16.390  16.746  14.425 -0.0325  0.2168 -0.1166
19405W        W39685   2.231   3.389   0.748  0.2402 -0.2504  0.1446
19406W        W39686   7.428  17.589   1.998 -0.5941  0.2310  0.2013
19407W        W39687  16.887  16.521   3.273  0.0149  0.1625 -0.0216
19408W        W39688  15.541   3.702   1.340 -0.1702 -0.2174 -0.0378
19409W        W39689   8.224  13.071  15.889 -0.0585 -0.0391  0.0474
19410W        W39690  17.249   4.902   2.013 -0.1220 -0.0350  0.1313
19411W        W39691  13.671   4.273  12.647 -0.1234  0.0116  0.0342
19412W        W39692  17.804   8.457  15.489  0.0124  0.2424  0.0846
19413W        W39693   5.952  17.284   4.234  0.0382 -0.1493  0.2039
19414W        W39694   6.070  14.966   2.440 -0.3502 -0.0245  0.4918
19415W        W39695   7.075  14.241  12.291 -0.0550 -0.3118  0.1368
19416W        W39696   5.893   6.827  16.465 -0.0833 -0.0823  0.1358
19417W        W39697   4.107   9.757  14.968  0.1828  0.1128 -0.1471
19418W        W39698   7.984   9.886   3.580  0.0003 -0.4972  0.2069
19419W        W39699  12.477   8.118   0.174  0.0751  0.1363 -0.1121
19420W        W39700   9.303  15.376   2.916 -0.3183 -0.0331  0.0886
19421W        W39701   7.411   9.840   3.499  0.0178 -0.1683  0.2297
19422W        W39702  16.722  11.908   0.794 -0.2493  0.1097 -0.0151
19423W        W39703   3.115   4.612   3.185  0.1996 -0.2174  0.1473
19424W        W39704  12.946   4.576   0.521 -0.1189 -0.0309 -0.0750
19425W        W39705  12.604  15.899   2.736 -0.0942 -0.0033 -0.1332
19426W        W39706  12.774  16.412   2.036  0.1937  0.0431  0.1136
19427W        W39707  15.629  13.888  13.118  0.0228  0.0333 -0.3165
19428W        W39708   7.488   6.047   0.345  0.3021 -0.1638  0.2286
19429W        W39709   9.267   6.798  16.341 -0.1630  0.2479  0.2302
19430W        W39710  14.603  16.698   2.518 -0.1097  0.1295 -0.2950
19431W        W39711   8.008  10.895   3.818  0.4193  0.1161 -0.0018
19432W        W39712  10.664   5.160  11.454 -0.0323  0.0981  0.1068
19433W        W39713   1.073  16.417  14.851 -0.3163  0.1690  0.0184
19434W        W39714  13.685  12.199  12.459  0.1888 -0.3010 -0.0146
19435W        W39715   9.236   3.069   2.597 -0.2705 -0.2090  0.1924
19436W        W39716  16.966   3.004  12.750 -0.2658 -0.2074 -0.3915
19437W        W39717   6.987  10.849  13.010 -0.0669 -0.0209 -0.1270
19438W        W39718   9.261   8.463  12.859  0.0027  0.0573 -0.2544
19439W        W39719   6.658   1.019   4.333  0.0479 -0.1314  0.3081
19440W        W39720  10.034  17.764   1.310  0.0052 -0.2365 -0.1074
19441W        W39721  12.067   7.279  15.195 -0.0582 -0.1111  0.1569
19442W        W39722   5.777   1.578   0.404 -0.2293  0.0969  0.0912
19443W        W39723   7.282   3.178  14.586 -0.2590  0.5018  0.1577
19444W        W39724   2.112   3.751  12.297  0.4787 -0.2626 -0.1168
19445W        W39725  10.849   9.501  14.499 -0.1224  0.3273 -0.3053
19446W        W39726   4.852  17.577  15.663  0.0271 -0.2541 -0.1347
19447W        W39727  17.255   7.771   3.857 -0.0251  0.0864 -0.0018
19448W        W39728   8.451  14.179   3.242  0.1183 -0.0206 -0.1626
19449W        W39729  14.075  13.980   3.136 -0.1265  0.3100  0.2593
19450W        W39730   5.687  14.254  14.124  0.1587  0.0855 -0.0665
19451W        W39731   3.005   2.751   1.643 -0.1980  0.1023 -0.3065
19452W        W39732  10.135   1.875  12.989  0.0447 -0.0707 -0.0302
19453W        W39733  15.332  16.162   4.183 -0.0311  0.1420 -0.0357
19454W        W39734  17.067  13.216   2.837 -0.3907  0.4538 -0.1021
19455W        W39735   4.880  15.285  16.218  0.0285 -0.2523  0.0680
19456W        W39736  11.604   7.863  12.544 -0.2638 -0.0288 -0.0503
19457W        W39737   3.222  12.891   0.995  0.0334 -0.2276  0.2873
19458W        W39738   3.431  10.774   5.750  0.2513 -0.0008  0.2787
19459W        W39739   4.861  11.578  12.876 -0.1393 -0.1351 -0.2792
19460W        W39740   0.978  17.653   2.747  0.0066  0.2380 -0.0421
19461W        W39741  10.245  11.560   4.892  0.3030  0.1634  0.1938
19462W        W39742  10.527  14.377   3.565 -0.3292 -0.1586  0.0102
19463W        W39743   2.477   6.597  12.779  0.2474  0.0910 -0.0802
19464W        W39744  16.303  13.672   1.293 -0.0874 -0.4070  0.0005
19465W        W39745   7.881  13.189   3.269  0.0818  0.0496 -0.1647
19466W        W39746   0.201   0.910   0.687 -0.0193 -0.0976  0.2139
19467W        W39747   1.791   2.086  12.901  0.1805 -0.0003 -0.0219
19468W        W39748   9.686   2.831   1.617 -0.1641 -0.0119  0.1032
19469W        W39749   3.308   3.642  14.043 -0.0973  0.0392 -0.1678
19470W        W39750  12.213  12.403  11.624 -0.0963  0.1422 -0.1576
19471W        W39751   9.469  17.245  16.577  0.2372 -0.3493 -0.0537
19472W        W39752   1.251   9.276   3.197 -0.1000  0.0559 -0.0633
19473W        W39753   8.477   7.974  13.002 -0.1972  0.2653  0.3021
19474W        W39754   7.772  14.627   4.382  0.3673 -0.0475 -0.0549
19475W        W39755   4.379  17.681  15.638 -0.2572  0.2377 -0.0211
19476W        W39756  11.980   7.966  12.187  0.2338 -0.2926 -0.0659
19477W        W39757  17.330  15.257   0.394 -0.0266  0.1002 -0.0541
19478W        W39758   1.121   8.558  12.401  0.3817  0.1269  0.0483
19479W        W39759  14.660  12.850   4.330 -0.0347  0.0483  0.2174
19480W        W39760   6.936   1.770  13.118  0.2050  0.0546  0.2552
19481W        W39761   9.105  15.168  12.268  0.1126  0.1015  0.1710
19482W        W39762  12.985  17.324   0.226 -0.1490 -0.2058 -0.2039
19483W        W39763  10.562  17.568  16.682  0.2960  0.1743 -0.2296
19484W        W39764   3.461   1.320   1.102  0.2260 -0.0774 -0.1118
19485W        W39765  11.832   9.851   2.213 -0.0170  0.1574 -0.1014
19486W        W39766   1.369   4.519  12.473 -0.0958 -0.3131 -0.3044
19487W        W39767  13.143  10.461   5.791  0.1896  0.0441  0.0697
19488W        W39768   2.864   9.392  11.401 -0.0328  0.0836 -0.0484
19489W        W39769   0.794   6.091   0.120 -0.6128  0.0567  0.1861
19490W        W39770   4.952   0.341  13.388 -0.3102  0.1142 -0.0941
19491W        W39771  11.473   1.404  15.072  0.1716  0.0718  0.0709
19492W        W39772   1.289  14.104   3.836  0.0756  0.2181  0.3405
19493W        W39773   0.430   2.644  14.083  0.3698  0.0111 -0.0992
19494W        W39774   5.019  15.180   1.833 -0.0631  0.2372 -0.0843
19495W        W39775   3.977   8.460  13.838  0.0447 -0.1077 -0.1230
19496W        W39776   1.822  12.969   1.686  0.1544 -0.1775  0.0824
19497W        W39777   4.715  14.399   1.676 -0.1764  0.1556  0.1977
19498W        W39778  17.934  15.233  12.048  0.1491  0.0683  0.0967
19499W        W39779  13.769   9.140   1.219  0.0704 -0.3800  0.1124
19500W        W39780   8.637  15.322   1.734  0.1546  0.1707 -0.3618
19501W        W39781  17.246  13.751   2.789 -0.0807  0.1191  0.2640
19502W        W39782  17.962   1.485   4.606  0.2003 -0.3646  0.0462
19503W        W39783  11.079   6.389   2.530 -0.0784 -0.1788  0.2714
19504W        W39784  13.729   9.692   2.441  0.1478 -0.2737 -0.0771
19505W        W39785  10.834   8.316  15.820 -0.0297  0.1975  0.4380
19506W        W39786   2.089   8.457  12.783 -0.2044  0.0324 -0.2656
19507W        W39787  11.164  10.411   0.737  0.4384 -0.1206 -0.3487
19508W        W39788  11.784  15.321  15.507  0.2341 -0.2866  0.1075
19509W        W39789  16.600   4.175  15.562  0.0892  0.0674 -0.2595
19510W        W39790   8.059  11.579  13.389 -0.0343 -0.2542  0.0805
19511W        W39791   6.377  13.885  16.636 -0.0075 -0.0031  0.2149
19512W        W39792  15.838   0.804  16.405 -0.0901 -0.0037 -0.0294
19513W        W39793   0.913   7.152   1.304  0.3540  0.3355  0.0619
19514W        W39794  12.083   9.986   5.420 -0.0245  0.0847  0.3144
19515W        W39795  14.882   7.950   4.745  0.1149  0.1428 -0.0849
19516W        W39796  12.045  16.193  11.555  0.3173  0.0976 -0.0544
19517W        W39797  11.874  11.113  15.399 -0.0482 -0.2098 -0.1907
19518W        W39798   4.694  10.661   4.560  0.5282 -0.0256 -0.1616
19519W        W39799   0.439  17.780  12.176  0.2354 -0.1631  0.1341
19520W        W39800   9.106   1.882  14.302  0.0658 -0.1257  0.0075
19521W        W39801   9.341   1.592   2.205  0.0876  0.3884 -0.2467
19522W        W39802  13.227   4.373  12.269  0.1729 -0.2176  0.1849
19523W        W39803   2.441  17.873  12.011  0.2074  0.3165  0.0691
19524W        W39804   8.819  14.573  16.233  0.0702  0.1640 -0.0314
19525W        W39805  14.948   2.144   1.175  0.2016 -0.1192  0.0814
19526W        W39806  11.757   4.528  13.339  0.1559 -0.0854  0.2170
19527W        W39807   2.216   4.255  12.237 -0.0128 -0.2174 -0.1993
19528W        W39808  15.826   8.518   2.397 -0.0250  0.1784 -0.0060
19529W        W39809  15.892  15.837   2.259  0.0095  0.2094  0.1133
19530W        W39810   5.205  17.081   0.191 -0.2217  0.0202 -0.2446
19531W        W39811  14.757  16.571   4.111 -0.2528 -0.2867 -0.1471
19532W        W39812  14.023  16.400   1.248 -0.2108  0.2525  0.1976
19533W        W39813   9.090  10.908  15.111 -0.1529  0.0838 -0.1286
19534W        W39814   2.849   3.920  14.358  0.2434  0.2006  0.0591
19535W        W39815  17.828  13.570  16.033  0.1405 -0.1499 -0.1824
19536W        W39816   1.351  17.904   0.430  0.0532 -0.0209 -0.0478
19537W        W39817   3.651   2.666   4.768  0.0506 -0.1749  0.1563
19538W        W39818  14.539   4.281  12.052 -0.3031  0.2146  0.1440
19539W        W39819  10.963  14.608  12.815  0.0800 -0.2924  0.0694
19540W        W39820   6.908   9.721  14.369 -0.2498  0.1480  0.0272
19541W        W39821   0.181  15.121   1.901 -0.1171 -0.1003 -0.0752
19542W        W39822   3.819  10.510  12.501 -0.0703  0.1062 -0.1416
19543W        W39823   2.807  14.571   2.228 -0.2476 -0.0657 -0.3032
19544W        W39824  11.298   7.606   4.365  0.3032  0.0535  0.1589
19545W        W39825  17.911  17.146  13.818  0.0361  0.0259 -0.1391
19546W        W39826   1.373   1.362  13.682 -0.2478 -0.2014  0.0474
19547W        W39827  13.479  16.491  14.523  0.0130  0.2093 -0.1665
19548W        W39828   0.923   3.189   4.729 -0.0427 -0.2706 -0.0374
19549W        W39829   5.028  12.839   0.226  0.0269 -0.0853 -0.0740
19550W        W39830   1.892  17.406   4.929  0.2839  0.2928  0.0422
19551W        W39831  14.417   8.195   4.741  0.0042 -0.1906  0.0495
19552W        W39832  16.778   7.629  13.082 -0.0510 -0.1435  0.1625
19553W        W39833  15.870   9.583  13.412 -0.2106 -0.1199 -0.1129
19554W        W39834   2.963   3.989  11.620  0.3831 -0.1462  0.1608
19555W        W39835  14.818   4.186  14.986  0.0713  0.0916 -0.2021
19556W        W39836  14.931   8.121  16.180 -0.4623 -0.1204 -0.1241
19557W        W39837  10.051  15.925   3.694  0.0262  0.1479 -0.1291
19558W        W39838  11.958   7.761  16.574  0.1505 -0.0013 -0.2264
19559W        W39839   0.721   2.641  13.578 -0.1072  0.0292 -0.3462
19560W        W39840   9.242  13.812   0.650 -0.1971 -0.3025  0.2345
19561W        W39841   4.272   7.738  13.227 -0.3515 -0.1129 -0.1926
19562W        W39842  16.818   1.884   3.946 -0.0570 -0.0008  0.3035
19563W        W39843  15.319  16.364   1.133 -0.0282 -0.1186  0.1095
19564W        W39844  12.188   1.684   2.274  0.4118  0.1576  0.0286
19565W        W39845   0.752   3.850   3.017 -0.2517  0.2468  0.2620
19566W        W39846   6.877   5.258  12.991 -0.0723 -0.2403 -0.3093
19567W        W39847   0.956   7.940  15.083  0.2661  0.0310 -0.1891
19568W        W39848   3.588   6.938  11.850  0.1460  0.0339  0.1650
19569W        W39849  12.077  13.301   1.648 -0.1166 -0.1720 -0.0376
19570W        W39850   3.517   8.762   1.006 -0.0614 -0.2480 -0.2921
19571W        W39851   5.493   0.143   2.672  0.0834 -0.5585  0.0381
19572W        W39852  10.212   2.938  15.978 -0.0052 -0.0196  0.3724
19573W        W39853  15.685   8.683   1.710 -0.1740  0.1170  0.0961
19574W        W39854  14.777   8.665  15.223 -0.1453 -0.0259  0.1612
19575W        W39855   0.661   3.094  13.927  0.2579 -0.0814  0.0637
19576W        W39856  11.357  12.088   1.940  0.0096 -0.0030  0.0139
19577W        W39857  10.726   9.399   0.902  0.1143 -0.2042  0.0127
19578W        W39858   5.321   4.297   2.437 -0.1001 -0.0671  0.0699
19579W        W39859  14.327  11.127   0.649  0.1106  0.1453  0.2843
19580W        W39860   2.679  11.698   3.847  0.0249 -0.0240  0.2597
19581W        W39861   8.398   0.075   1.214  0.0244  0.1444 -0.2566
19582W        W39862  15.930  17.521  16.448  0.2437  0.1519  0.0673
19583W        W39863  10.038   4.443  14.746  0.2636 -0.2795  0.1136
19584W        W39864   3.373  17.174  15.345  0.1408  0.0181  0.0449
19585W        W39865   2.009  14.924   0.858 -0.1703  0.1178 -0.0344
19586W        W39866   9.254  14.800  13.663  0.1945 -0.2090  0.3000
19587W        W39867   8.735   0.281   3.515 -0.0120 -0.0133 -0.3277
19588W        W39868  11.352  17.679   4.475  0.1156  0.0382  0.1816
19589W        W39869  13.319   1.142   3.479 -0.0834  0.0915 -0.3346
19590W        W39870   8.364   2.819  15.233 -0.2230 -0.0955 -0.0035
19591W        W39871   5.461  11.289   4.719 -0.0580  0.0589 -0.1447
19592W        W39872   2.310  13.918  16.088 -0.0493 -0.0708 -0.0536
19593W        W39873  12.683   0.874  15.444  0.2532  0.1078 -0.3889
19594W        W39874  17.635  13.949  14.915 -0.1138 -0.0564  0.6174
19595W        W39875   1.802  14.003   3.703 -0.1538  0.0872  0.1579
19596W        W39876  16.185   0.275  15.904 -0.1875 -0.0886  0.1627
19597W        W39877   2.499   7.617   2.724 -0.1852 -0.1078 -0.4149
19598W        W39878  16.366   6.011  12.985 -0.0957 -0.0497  0.2702
19599W        W39879  15.507   1.721   2.345  0.1771 -0.0913 -0.0450
19600W        W39880  13.776   0.799   1.589  0.0845 -0.2673 -0.0291
19601W        W39881   6.987   2.108   3.843 -0.1355 -0.3176  0.0228
19602W        W39882  10.263  11.159   3.906 -0.1972  0.3848 -0.1266
19603W        W39883  17.185   9.108  16.548  0.0730 -0.2800 -0.2935
19604W        W39884  17.361  10.322  11.631 -0.1436 -0.2267  0.0191
19605W        W39885   7.373   2.980  11.999  0.3939  0.0886  0.1251
19606W        W39886   5.251   6.048   4.607  0.1589  0.1448 -0.1821
19607W        W39887  15.572   5.978   0.923  0.0290  0.6050  0.3819
19608W        W39888   7.409  15.622  13.374  0.0575 -0.1294 -0.1364
19609W        W39889   6.614  17.028   3.834 -0.2840  0.3461 -0.4023
19610W        W39890  15.707   2.152  14.542  0.0833 -0.0954 -0.1780
19611W        W39891   0.106   7.416   1.213 -0.1823 -0.3736 -0.2438
19612W        W39892   5.545   9.611   1.376  0.3851  0.1151 -0.0097
19613W        W39893   9.800  16.476  16.287  0.0390  0.0271 -0.1835
19614W        W39894   8.697   3.676  16.471  0.2692 -0.3753 -0.0470
19615W        W39895  15.416   4.838  12.745  0.2867  0.1018  0.1062
19616W        W39896   9.028   9.361   3.528  0.0116 -0.1693  0.0024
19617W        W39897  16.284   1.695  13.152  0.0407 -0.1255 -0.0568
19618W        W39898   7.934  15.202   0.647  0.1202  0.2416 -0.1085
19619W        W39899   1.813  12.111   2.210  0.0371 -0.0362  0.1477
19620W        W39900  13.850   9.796  12.107  0.3822  0.0510 -0.0374
19621W        W39901   8.885   8.267  14.685 -0.2558  0.2337 -0.1549
19622W        W39902  14.691   8.358  14.793  0.1257  0.3482  0.2351
19623W        W39903  11.896   3.101   2.287  0.0546 -0.0000 -0.3311
19624W        W39904  17.113   7.319  12.777 -0.0064  0.2725 -0.1552
19625W        W39905   9.617   6.834   0.070 -0.1090  0.2610 -0.0802
19626W        W39906   4.338   2.776  15.008 -0.0493 -0.2247  0.1655
19627W        W39907  13.396   2.173  13.844  0.3356  0.0512 -0.3554
19628W        W39908  11.807   8.306   4.131 -0.2000 -0.1070  0.1344
19629W        W39909   0.647   5.090   4.358  0.3248 -0.2125  0.1042
19630W        W39910   3.489   7.469  12.296  0.0449  0.1139 -0.0372
19631W        W39911   1.741   9.405   3.282 -0.1980  0.0866 -0.2429
19632W        W39912   2.702  13.475   3.090 -0.1116 -0.1105 -0.0537
19633W        W39913  17.536  13.318   2.936  0.2464  0.2097  0.2401
19634W        W39914  12.102   5.899  15.104 -0.3215  0.4096 -0.0382
19635W        W39915   9.717   4.715   0.076 -0.2421 -0.1487  0.2182
19636W        W39916  13.305  11.638   0.421 -0.1746 -0.0601  0.0471
19637W        W39917  13.940   6.171   0.293 -0.0395  0.3302  0.3552
19638W        W39918   3.824   8.335   0.184  0.1207  0.0035  0.0575
19639W        W39919   3.452   2.728  14.513  0.0646  0.0571 -0.1507
19640W        W39920  14.029   0.960  16.667 -0.0670  0.1036 -0.2309
19641W        W39921   8.138   7.342   4.295  0.3111  0.0968  0.4430
19642W        W39922   9.003   3.365  15.472  0.0185  0.0713 -0.0134
19643W        W39923  12.850   8.513  14.602  0.0431 -0.3965  0.2760
19644W        W39924  10.293  11.868   4.477 -0.3772 -0.0810  0.2586
19645W        W39925   0.548  13.682   4.635 -0.1793  0.0461 -0.0197
19646W        W39926  11.677   7.253  12.616 -0.2422  0.1394  0.3373
19647W        W39927  10.022   0.172  16.170 -0.1652  0.1791  0.1837
19648W        W39928  17.069  14.379  14.287  0.1095  0.1233  0.0599
19649W        W39929   1.487   7.890  16.358 -0.1785 -0.0490  0.1179
19650W        W39930   3.139   8.392   1.824  0.1261  0.2421  0.0045
19651W        W39931  14.593  12.133  12.312 -0.0054  0.0939  0.0456
19652W        W39932  11.517   2.935   1.926  0.3826 -0.1391  0.2125
19653W        W39933   8.982   0.984  12.516  0.1071 -0.1494 -0.1551
19654W        W39934   6.127   7.076   5.121  0.1438  0.1086 -0.0018
19655W        W39935   0.976  14.907   2.641 -0.0295 -0.4245  0.0839
19656W        W39936  13.970  15.314  16.366 -0.1000 -0.0554 -0.1842
19657W        W39937  15.640   3.264   4.234 -0.2444  0.0655  0.1425
19658W        W39938  13.054  15.375   3.993 -0.0578 -0.0636  0.0704
19659W        W39939   8.622   1.985  11.928 -0.2251  0.1313 -0.3326
19660W        W39940  13.190  17.597  16.130  0.0351  0.1625 -0.2797
19661W        W39941  15.747   5.288  13.402  0.2379 -0.2366  0.3106
19662W        W39942   1.426  16.099  13.599  0.1788 -0.2174 -0.3799
19663W        W39943   9.024   5.474   0.394 -0.0087 -0.0342 -0.1326
19664W        W39944  13.901   8.312  13.326  0.1583 -0.0904 -0.0394
19665W        W39945   5.170  12.480   2.953  0.2902  0.2408 -0.2542
19666W        W39946  16.603  13.066   3.123 -0.1134  0.3527 -0.0718
19667W        W39947  12.763  10.103  16.616  0.0610 -0.0744  0.0282
19668W        W39948   2.458  12.805   0.662  0.2741  0.2972  0.0639
19669W        W39949  10.446   2.349  11.286  0.0485 -0.0137  0.0022
19670W        W39950   9.925   8.163   4.059 -0.1869  0.3651 -0.2957
19671W        W39951  17.479  13.072   2.047 -0.2173  0.1026  0.0195
19672W        W39952   3.240  14.015   4.043 -0.1717  0.1581 -0.1756
19673W        W39953   0.672   9.216   2.855  0.2290  0.0439 -0.1254
19674W        W39954   0.145   6.762   3.603 -0.1792 -0.2032  0.0580
19675W        W39955  16.374  16.805  15.482 -0.1137 -0.2099  0.1282
19676W        W39956  11.543  10.743   3.863  0.2132  0.1245 -0.2372
19677W        W39957  10.815   0.295  15.644 -0.2431  0.1134 -0.0435
19678W        W39958  10.030   9.039  13.500  0.0701  0.2214  0.2373
19679W        W39959  14.646  14.788  13.823  0.1209  0.0843 -0.1028
19680W        W39960  15.263  16.228   3.492 -0.0192  0.0171  0.0351
19681W        W39961   6.326  13.346  16.571 -0.1599  0.0694 -0.2325
19682W        W39962   2.311   9.636   0.638 -0.1063 -0.0512  0.1878
19683W        W39963  16.402  11.454  12.751 -0.0104  0.0319 -0.0511
19684W        W39964  14.581  17.750   3.355  0.1720  0.3209 -0.0104
19685W        W39965  14.368  10.837   3.645 -0.2645  0.2039 -0.1937
19686W        W39966   6.320   6.958  13.037  0.3601 -0.0004  0.0937
19687W        W39967   3.907   3.766   0.297  0.0663  0.0407  0.1110
19688W        W39968  11.739  15.679   2.421  0.1705 -0.3930 -0.1176
19689W        W39969  14.171   7.853  13.594  0.2132  0.0578 -0.2919
19690W        W39970  17.890  15.025   3.535 -0.0738  0.1577  0.0945
19691W        W39971  17.734   0.339   3.415 -0.0940  0.2952  0.0322
19692W        W39972  13.645   7.986  13.569 -0.0871  0.1390  0.1854
19693W        W39973   2.555  12.499  16.521  0.1935 -0.0079 -0.3552
19694W        W39974  13.304   1.629  11.439 -0.3472 -0.2395  0.0069
19695W        W39975  10.661   6.221   2.695 -0.1493 -0.1142 -0.3316
19696W        W39976  16.939   2.731  15.749 -0.0194 -0.0038  0.3398
19697W        W39977   1.505   1.691   2.628  0.0699  0.0701 -0.1322
19698W        W39978   2.892  16.601   4.569 -0.2448  0.0806 -0.0429
19699W        W39979   9.059   0.891   2.391 -0.4261 -0.1730  0.0068
19700W        W39980  11.816   4.099  11.485 -0.1591  0.3617  0.0832
19701W        W39981   5.441   9.000  13.372 -0.3158  0.0508 -0.1845
19702W        W39982   6.115  11.805  13.420 -0.0709  0.0482 -0.0501
19703W        W39983   8.469   7.046   0.773  0.1819 -0.3217  0.0592
19704W        W39984  10.201   1.227   3.167 -0.3999  0.2468 -0.2273
19705W        W39985   3.784  14.154  15.060 -0.5122 -0.0165 -0.1281
19706W        W39986  11.856   4.615   0.624 -0.1338 -0.0203 -0.0377
19707W        W39987  13.625  13.556  14.290  0.0752 -0.5143  0.0661
19708W        W39988  13.421   8.142   0.661  0.2414 -0.1497  0.0585
19709W        W39989  13.983   3.927   0.509  0.3859  0.3961 -0.2683
19710W        W39990   3.688   0.292  12.228  0.2160 -0.1208  0.0089
19711W        W39991   8.961  14.728   0.628  0.2982  0.2532  0.0919
19712W        W39992   1.148   1.130   3.284  0.0429  0.2048  0.1383
19713W        W39993   3.727   9.378  14.901  0.1420  0.4465 -0.0449
19714W        W39994  11.055  10.609  13.989  0.0188  0.0716  0.0537
19715W        W39995   5.436   4.210  12.540  0.0120 -0.2116 -0.0056
19716W        W39996   6.967   8.820  15.189  0.1947  0.0421  0.0499
19717W        W39997   4.930   6.182   2.146 -0.1652  0.1425 -0.2158
19718W        W39998  15.172  14.724  12.631 -0.3521  0.1740  0.1526
19719W        W39999  10.808   1.179   0.387 -0.2779  0.0894  0.0660
19720W        W40000   8.096  14.721  15.325  0.0580  0.2238  0.1037
19721W        W40001   4.203   5.447   2.071  0.1114  0.1507 -0.2897
19722W        W40002   8.441   0.138  13.893 -0.0145  0.3463 -0.1574
19723W        W40003   6.050   4.641   1.006  0.0371  0.2262 -0.0217
19724W        W40004   7.341  16.132  14.639 -0.2369 -0.0478  0.0189
19725W        W40005   7.488   0.557  15.370 -0.0047  0.0800  0.0887
19726W        W40006   1.562  11.696   2.223  0.2484 -0.2106 -0.1607
19727W        W40007   4.699   1.513   0.595 -0.0008 -0.1037 -0.1716
19728W        W40008   6.910  12.955  13.304  0.0228 -0.1066  0.1366
19729W        W40009   7.831   0.918  15.212 -0.1977 -0.1418  0.2968
19730W        W40010   7.999  17.081  15.978 -0.1463 -0.3039  0.0931
19731W        W40011  10.333   6.878   4.299 -0.2557  0.2266  0.0123
19732W        W40012  13.270  11.635  13.771 -0.0490 -0.0244 -0.0824
19733W        W40013   2.902   8.306   1.367 -0.2164 -0.0072  0.1561
19734W        W40014   6.107  17.592   1.474 -0.2284  0.1106 -0.1622
19735W        W40015   0.099   1.814   1.091  0.1422  0.0365  0.2203
19736W        W40016   1.299  17.366  13.851  0.1671 -0.0003 -0.0873
19737W        W40017  11.461   9.428   1.431 -0.4483 -0.1148 -0.1676
19738W        W40018  11.359  13.405  15.398  0.1111 -0.5198  0.0842
19739W        W40019   2.802  11.527   4.548 -0.0232 -0.1685  0.0074
19740W        W40020   7.789  14.797   1.488  0.3663 -0.0316  0.1137
19741W        W40021  15.353  12.041   2.540  0.0729 -0.0181 -0.3218
19742W        W40022  17.729  12.054  15.986 -0.2250  0.0732 -0.1127
19743W        W40023  16.327   8.650  14.128  0.0625 -0.0831 -0.1593
19744W        W40024  12.572   2.764   5.739 -0.1945 -0.0954 -0.1599
19745W        W40025   6.882   3.552  12.432 -0.0743 -0.2573  0.0843
19746W        W40026  16.899   6.953   4.186  0.0555  0.1302 -0.1108
19747W        W40027   7.892  10.485  14.330  0.2287 -0.0111  0.1883
19748W        W40028  11.794  15.176   0.274 -0.0780  0.2988 -0.1586
19749W        W40029  16.810   5.739  13.127 -0.2203 -0.1210 -0.1522
19750W        W40030  15.952   3.546  12.407 -0.0256 -0.0523 -0.1393
19751W        W40031   1.111   0.389   0.515  0.4586  0.0149  0.3245
19752W        W40032  15.881   8.466   3.692  0.0715 -0.0155 -0.1236
19753W        W40033   5.121   7.454  12.371  0.1201 -0.1205 -0.1839
19754W        W40034  16.546  17.738  13.032  0.0914  0.0137  0.1553
19755W        W40035  13.096   7.796   4.292  0.2887 -0.0570  0.1038
19756W        W40036  17.747   2.775  16.587 -0.0756 -0.1153 -0.4045
19757W        W40037   4.661   0.321  16.277  0.0622  0.0058 -0.1602
19758W        W40038  14.167   0.410   1.810 -0.1970 -0.0840  0.2251
19759W        W40039   0.834  12.425   3.742  0.2946  0.1289  0.5846
19760W        W40040   8.428  12.315  14.119  0.2202 -0.4455  0.1720
19761W        W40041  16.154  11.208  12.356  0.3054 -0.2168  0.1000
19762W        W40042  15.341  12.703   2.314  0.4145 -0.2757 -0.0096
19763W        W40043   3.122  12.314   1.063 -0.1943 -0.0214  0.1510
19764W        W40044  11.740  10.313   2.503 -0.0004 -0.2277  0.3312
19765W        W40045   9.918   8.701   2.185  0.1456  0.0902  0.3896
19766W        W40046   4.720  12.431  12.662 -0.1063  0.1102 -0.2061
19767W        W40047  14.153   9.638  15.890 -0.0680 -0.1123  0.1092
19768W        W40048  14.816   8.537   1.900  0.2823 -0.3299 -0.1482
19769W        W40049   9.798   5.381   1.061 -0.0647 -0.0763  0.1739
19770W        W40050  11.192   3.102   2.922 -0.1407 -0.1317  0.1213
19771W        W40051   8.345   1.231   2.418 -0.2619 -0.0454  0.5980
19772W        W40052   4.885   2.021  11.973 -0.1665 -0.1050  0.1568
19773W        W40053   8.750   3.901  13.126 -0.4009 -0.2358 -0.2594
19774W        W40054  12.444  13.037  14.092  0.1209  0.3956 -0.0281
19775W        W40055  13.722  17.008  12.595 -0.0510 -0.1370 -0.0349
19776W        W40056   9.149  10.244   3.897  0.1639 -0.0835  0.0572
19777W        W40057   2.143   3.838  16.539 -0.1429  0.1519 -0.2846
19778W        W40058  10.048   3.554  12.569 -0.2394  0.0873  0.0582
19779W        W40059   9.136   5.797  14.466  0.0446  0.0765  0.1550
19780W        W40060   5.106   2.627  13.891 -0.1697 -0.0489  0.0854
19781W        W40061  11.316   2.359   3.473  0.1512 -0.0360  0.0037
19782W        W40062   1.065  17.536   1.956  0.2419 -0.2652  0.1017
19783W        W40063   4.038   5.409  13.118 -0.3595 -0.3563  0.1387
19784W        W40064  10.780   8.085  14.029  0.0141  0.1560  0.1504
19785W        W40065   4.618  10.281  15.764  0.1611 -0.0233  0.1916
19786W        W40066   6.954  15.212   0.578  0.2260 -0.1780  0.1520
19787W        W40067   0.877  17.308   0.561  0.1016 -0.0159 -0.0179
19788W        W40068   3.662   2.702   3.516  0.0090 -0.0178  0.2339
19789W        W40069   0.528  17.490   2.878 -0.0672 -0.1360 -0.1535
19790W        W40070  10.697   5.996   3.236  0.1319 -0.2010  0.1968
19791W        W40071  15.218   3.886  14.777  0.0234  0.3952 -0.1456
19792W        W40072  17.577  14.055   3.089 -0.0777  0.0967 -0.1544
19793W        W40073   6.287   4.932  12.340  0.0066  0.2120  0.2071
19794W        W40074   8.381   7.214  16.311  0.1939 -0.0754 -0.1527
19795W        W40075  17.951  17.268  13.041 -0.1195 -0.2871 -0.2284
19796W        W40076   5.997   0.170  14.195 -0.1573 -0.2655  0.1094
19797W        W40077  11.529  17.757   0.098 -0.0745  0.3397 -0.0005
19798W        W40078   8.239   8.520  12.312 -0.0133 -0.2942 -0.0366
19799W        W40079  14.157  11.603  13.651 -0.2077  0.1557 -0.1383
19800W        W40080  15.657   7.170   0.575  0.4322  0.2007 -0.0203
19801W        W40081   3.579  17.161  14.137  0.1781 -0.0800  0.1381
19802W        W40082   9.847   5.876   0.801 -0.0285 -0.1424 -0.1615
19803W        W40083  15.156   6.449  13.596 -0.2384 -0.0303  0.0803
19804W        W40084   8.696   7.277   1.304  0.2394 -0.1014  0.2214
19805W        W40085   6.971  12.412  13.319  0.1056  0.2350 -0.2365
19806W        W40086  16.432   2.041  15.765 -0.0919 -0.0064  0.0960
19807W        W40087  11.671   1.261   3.720 -0.1378  0.0297  0.2844
19808W        W40088   4.793  17.135   0.466  0.0744 -0.2340 -0.0115
19809W        W40089   6.192   1.700  11.957 -0.1145  0.0697  0.3113
19810W        W40090   0.935  11.270  14.769  0.3564  0.0435  0.1553
19811W        W40091   2.644   0.552  15.716  0.2766  0.2190  0.4676
19812W        W40092  10.640  11.594  14.906 -0.0880 -0.0624 -0.0623
19813W        W40093  10.900  16.026   1.319 -0.2265  0.0106  0.3354
19814W        W40094   0.771   6.868   1.723  0.0911 -0.1536  0.0035
19815W        W40095   5.183   8.509  14.001  0.1606 -0.0378  0.0745
19816W        W40096  16.203   8.179   0.263  0.0966  0.0197  0.1320
19817W        W40097   0.611   9.076  16.241  0.0128  0.1906 -0.0639
19818W        W40098  14.330  12.052   4.660 -0.2522 -0.0016 -0.1522
19819W        W40099  14.775  11.221  16.013  0.3417 -0.0549 -0.0968
19820W        W40100  15.594   8.264   1.062 -0.3834 -0.2359 -0.1042
19821W        W40101  16.594   0.429  13.931  0.0342  0.1260  0.0053
19822W        W40102  17.525  14.557   4.724  0.1425 -0.0948  0.1482
19823W        W40103   6.045  15.245  12.358  0.0872 -0.0481 -0.3782
19824W        W40104  13.794  12.105   4.038 -0.1376 -0.2408 -0.2872
19825W        W40105   7.079   2.586   2.631  0.0318 -0.2791 -0.7080
19826W        W40106   5.126  14.766   3.925 -0.3400 -0.3671  0.0798
19827W        W40107   1.518  12.499  15.691  0.0310  0.2220  0.1277
19828W        W40108  16.690   7.519  12.049 -0.1229  0.0461  0.1413
19829W        W40109  16.414  13.415  15.780 -0.0601 -0.4455 -0.2938
19830W        W40110  16.435   5.620   5.084  0.0342 -0.2087  0.0376
19831W        W40111   6.468   2.443  13.525  0.0367  0.1192  0.0030
19832W        W40112  15.636  15.783   0.641 -0.1711 -0.0653  0.2790
19833W        W40113   6.714   3.901  14.035  0.2637 -0.1196 -0.1290
19834W        W40114  10.975  15.716  15.476  0.0688 -0.2746  0.2281
19835W        W40115  13.070   7.102  12.225  0.0141 -0.1879  0.1052
19836W        W40116  15.683  16.812   2.030  0.0330  0.1850 -0.1347
19837W        W40117   2.353  11.436   0.336 -0.0693  0.1426 -0.0420
19838W        W40118   1.914  11.096   4.618 -0.0391 -0.1367 -0.0182
19839W        W40119  15.281   6.121  14.564 -0.0183  0.0452  0.1528
19840W        W40120   8.693   3.120  12.205 -0.1533 -0.1179  0.0176
19841W        W40121   4.833   2.327  15.637  0.0525 -0.1077 -0.2399
19842W        W40122  15.209   7.805  15.976  0.0539 -0.0517  0.2379
19843W        W40123   2.144  17.197   0.968  0.0275 -0.0696 -0.2508
19844W        W40124   7.865   2.425  12.170 -0.1042 -0.1613  0.1105
19845W        W40125   5.459   6.585  15.506 -0.0164  0.2146  0.1485
19846W        W40126   3.989  12.093  12.671 -0.0486  0.0752 -0.2858
19847W        W40127   3.105  14.097  14.612  0.1355 -0.1374  0.0042
19848W        W40128  13.093   9.070  13.543  0.2331  0.1638 -0.0492
19849W        W40129  16.344   9.682   3.744  0.0844  0.0045  0.0074
19850W        W40130  10.208  11.957  16.391 -0.2317  0.3654  0.1532
19851W        W40131  15.119   4.221  16.462 -0.4201  0.0720 -0.0049
19852W        W40132   4.796   4.512   1.343 -0.1157  0.1006  0.2522
19853W        W40133   1.644  13.535   0.564  0.3470  0.0919  0.2281
19854W        W40134  11.525   2.930  15.783 -0.0876  0.0318  0.1466
19855W        W40135   1.672   4.547  15.938 -0.3107  0.1933 -0.3660
19856W        W40136  10.707  15.821   3.792 -0.0521  0.0895  0.2352
19857W        W40137  15.165  11.278  16.390  0.1212 -0.0865 -0.1175
19858W        W40138   2.368  12.879   2.482  0.1536 -0.0014  0.1599
19859W        W40139   7.005   4.732  16.374  0.0824  0.0563 -0.0232
19860W        W40140  10.814   3.563  15.779  0.1305 -0.1811 -0.1067
19861W        W40141  13.564  17.866  13.635 -0.1695 -0.1249 -0.2691
19862W        W40142   4.891   4.884  13.103  0.1236  0.0823 -0.3510
19863W        W40143   9.858  17.002   0.279 -0.2563 -0.0502 -0.0618
19864W        W40144   0.260   7.633  16.249 -0.2344  0.1837 -0.0741
19865W        W40145   0.927   4.703   1.502  0.0845 -0.1486  0.1793
19866W        W40146  12.936   5.371   3.917 -0.0066 -0.3470 -0.0944
19867W        W40147   6.129   5.157   0.914  0.0252 -0.2547  0.2042
19868W        W40148  17.084   6.088  16.451 -0.0082 -0.2645 -0.0099
19869W        W40149   5.099   7.271  16.582 -0.2284  0.0981 -0.0509
19870W        W40150  14.516   8.101  16.519 -0.3539 -0.3065  0.3335
19871W        W40151   9.124  16.159   3.374  0.1912  0.0714 -0.2652
19872W        W40152  17.982  15.643   1.878 -0.1020  0.1842  0.1933
19873W        W40153   6.596   3.829   4.601  0.0546  0.0919  0.1554
19874W        W40154   2.463   3.411  14.064  0.0135 -0.0646  0.0602
19875W        W40155   9.516  15.900   2.113  0.1431  0.1530 -0.0824
19876W        W40156  13.504   6.982  16.670  0.1564  0.0826 -0.1152
19877W        W40157   2.719  17.718  14.743  0.0424  0.1238  0.0409
19878W        W40158   0.054  12.149   1.644  0.0867  0.0562 -0.2076
19879W        W40159  15.388  17.008   4.171  0.2292  0.2706  0.0152
19880W        W40160   8.803  11.290   1.943 -0.1812 -0.3079  0.0226
19881W        W40161  10.678   2.357   2.405 -0.0301  0.0704 -0.1226
19882W        W40162   4.862   4.604  15.225 -0.1182 -0.0694 -0.1700
19883W        W40163   6.829   7.354  13.994 -0.0734  0.2881  0.0200
19884W        W40164  15.533   4.284  15.135  0.1189  0.3253  0.2682
19885W        W40165  10.136  13.596   1.079 -0.0891 -0.3098 -0.3751
19886W        W40166  15.679   5.833   3.471  0.0968 -0.2119 -0.3538
19887W        W40167   0.510   4.303   3.968 -0.1123 -0.1923 -0.2351
19888W        W40168  14.805   9.297  13.094 -0.0776 -0.0346 -0.0884
19889W        W40169  14.772  17.844  13.864  0.0804 -0.0988  0.1079
19890W        W40170  10.686  12.332  12.245  0.4525 -0.0056 -0.0041
19891W        W40171   9.228   1.476  12.449 -0.2992 -0.1355 -0.0168
19892W        W40172  17.024  16.772   2.715 -0.1183 -0.0122  0.0450
19893W        W40173  17.818   0.467   2.108  0.0139  0.4824 -0.0533
19894W        W40174   0.970   8.577   0.359  0.1903  0.0352 -0.0680
19895W        W40175   9.461  17.217  12.445  0.1942 -0.0515  0.2779
19896W        W40176   3.320   7.352  14.384  0.2882  0.2837 -0.0253
19897W        W40177   5.170   7.077  15.732  0.0877  0.0009 -0.0754
19898W        W40178  12.352   9.082   2.778 -0.2847 -0.2543 -0.0168
19899W        W40179   4.425   7.152  12.319 -0.1552  0.0673  0.0751
19900W        W40180   3.560   1.276   2.153 -0.0201 -0.0337 -0.1504
19901W        W40181  17.067  11.664   3.330 -0.3965  0.1695 -0.3188
19902W        W40182  10.916   7.016   2.271  0.0568 -0.1396  0.0863
19903W        W40183   7.096   6.766   4.507  0.1060  0.0325 -0.0797
19904W        W40184  16.899  15.567   4.265 -0.2775 -0.1360 -0.1637
19905W        W40185   9.737   1.991  11.881 -0.1960  0.0834  0.2905
19906W        W40186   6.930   3.327  14.273  0.2571 -0.3763 -0.0159
19907W        W40187   5.778   9.362  15.081  0.0822 -0.4217 -0.0339
19908W        W40188   8.654   0.886  14.301 -0.1447 -0.0598  0.1612
19909W        W40189   3.130  17.935   1.605 -0.2304 -0.0817  0.0957
19910W        W40190   2.407  10.989   5.211 -0.0436 -0.4708 -0.1246
19911W        W40191   6.865  17.983  13.928  0.0238  0.2964  0.2460
19912W        W40192  12.829   3.184  10.629 -0.0654  0.1008  0.1558
19913W        W40193  13.971  14.476  13.146  0.1237 -0.0704  0.1267
19914W        W40194  11.031   0.884  15.227  0.2589 -0.0677  0.2067
19915W        W40195  11.364   0.269  11.471  0.1971  0.0341 -0.0848
19916W        W40196   2.067  14.883  14.305 -0.2063 -0.1110  0.2098
19917W        W40197  10.597   5.098  11.930 -0.1807  0.2458 -0.2191
19918W        W40198   3.076  12.291  12.268 -0.1007 -0.2123  0.0474
19919W        W40199   5.803   9.407   0.490 -0.0351 -0.0557  0.0743
19920W        W40200  16.427   9.582   2.915 -0.4319 -0.1356  0.0103
19921W        W40201  14.926  13.959   2.845 -0.0887 -0.0566  0.0483
19922W        W40202  17.537   9.137  16.155 -0.1228  0.0706  0.0253
19923W        W40203  16.563   2.966  13.098  0.0299  0.3037 -0.0664
19924W        W40204   7.127   2.428   3.523 -0.2646 -0.1019  0.2616
19925W        W40205   6.330  11.313   2.786  0.0543 -0.1413  0.1384
19926W        W40206  10.851  11.543  14.412 -0.0975  0.1467  0.0929
19927W        W40207  13.950  11.158   1.086 -0.0546 -0.1922  0.1354
19928W        W40208  15.065  16.292  15.502  0.1180  0.2260 -0.2119
19929W        W40209   0.876  12.638  13.864  0.1186  0.0937  0.1882
19930W        W40210  13.944  16.052  16.476 -0.1094 -0.1287 -0.2459
19931W        W40211   7.065   8.006  15.808 -0.2065 -0.2897 -0.2176
19932W        W40212   5.778  10.530   3.657 -0.2334  0.2847  0.0904
19933W        W40213   2.561  16.368  11.142 -0.0105 -0.1238 -0.1321
19934W        W40214   9.065   2.535  13.493  0.4073  0.2191 -0.0832
19935W        W40215   2.254   8.246   0.153  0.2600 -0.0378 -0.0976
19936W        W40216   5.986  17.299  15.718  0.2696 -0.0703  0.2153
19937W        W40217   6.703   1.658  13.910 -0.5076  0.1361  0.0154
19938W        W40218  11.976   3.658   2.665 -0.1632 -0.1675 -0.0588
19939W        W40219   3.348   8.922  15.509  0.0857  0.1370 -0.2306
19940W        W40220  13.025   5.466   2.543  0.0091  0.0882 -0.4272
19941W        W40221  11.971  13.371  15.260 -0.0534 -0.1442  0.2061
19942W        W40222  10.254  17.754  15.289  0.1174 -0.3704  0.0501
19943W        W40223   8.932   2.759  13.917  0.1066 -0.3732 -0.2404
19944W        W40224  12.482   8.603  12.141  0.0292 -0.0150 -0.0581
19945W        W40225  17.199  13.704  14.583 -0.0894 -0.2545 -0.1591
19946W        W40226  11.877   4.445   1.674 -0.0067 -0.1872 -0.0217
19947W        W40227  16.206   9.391   4.654 -0.1147  0.0429  0.3025
19948W        W40228  15.546  10.264  12.473 -0.1195 -0.0657  0.1658
19949W        W40229  17.638   7.917  15.316  0.1518  0.0736  0.1637
19950W        W40230  11.711  17.879  12.272  0.2596 -0.2329  0.1026
19951W        W40231   9.564  14.830  12.298  0.2021 -0.4072 -0.0192
19952W        W40232   0.929   5.005   0.525  0.1590 -0.0283 -0.2067
19953W        W40233  13.855  17.185  14.344 -0.0656 -0.1482  0.1279
19954W        W40234  12.766  16.812   0.983  0.2316 -0.1310  0.1448
19955W        W40235   6.467   2.415  12.012  0.4267 -0.1933 -0.0908
19956W        W40236  15.056   7.482  13.710  0.2124  0.1076  0.0226
19957W        W40237  10.769   9.065   0.391 -0.0734 -0.2277  0.0459
19958W        W40238  10.330  14.025   3.324  0.3332 -0.2202  0.2953
19959W        W40239   9.913  10.053   2.348 -0.1049 -0.1498 -0.0334
19960W        W40240  13.477   5.612  13.810 -0.0410  0.1573 -0.1681
19961W        W40241   0.188  14.558   2.432  0.1915  0.0851 -0.3830
19962W        W40242   3.407   3.008  13.321 -0.2037  0.3550  0.1786
19963W        W40243   3.281  16.681   0.412 -0.1297 -0.2191 -0.1292
19964W        W40244  12.095   9.455  13.716 -0.2042 -0.2060 -0.0954
19965W        W40245   5.481  11.496   6.260  0.1400  0.1724 -0.1600
19966W        W40246  16.892   9.813  16.667  0.1508  0.0442  0.2166
19967W        W40247   0.767  10.356   0.566 -0.2311  0.3889 -0.1936
19968W        W40248   7.706  12.709   4.455  0.1296  0.0960  0.0867
19969W        W40249  16.742   1.904   4.540  0.1568  0.2859  0.1133
19970W        W40250  16.227   5.718  16.285  0.0668 -0.0048 -0.2869
19971W        W40251   3.384   6.492  14.178 -0.1168 -0.2788  0.0101
19972W        W40252   2.487   3.896   0.946 -0.0815 -0.2715 -0.0283
19973W        W40253  12.862  10.096   0.881  0.1099  0.2183 -0.2922
19974W        W40254   1.221   0.970  12.612 -0.5509  0.0205  0.1080
19975W        W40255  12.495   8.216  14.435 -0.2785  0.0761 -0.2063
19976W        W40256  14.809  11.766   4.221 -0.2069  0.1630 -0.0931
19977W        W40257   5.556   4.748   2.490  0.0561 -0.0552  0.0548
19978W        W40258   5.900  13.622   2.680 -0.5054 -0.1457 -0.1540
19979W        W40259  13.457   9.339  16.110 -0.1361  0.1838 -0.2835
19980W        W40260  14.343   7.806   3.392  0.1582 -0.4526  0.0921
19981W        W40261   9.294  16.527   1.478 -0.2779 -0.1559 -0.0930
19982W        W40262   8.903   8.744  13.662 -0.0822  0.0942  0.1147
19983W        W40263   4.098   9.316  13.606 -0.2897  0.2810  0.0095
19984W        W40264  17.988  11.883   4.540 -0.0265 -0.1180  0.0480
19985W        W40265   1.829  12.626  16.195 -0.0485 -0.1507  0.0405
19986W        W40266   3.605   5.352   4.114  0.2218  0.2008  0.0816
19987W        W40267  16.862   7.019  14.603 -0.0270 -0.1234  0.1127
19988W        W40268   9.844   7.465  16.152  0.0537  0.1205 -0.0355
19989W        W40269   7.243   4.017   1.567 -0.0791  0.2604 -0.3116
19990W        W40270  12.420  16.903  14.311  0.1132 -0.0203 -0.0362
19991W        W40271   3.498   1.767   0.448  0.2955 -0.0363  0.1422
19992W        W40272   0.528  16.860  15.650 -0.0708 -0.6119  0.2187
19993W        W40273   0.987   7.602  14.021 -0.0948  0.0447 -0.0796
19994W        W40274  12.565   2.600  15.893  0.1632 -0.0593 -0.0977
19995W        W40275   3.645  16.878  13.332  0.1423 -0.3288  0.1430
19996W        W40276  15.934  15.375   3.159 -0.1805  0.2174  0.0119
19997W        W40277   8.766   3.968   0.184  0.0670  0.1733 -0.0527
19998W        W40278  12.078  12.508  16.567  0.1379 -0.0187 -0.1144
19999W        W40279   9.323  12.382  15.156 -0.1985  0.2204  0.1765
20000W        W40280  15.464  14.358  12.353 -0.0959  0.1096 -0.3993
20001W        W40281   4.368  11.884   0.269 -0.1267  0.2070 -0.1039
20002W        W40282   4.846   9.403   5.110 -0.1167  0.1875 -0.0640
20003W        W40283   2.675  11.849  13.182  0.1115 -0.2183 -0.0699
20004W        W40284   9.053   9.043   0.177 -0.0713 -0.1337  0.2985
20005W        W40285   5.376  11.766  13.122  0.0499  0.1314  0.0160
20006W        W40286  15.044   5.957  16.107  0.0099  0.0163 -0.3458
20007W        W40287   2.216   1.305  15.270  0.2686  0.0309 -0.1064
20008W        W40288   4.215   1.401  15.654 -0.0681 -0.1600  0.2531
20009W        W40289   2.356  11.258  12.945 -0.2217 -0.0471 -0.1469
20010W        W40290   3.071   5.648  15.609 -0.1143 -0.0001  0.4245
20011W        W40291   3.363   5.640   2.371 -0.3482  0.0150 -0.1855
20012W        W40292  16.433   8.141  15.791 -0.1168 -0.2493  0.0289
20013W        W40293  15.285   6.594  12.731  0.0425 -0.0508  0.1248
20014W        W40294   2.491   5.627  16.510 -0.1527  0.0577 -0.2185
20015W        W40295  10.540   0.880   2.992 -0.1618 -0.4231 -0.0590
20016W        W40296  17.276   2.020  15.092 -0.2172 -0.3339  0.0482
20017W        W40297  11.131   2.538   4.329  0.0935  0.1317  0.0636
20018W        W40298   8.645  14.598   4.659  0.0881  0.2503  0.2270
20019W        W40299  16.814   4.713   4.076 -0.1973  0.2387  0.2747
20020W        W40300  10.175  15.054   3.137  0.3174 -0.1272 -0.0021
20021W        W40301  11.397   9.066  14.490 -0.0153 -0.3436  0.0990
20022W        W40302   9.098  11.262   0.595  0.3389 -0.0242  0.0402
20023W        W40303  16.456   6.000  16.681  0.2887  0.0702  0.3155
20024W        W40304  15.451   2.543  14.230 -0.2321 -0.2353  0.1748
20025W        W40305  11.733  11.136   2.302 -0.3086  0.0100  0.3170
20026W        W40306  17.240   0.536  13.042  0.3609  0.3087  0.3427
20027W        W40307   8.450   2.731  10.356 -0.0845 -0.0705 -0.0973
20028W        W40308  15.475  10.804   1.822 -0.0018 -0.3125 -0.1384
20029W        W40309   0.403   6.984  16.346 -0.0525  0.2845  0.2012
20030W        W40310  10.578   3.342   1.993  0.0597  0.3443  0.4620
20031W        W40311  10.387   7.556   3.330 -0.1078 -0.3083 -0.2010
20032W        W40312   1.152   9.209   4.571  0.0089  0.3871  0.0635
20033W        W40313   5.990  14.224  12.290  0.0072  0.0679 -0.1588
20034W        W40314   3.965   9.301   4.151 -0.2004  0.1946  0.4498
20035W        W40315  14.456  16.925  16.495 -0.0838  0.0138 -0.0835
20036W        W40316  12.278   4.094   2.175 -0.1553  0.2294  0.0610
20037W        W40317  15.817   5.130  12.920 -0.1859  0.1360  0.0974
20038W        W40318  16.741  17.349   3.361  0.0801 -0.1684  0.1415
20039W        W40319   3.561   8.315   2.117 -0.0294  0.0315  0.0435
20040W        W40320   3.583   5.842  14.922 -0.0767 -0.2856 -0.2086
20041W        W40321   8.210   9.114   1.573 -0.1428 -0.3851  0.1406
20042W        W40322  13.925   9.241  11.979  0.0389  0.0554 -0.2826
20043W        W40323   1.753  11.822  15.698  0.1632  0.1555 -0.2426
20044W        W40324  16.400   9.855   4.203 -0.0199  0.1103  0.1359
20045W        W40325   6.333   8.710   5.049 -0.0047 -0.1567  0.2139
20046W        W40326   9.573   0.188   0.797 -0.3808 -0.0400 -0.0410
20047W        W40327   5.924  15.840   3.408 -0.0083 -0.0173  0.2658
20048W        W40328  11.885  15.750   1.308 -0.2939 -0.1223  0.0573
20049W        W40329  17.184   6.395   3.140  0.0506 -0.1000 -0.1824
20050W        W40330  11.085   2.642  15.683 -0.0935  0.1648  0.0938
20051W        W40331  11.311   3.885  16.038 -0.1186 -0.0298 -0.2789
20052W        W40332  10.412  17.951  11.569  0.0871  0.0131 -0.2005
20053W        W40333   1.867   3.796   4.234 -0.0300 -0.0732 -0.0909
20054W        W40334   9.211   2.543   2.754  0.0113  0.1668  0.0511
20055W        W40335   9.915   1.174  12.338  0.1379  0.0952 -0.0632
20056W        W40336  15.157   3.422  11.745  0.1740 -0.3386 -0.0466
20057W        W40337  13.613   8.325   4.357 -0.0092 -0.0260  0.0722
20058W        W40338   8.505   7.225  15.348 -0.0546 -0.0111 -0.1942
20059W        W40339   5.777   0.188  12.858 -0.0244  0.0161 -0.3315
20060W        W40340  17.007  15.209   3.835  0.1810 -0.0919  0.0630
20061W        W40341  15.212   0.882   3.122 -0.2111 -0.0733 -0.1826
20062W        W40342   3.579   6.383   3.012  0.1676 -0.0300 -0.0497
20063W        W40343  12.626  11.443  13.702 -0.3197  0.1608 -0.0611
20064W        W40344   4.705   3.997  13.811  0.0694  0.0167 -0.1003
20065W        W40345   6.305   6.987   3.633  0.0466  0.1103 -0.0434
20066W        W40346  17.791   5.278   2.567 -0.2765 -0.2001  0.0681
20067W        W40347   8.413   4.912  16.000  0.0661 -0.1946  0.0320
20068W        W40348  11.442   2.946  13.176 -0.0575  0.3674  0.1049
20069W        W40349  16.478  16.576   2.038  0.2455 -0.1013 -0.2028
20070W        W40350  10.669  12.269   0.945 -0.1442  0.3075 -0.1141
20071W        W40351   3.662   1.743   0.926 -0.0508 -0.1598 -0.2768
20072W        W40352  12.345   8.486  12.849  0.0067 -0.2714 -0.0038
20073W        W40353   0.918  17.391   1.497 -0.1259  0.0857 -0.1586
20074W        W40354   1.228   3.092   2.655 -0.0429  0.1842 -0.2246
20075W        W40355  14.002   6.698   0.201 -0.0758 -0.3029  0.0788
20076W        W40356  14.558  14.145   1.002  0.0063  0.1241 -0.0669
20077W        W40357  11.701   3.328   1.754  0.2906  0.3626  0.2374
20078W        W40358   8.669   7.392   4.283 -0.3367 -0.0553 -0.0199
20079W        W40359   2.403   9.372  14.558  0.2748  0.0529  0.1013
20080W        W40360   8.008   4.999  15.627 -0.0664  0.3695 -0.0505
20081W        W40361  17.470  13.145  15.049  0.0027 -0.2545 -0.1140
20082W        W40362  16.527   7.404   3.594  0.0720  0.1472 -0.2748
20083W        W40363  17.226   1.937  11.817 -0.2674  0.1427 -0.3699
20084W        W40364   9.422   3.032   0.757  0.1386  0.0049 -0.0806
20085W        W40365   0.911   2.939   5.728  0.0511  0.2058 -0.1492
20086W        W40366   5.387   5.556  14.453 -0.4392 -0.1729  0.0492
20087W        W40367  10.875   2.226  16.581  0.0254 -0.2072 -0.1486
20088W        W40368  15.212   5.158  13.611  0.3158 -0.0379 -0.0408
20089W        W40369  13.934  16.135  15.169 -0.1618 -0.1184  0.0665
20090W        W40370   6.662   4.644   0.218  0.2278 -0.2837  0.1970
20091W        W40371  13.427   8.231   3.204 -0.0777 -0.0157  0.2092
20092W        W40372   1.898   8.906  16.204  0.0012  0.0115 -0.0760
20093W        W40373  11.280  17.733  11.590  0.0954 -0.1035 -0.1853
20094W        W40374  12.241  15.320  15.269 -0.0118  0.0885 -0.0214
20095W        W40375  13.902   7.430  14.460  0.2049  0.0970  0.0602
20096W        W40376  13.168   2.400   1.676  0.1512  0.1825 -0.1070
20097W        W40377  15.602   4.046  16.243  0.1368 -0.2130  0.0257
20098W        W40378   4.264  13.448  15.630 -0.2618  0.0274  0.3367
20099W        W40379   4.550  14.913  13.993  0.1738 -0.0476 -0.0413
20100W        W40380   4.107  17.990  12.160  0.1511  0.0487 -0.0401
20101W        W40381   0.168  10.714   2.019  0.0707 -0.0071 -0.1740
20102W        W40382   9.059   2.630   0.578  0.2699 -0.0190  0.0342
20103W        W40383  12.706  12.966   4.488 -0.1017 -0.2397 -0.0319
20104W        W40384   6.413   5.510  15.735  0.0169  0.1677  0.0222
20105W        W40385   7.541  16.967  16.144 -0.0513  0.2640  0.0293
20106W        W40386  10.392   0.085   0.289  0.0095  0.0383  0.0979
20107W        W40387   5.392   6.138  14.583 -0.2552 -0.1084 -0.0280
20108W        W40388   4.961  14.778   1.424  0.0118  0.0569  0.2712
20109W        W40389  13.055  14.125  14.777  0.1904  0.0205  0.0053
20110W        W40390   9.960  17.030  15.044 -0.0585 -0.0503  0.1376
20111W        W40391   7.109  15.873   1.328 -0.2708 -0.0790 -0.2365
20112W        W40392  13.031  11.165  13.730 -0.2258 -0.3339 -0.1204
20113W        W40393  17.647   8.048  16.627  0.1259  0.1173 -0.1751
20114W        W40394   5.622   5.421   0.091  0.0052  0.0475 -0.0372
20115W        W40395   4.379   2.210   4.562  0.1006 -0.0777  0.1657
20116W        W40396   8.609  15.204   4.717  0.1011 -0.2739  0.0265
20117W        W40397   2.448  13.999  15.619 -0.0908 -0.0801  0.2864
20118W        W40398  15.641  11.753  15.871 -0.2332 -0.3402  0.0046
20119W        W40399   6.814  16.321  11.995  0.0369  0.4335 -0.2179
20120W        W40400   5.965   3.893  14.592  0.1068 -0.0231  0.2641
20121W        W40401   4.198   4.759  14.227  0.1328  0.1163  0.0063
20122W        W40402  14.573  14.534   4.034 -0.0362 -0.2229 -0.0373
20123W        W40403   2.936   6.375   1.726 -0.3021 -0.0003 -0.0419
20124W        W40404  12.568   9.359   1.525 -0.0232 -0.2244  0.1585
20125W        W40405   8.668   1.772   3.653 -0.0301  0.0322  0.0993
20126W        W40406  14.504  13.204  14.978 -0.0255 -0.1088  0.0882
20127W        W40407   1.389  16.714  12.387 -0.0815 -0.1755 -0.3815
20128W        W40408   5.827  10.927   5.611 -0.3283 -0.0783  0.0155
20129W        W40409   5.879  12.985  13.366  0.1975  0.1862 -0.0859
20130W        W40410  13.434  16.473   4.406  0.2000 -0.3627 -0.2122
20131W        W40411  15.837  12.265   1.286  0.1536 -0.1800 -0.1075
20132W        W40412   9.340   1.918   0.531 -0.1282  0.1732 -0.1369
20133W        W40413   4.055  14.905  15.356  0.2685  0.0571 -0.1218
20134W        W40414   4.002  16.289  15.102 -0.0663  0.0354 -0.0274
20135W        W40415   7.394   4.368   4.436  0.2266 -0.0866 -0.0553
20136W        W40416  15.710  17.034   3.748 -0.3291  0.1789  0.0294
20137W        W40417   4.071   4.941   1.335  0.1551 -0.1388  0.1063
20138W        W40418   1.480  15.485   2.899  0.0250  0.0387 -0.0649
20139W        W40419  15.069   1.783   0.450  0.1158  0.0618 -0.3180
20140W        W40420   7.239  12.934  12.406 -0.0119  0.4589  0.4063
20141W        W40421  17.831  15.309  16.656 -0.0138 -0.1205 -0.2502
20142W        W40422   5.287  13.824  14.087 -0.1614  0.2341 -0.2473
20143W        W40423   0.624   6.246  16.260 -0.0881 -0.0202  0.2917
20144W        W40424   0.632   8.245  13.483  0.1012 -0.0467  0.1771
20145W        W40425   1.337   8.828   3.471  0.1100  0.0190 -0.0287
20146W        W40426  16.457   3.795  15.822 -0.1204 -0.1507 -0.0844
20147W        W40427  16.845   4.733  13.200 -0.2993 -0.0014 -0.2406
20148W        W40428   1.318   2.231   0.582  0.0664  0.1207 -0.0864
20149W        W40429  17.447  14.149   4.491  0.0327  0.0018  0.2545
20150W        W40430   2.231   2.361   2.103 -0.1258 -0.1943  0.3859
20151W        W40431  12.477  13.548  16.175 -0.2872  0.0782  0.1283
20152W        W40432   3.190  11.032   1.520  0.1671 -0.0743 -0.2798
20153W        W40433  12.132  10.169  14.920  0.4822 -0.3829  0.0116
20154W        W40434  10.941  13.043  14.357 -0.1296 -0.1886  0.0952
20155W        W40435  10.205   9.141   2.836  0.0235  0.0378  0.0611
20156W        W40436  12.208  12.758   1.676  0.0604 -0.1126  0.2117
20157W        W40437  15.992  10.105  13.908  0.0091 -0.0095 -0.2065
20158W        W40438   0.292   3.900   1.300  0.1457  0.0438 -0.2216
20159W        W40439  14.034  13.403  15.941  0.0906 -0.0882  0.3782
20160W        W40440   6.660  10.566   5.147  0.2974 -0.0038 -0.2089
20161W        W40441  17.259   6.738   0.684  0.2371  0.0155 -0.0553
20162W        W40442  14.095   2.528  13.485  0.0077  0.1590 -0.1224
20163W        W40443  13.508  10.523  12.689  0.2756 -0.1116 -0.4286
20164W        W40444   4.399  11.315   0.227  0.0622 -0.0537  0.1829
20165W        W40445   0.425   9.632   1.692 -0.0448  0.2858  0.1008
20166W        W40446   6.161  14.935   1.675 -0.1999  0.6842  0.2623
20167W        W40447   3.993   6.844  12.761 -0.0588  0.1722 -0.2152
20168W        W40448   1.451   3.292  12.799  0.2683 -0.1541  0.0866
20169W        W40449  16.169   0.164   3.803  0.0776  0.0812 -0.0197
20170W        W40450  10.098   2.241   4.199  0.0945  0.0860  0.2450
20171W        W40451  11.678   9.724  15.062 -0.0163 -0.2317 -0.1577
20172W        W40452  14.848  14.104  15.002  0.1263 -0.0072  0.2337
20173W        W40453   5.239   0.943   2.351 -0.4274 -0.3658 -0.0044
20174W        W40454  13.105   8.599   1.372 -0.3508  0.1136 -0.1677
20175W        W40455   7.812   2.897   0.681  0.1861 -0.2172 -0.1295
20176W        W40456  15.940  12.590  12.870 -0.2943 -0.4085  0.1938
20177W        W40457   5.523  14.006  16.202 -0.2678 -0.1722 -0.2491
20178W        W40458   8.769  12.638  12.006  0.2630 -0.2433 -0.0871
20179W        W40459  10.000   3.844   4.180  0.0692 -0.2854 -0.1419
20180W        W40460  17.478   0.442  12.616  0.0438 -0.3582 -0.1521
20181W        W40461   3.161   7.593  13.133 -0.1372 -0.1932  0.0204
20182W        W40462   3.942   9.479  12.673  0.2991 -0.2339  0.1383
20183W        W40463   3.992  17.618  13.858  0.0307  0.0753  0.2160
20184W        W40464   2.111   0.971  13.479 -0.1247 -0.0330 -0.2124
20185W        W40465   0.626  16.532  14.140 -0.1978  0.2948  0.0728
20186W        W40466  15.366  11.430  14.625 -0.1197 -0.0527 -0.0306
20187W        W40467   9.800   9.717   1.271 -0.0063 -0.0658  0.0121
20188W        W40468   2.584   9.691  16.394 -0.2138 -0.1779  0.0835
20189W        W40469  13.186  15.804  15.413 -0.3991 -0.0942 -0.1388
20190W        W40470  17.309   8.692  14.091 -0.2888 -0.2018  0.0972
20191W        W40471   9.350  14.941   1.434  0.0739  0.2578 -0.1091
20192W        W40472  15.530   2.892  15.862 -0.1054  0.0894 -0.0242
20193W        W40473  13.587  13.245  13.903  0.3176  0.0868 -0.0106
20194W        W40474  11.286  12.604   1.856 -0.1758 -0.2216 -0.1361
20195W        W40475  13.015   9.614  16.004  0.0225  0.2882  0.1610
20196W        W40476  14.750  16.327   2.109  0.0829  0.0825 -0.2354
20197W        W40477  14.110   4.134   3.212  0.1620  0.2410 -0.0982
20198W        W40478   0.781  14.334  14.072  0.1456 -0.0291 -0.3832
20199W        W40479   1.728  11.086  15.539  0.0601 -0.2099 -0.1660
20200W        W40480   8.073  12.263   2.160  0.2638 -0.0364 -0.2111
20201W        W40481   2.718  10.695   1.327  0.0503 -0.1830  0.1700
20202W        W40482   2.642  10.436   5.067 -0.0526 -0.2940  0.0831
20203W        W40483  15.300  10.981  16.040 -0.4911  0.0702 -0.0621
20204W        W40484  10.017   7.221   1.609  0.0018 -0.1743  0.0021
20205W        W40485   4.327   3.195   4.242 -0.0221  0.0627  0.0609
20206W        W40486  11.567  14.913   2.534 -0.2270  0.0855 -0.1776
20207W        W40487   8.499  16.900  16.621  0.3100  0.2471  0.0654
20208W        W40488   7.835  10.006  15.084  0.1550 -0.4407 -0.0158
20209W        W40489   8.699  12.721   2.272 -0.0602  0.0124 -0.0672
20210W        W40490   3.701   5.968   0.511 -0.1494 -0.2314 -0.0689
20211W        W40491   8.056  10.744   2.724 -0.2526 -0.0395 -0.1321
20212W        W40492  11.053  12.834   0.837 -0.2065  0.0118 -0.1379
20213W        W40493   6.004   9.605   1.144  0.1659 -0.1786 -0.0831
20214W        W40494   6.686  12.107  14.672 -0.0860  0.2162  0.0178
20215W        W40495  10.625   4.443  14.050 -0.2746 -0.0869  0.1798
20216W        W40496   5.694  17.976  13.683  0.0293  0.1028  0.1914
20217W        W40497   2.183   1.782  13.060  0.0530 -0.0603  0.0924
20218W        W40498  15.536   3.514   1.808 -0.0465 -0.0731  0.3666
20219W        W40499   3.846   9.405  15.926  0.0926 -0.0303  0.2871
20220W        W40500  16.870   2.491  13.359 -0.3358 -0.0014 -0.4644
20221W        W40501  13.328  13.294  14.667 -0.0391  0.0108  0.1773
20222W        W40502   5.366  15.618   3.290 -0.1886  0.3841 -0.0775
20223W        W40503  11.045  11.542  11.962 -0.2001  0.2919  0.0033
20224W        W40504  12.541  16.186   4.144  0.2525  0.2171  0.1805
20225W        W40505   2.267  16.289  14.365 -0.0549  0.2093  0.0703
20226W        W40506   6.123   6.000  16.236 -0.3824 -0.1979 -0.1145
20227W        W40507  13.470   9.718  15.708 -0.0551 -0.0722  0.0492
20228W        W40508   4.729   8.596  13.292  0.0048  0.0589 -0.2125
20229W        W40509  12.167  14.353   0.564 -0.0519 -0.3402 -0.0203
20230W        W40510  12.850   2.639  12.950 -0.1366 -0.0209  0.1929
20231W        W40511  13.978   2.264   2.830 -0.0941 -0.1677  0.0966
20232W        W40512   2.277   5.695  14.020 -0.1987  0.1938 -0.3617
20233W        W40513   2.535  17.007   1.205 -0.1704 -0.3992 -0.1324
20234W        W40514  10.047  17.314   1.581 -0.1239  0.1703 -0.3376
20235W        W40515   5.943   9.529   2.840 -0.0472 -0.0972  0.3730
20236W        W40516   3.989  17.464  13.039  0.2603 -0.1106 -0.2112
20237W        W40517  10.389   1.939  12.483  0.0369  0.0425 -0.2767
20238W        W40518   3.045   4.922   1.739 -0.3212 -0.0542 -0.1448
20239W        W40519   7.383  13.838  12.295  0.1659  0.0383 -0.1492
20240W        W40520  13.127  11.067   1.404 -0.1925 -0.1379  0.4505
20241W        W40521   9.431   4.384   2.030 -0.1844  0.0077 -0.1142
20242W        W40522  11.187  16.803   0.551 -0.0648  0.1954  0.0670
20243W        W40523   8.109   5.043   1.642  0.0360  0.0681  0.2003
20244W        W40524  10.807   7.132   0.888  0.1449 -0.2822  0.1625
20245W        W40525  10.146  17.610   0.367 -0.0896 -0.0960 -0.2652
20246W        W40526   8.835   2.224  13.949  0.2472 -0.0502 -0.0727
20247W        W40527  15.906   4.959   3.341 -0.1857 -0.2271  0.0070
20248W        W40528  17.880  13.874  12.281 -0.1503  0.1040  0.4931
20249W        W40529   4.237   2.398   4.025  0.1755 -0.0409 -0.1361
20250W        W40530   0.434   1.495   3.339  0.3675 -0.1004  0.1124
20251W        W40531   4.552  10.709  12.586 -0.1796 -0.0118  0.0491
20252W        W40532  17.088  17.053   4.567  0.0739  0.0323  0.0686
20253W        W40533   6.928  12.710   2.789 -0.1156  0.0302 -0.1154
20254W        W40534  13.370   2.751   1.959  0.0262  0.4527 -0.0679
20255W        W40535  15.892   7.580  15.027 -0.4107 -0.0910 -0.1403
20256W        W40536  10.526   1.952   2.156 -0.1028  0.0491  0.1154
20257W        W40537   2.033  17.342   3.300  0.4893  0.1918  0.0037
20258W        W40538   1.716   1.231  12.372  0.2100 -0.0714 -0.1059
20259W        W40539   9.987  15.774   2.346  0.2359  0.0120 -0.0351
20260W        W40540  12.271  16.093   0.052 -0.1608  0.0423 -0.0611
20261W        W40541   2.785  10.330  15.822  0.0119 -0.1696 -0.1827
20262W        W40542  10.634   3.089  14.807 -0.0966  0.3719 -0.1997
20263W        W40543   4.516   9.957   5.144 -0.0610 -0.1364  0.2023
20264W        W40544  17.691   9.938  16.367  0.0950  0.0892  0.0910
20265W        W40545  14.714   9.946   3.720  0.1774  0.1188 -0.1094
20266W        W40546   4.787  14.383  14.171  0.2128 -0.2280  0.2655
20267W        W40547   2.470   0.823   4.661 -0.4370  0.1403 -0.1608
20268W        W40548   1.312  13.171  14.692  0.2761  0.4768 -0.1012
20269W        W40549   6.628   1.526   2.651 -0.1081 -0.0490 -0.0265
20270W        W40550   7.782   2.773  11.833  0.1677  0.0507  0.0254
20271W        W40551   1.732  17.447  14.137 -0.0912  0.1792 -0.0443
20272W        W40552  11.233   1.540   2.045  0.1384  0.0874 -0.2114
20273W        W40553   9.692   3.785   4.933  0.2304  0.2167  0.1872
20274W        W40554   4.389  17.918   0.299  0.2288 -0.0642 -0.0730
20275W        W40555   8.121   2.982  13.036  0.0203 -0.0060 -0.0787
20276W        W40556  11.365  11.725   2.912 -0.1852 -0.1191  0.2558
20277W        W40557   6.428  17.147  14.113 -0.2153 -0.2174  0.1004
20278W        W40558  17.521   7.485   3.462  0.0200  0.1357 -0.1345
20279W        W40559   0.084  16.937  14.858  0.0679  0.4155 -0.1767
20280W        W40560  12.861   0.598   1.062  0.0333 -0.4080  0.2314
20281W        W40561   8.630   4.997   1.648  0.0196  0.1742 -0.0212
20282W        W40562   2.863   4.462  14.404 -0.0346  0.1626 -0.0570
20283W        W40563  11.018   2.687  11.866  0.1348  0.4821  0.1598
20284W        W40564   0.231  10.532  14.925 -0.1014 -0.1236 -0.1757
20285W        W40565  17.845   0.650  13.984  0.1413 -0.1348  0.3851
20286W        W40566   3.734  13.307  12.588  0.0270  0.1165 -0.1970
20287W        W40567   7.831   5.905   4.252  0.0535 -0.4027  0.0470
20288W        W40568   2.410   3.002  16.108  0.0308 -0.1320  0.1302
20289W        W40569  12.342  12.020  12.966 -0.0925  0.2820 -0.3914
20290W        W40570  16.704   3.384  14.292 -0.1068  0.0622  0.3498
20291W        W40571  17.816  15.700  13.228  0.0492 -0.4010 -0.3875
20292W        W40572   7.190   3.870  14.188  0.0741 -0.1798 -0.5371
20293W        W40573   8.943   9.624  13.935 -0.1371  0.1067 -0.0807
20294W        W40574  15.303   5.030  14.599 -0.2011  0.0088  0.0202
20295W        W40575   4.259  12.465  12.849 -0.1168  0.0148  0.0392
20296W        W40576   2.229  13.693   3.026 -0.3580  0.2066 -0.1242
20297W        W40577  17.850   2.901   4.337  0.0969 -0.1741 -0.2635
20298W        W40578   5.788   9.987   3.988  0.0772 -0.1597 -0.1270
20299W        W40579   7.978  16.943  13.700 -0.0296  0.2273 -0.0080
20300W        W40580  11.253   4.529   3.519  0.1222  0.1602  0.0512
20301W        W40581  13.685   2.931  15.197 -0.3121 -0.0799  0.1132
20302W        W40582   1.471  17.182   1.844 -0.0407 -0.0882 -0.1248
20303W        W40583  13.569   9.147   4.223 -0.1523  0.2782 -0.0737
20304W        W40584  17.412   1.690  15.455 -0.1673  0.3103 -0.2042
20305W        W40585   0.996   1.690   1.242 -0.0477 -0.0994  0.1795
20306W        W40586   2.486  14.215  13.874  0.0895 -0.0992  0.3109
20307W        W40587   7.139   8.354   2.758  0.2372  0.0477  0.0441
20308W        W40588  14.181   8.608   4.540 -0.0304 -0.0019  0.0763
20309W        W40589  10.554   7.445   1.345  0.4622 -0.0946  0.1694
20310W        W40590  13.156   9.039  12.093 -0.1104 -0.1101 -0.1294
20311W        W40591  17.082  13.800   4.657 -0.0636  0.3050 -0.4128
20312W        W40592  17.751   5.213   3.954  0.1058  0.4340 -0.3921
20313W        W40593  17.341  15.578  16.650 -0.1582 -0.6396 -0.1201
20314W        W40594   7.393  17.848  12.104  0.2016  0.3546  0.1616
20315W        W40595   9.629   7.820  12.191 -0.1003 -0.1637 -0.0704
20316W        W40596   7.192   0.214  15.844  0.0059 -0.2558 -0.0887
20317W        W40597   3.050  16.154   4.713 -0.0117 -0.0372  0.1887
20318W        W40598   3.697   3.472  13.409  0.0367  0.0880 -0.1080
20319W        W40599  12.141   3.338  15.468  0.0717  0.1532 -0.1617
20320W        W40600   4.389  14.183   3.552 -0.1565  0.0390  0.0596
20321W        W40601   4.974   5.560   2.694  0.2229 -0.1849 -0.2350
20322W        W40602   8.863  14.387   2.928  0.1507 -0.2008 -0.1850
20323W        W40603   6.603  14.049   1.627 -0.1357 -0.2496 -0.0563
20324W        W40604   2.728  14.796  15.180  0.0848  0.2613  0.0494
20325W        W40605   4.604  10.682  12.039  0.1887 -0.0858  0.0440
20326W        W40606  17.609  11.625  13.980 -0.1729  0.0229 -0.2564
20327W        W40607   9.624  10.096   3.897 -0.0972 -0.1716  0.0783
20328W        W40608  10.791   1.742   3.573  0.3105 -0.1821 -0.4972
20329W        W40609   0.020   2.228  16.053 -0.0580 -0.2381  0.0478
20330W        W40610  13.768   0.810   2.117  0.1919  0.0571  0.3106
20331W        W40611  10.524  10.140   1.975  0.2968 -0.2226  0.3453
20332W        W40612   5.992   7.654  13.948  0.1738 -0.1987 -0.0445
20333W        W40613   4.605   6.403  11.477 -0.1104  0.1101  0.1768
20334W        W40614  17.149  15.293  15.178 -0.0837 -0.3280 -0.0913
20335W        W40615   5.983  13.430  11.699  0.0361 -0.0384 -0.1859
20336W        W40616   7.480   5.540  11.938  0.1031 -0.2710  0.1188
20337W        W40617  14.078   8.023   0.544 -0.1808 -0.0640  0.0058
20338W        W40618   1.808  12.480  12.107  0.3183 -0.1658  0.1926
20339W        W40619  13.183  17.757   0.750  0.0489  0.0946 -0.1670
20340W        W40620   5.828   1.424  14.038  0.0321 -0.0110  0.0705
20341W        W40621  14.320   0.430   0.696  0.1514  0.0205  0.2755
20342W        W40622   7.889   6.945  12.991  0.3407 -0.2757 -0.1463
20343W        W40623   1.674   0.983  16.654  0.0424  0.3110  0.0856
20344W        W40624   8.648   5.334   4.296  0.2181  0.0585  0.0614
20345W        W40625   7.736  10.615  12.153 -0.0153  0.2602 -0.3046
20346W        W40626   4.279  13.148   3.793 -0.0121  0.0598  0.0550
20347W        W40627   5.392   5.759  12.384  0.1439  0.1605  0.3432
20348W        W40628  12.822  17.955   4.632 -0.2126 -0.0619 -0.1676
20349W        W40629   6.060  13.713  16.286  0.1004 -0.0608 -0.4415
20350W        W40630   3.532   8.127  13.181  0.3087 -0.2473  0.0665
20351W        W40631  17.576   3.805  13.796  0.1204  0.1162  0.0447
20352W        W40632  14.373   0.624  12.109  0.2193  0.0856 -0.3351
20353W        W40633  13.747  15.183   4.658 -0.3353 -0.0898 -0.0478
20354W        W40634  14.569   1.642   1.392 -0.1608  0.2458 -0.0741
20355W        W40635  11.124   8.204   0.168  0.3939 -0.2140  0.1036
20356W        W40636  15.119  15.699  13.865 -0.0281  0.1127  0.0169
20357W        W40637  14.308  16.462   4.424  0.0801 -0.0673  0.2503
20358W        W40638   9.091   9.235  13.528  0.0209 -0.0360 -0.0162
20359W        W40639   0.935  11.677  13.991  0.0886 -0.3711 -0.0400
20360W        W40640   7.381  17.381  15.284  0.0312  0.1652 -0.3031
20361W        W40641   9.568   4.405  13.252  0.0298 -0.0457 -0.0608
20362W        W40642   2.956   1.314   1.940  0.1580  0.2545 -0.3400
20363W        W40643  10.549   6.740   4.923  0.0308 -0.0575 -0.1830
20364W        W40644  12.874  13.215   0.466  0.1473  0.2448  0.1189
20365W        W40645   6.805  13.996   3.039  0.1185 -0.3275 -0.0875
20366W        W40646   9.715  14.492  16.328  0.1275  0.0375  0.0566
20367W        W40647  17.986   2.958   2.900 -0.0883  0.0192 -0.1829
20368W        W40648   4.521   9.025   1.704 -0.1427 -0.1470  0.2183
20369W        W40649   7.985   5.712  16.209  0.0969 -0.2077 -0.0903
20370W        W40650  12.014   8.747  16.493  0.1787  0.1217  0.0458
20371W        W40651   2.206  10.841   1.192 -0.2689  0.1126 -0.0364
20372W        W40652  10.291  16.546  14.011 -0.4592 -0.0770  0.0098
20373W        W40653  16.525  14.834   4.761 -0.2535 -0.3836 -0.0007
20374W        W40654   9.586  14.937   5.327 -0.2782 -0.0100  0.2215
20375W        W40655   5.539   3.220   4.944 -0.1486  0.1122  0.0772
20376W        W40656   4.039  12.872  12.906  0.3526  0.0838  0.0231
20377W        W40657  11.862   3.281  13.441 -0.1114 -0.1623 -0.1135
20378W        W40658   8.495   6.717  15.237  0.3218 -0.1631  0.1206
20379W        W40659   1.366   2.135  13.299  0.1587 -0.0474 -0.0494
20380W        W40660   4.338   0.737  13.346  0.2562 -0.0319 -0.0927
20381W        W40661   4.656  13.599   0.945  0.2439  0.2472  0.3271
20382W        W40662  17.492   9.903  13.832 -0.0272  0.0604 -0.0892
20383W        W40663  14.329   9.660   0.059  0.2949 -0.1758  0.1808
20384W        W40664  17.832  11.054  13.090 -0.0278 -0.1590  0.2025
20385W        W40665   1.190   9.485   4.065  0.0524  0.1614 -0.7368
20386W        W40666  15.701  13.745  13.586  0.3000  0.1719  0.1723
20387W        W40667   4.372  16.646   2.396  0.0975  0.0823 -0.1788
20388W        W40668   1.446   3.781   0.876 -0.0174  0.2400  0.1307
20389W        W40669  13.774  16.562  15.377 -0.0477  0.2111  0.2335
20390W        W40670  10.556   5.912   1.026 -0.3214 -0.0112 -0.2623
20391W        W40671   5.168   0.062  16.400  0.0574 -0.0450 -0.1691
20392W        W40672  15.011  17.337  12.504  0.2698 -0.2407 -0.1458
20393W        W40673   5.019  16.230   0.260  0.0592  0.0751  0.0363
20394W        W40674   6.986   4.325  16.061 -0.0666 -0.0211  0.2201
20395W        W40675   9.444  17.646   3.949  0.2721  0.5275  0.1483
20396W        W40676  15.519   2.796  12.376  0.0723  0.1740  0.0749
20397W        W40677  10.786   4.853  16.415  0.2311  0.1544  0.1726
20398W        W40678  13.902   2.340  11.905  0.0747 -0.1820 -0.0730
20399W        W40679   3.312   9.654   1.734 -0.0635 -0.1585  0.0179
20400W        W40680  16.668  11.426   1.645  0.0924  0.1289  0.0011
20401W        W40681   4.603  16.349  13.995  0.2936  0.1273 -0.2778
20402W        W40682   9.033   7.632   0.381  0.0581 -0.1167 -0.0074
20403W        W40683   2.659   5.485  12.448 -0.2904  0.2371  0.0454
20404W        W40684  14.106  14.700   3.963  0.1304 -0.0432 -0.1563
20405W        W40685  10.429   7.881  12.139 -0.0653 -0.2654 -0.2462
20406W        W40686  15.534   3.334  13.957 -0.0024  0.0962 -0.0992
20407W        W40687   1.850   8.398  16.415 -0.0093 -0.0919  0.0636
20408W        W40688   7.390  12.015   1.395  0.0105  0.0525 -0.1413
20409W        W40689  17.918   1.252  16.463  0.1121  0.4079  0.0298
20410W        W40690   3.226  11.144  16.374 -0.0727  0.4524  0.1065
20411W        W40691  10.516   9.964   4.572  0.2270  0.1206  0.0239
20412W        W40692  17.701   7.418   3.986  0.1067 -0.1911  0.0523
20413W        W40693  17.849   0.397   4.550  0.2703 -0.0105 -0.0783
20414W        W40694   5.330  15.003   4.443 -0.2811  0.0073 -0.0235
20415W        W40695  12.535   1.752  13.442 -0.2238  0.1681  0.0338
20416W        W40696   1.678  10.130   2.345 -0.0766  0.0876 -0.3900
20417W        W40697   2.847   7.294   2.836 -0.1091 -0.0191 -0.0104
20418W        W40698   5.131  12.704  16.446 -0.0764 -0.3416 -0.2818
20419W        W40699  13.725   3.863  11.758 -0.0647 -0.1698  0.2523
20420W        W40700   3.023  15.059   1.186  0.0575  0.0933  0.2646
20421W        W40701   1.036  13.375   1.174 -0.2402  0.1602 -0.1514
20422W        W40702  14.818   6.211   0.714  0.1872 -0.1861 -0.1688
20423W        W40703  12.362  13.577  13.393  0.0407 -0.0572 -0.0868
20424W        W40704  11.840  10.788  14.252  0.0174 -0.0274  0.0835
20425W        W40705  10.195  14.782   3.608  0.4237 -0.0844  0.1065
20426W        W40706   3.862  16.359   1.761  0.0729  0.0989 -0.1835
20427W        W40707  14.673  12.809  14.515  0.3767  0.0076  0.0993
20428W        W40708   7.914   7.708   0.697 -0.0451  0.0544 -0.0963
20429W        W40709   6.431   4.961   3.676 -0.2491  0.1361  0.1480
20430W        W40710  10.195   7.710  14.800 -0.2398 -0.0775  0.2099
20431W        W40711  12.690   9.043   2.386 -0.3597  0.0733 -0.0083
20432W        W40712   2.168  11.230  13.410  0.1108  0.0391  0.0103
20433W        W40713   7.463   4.324   0.725  0.1329 -0.0120 -0.3320
20434W        W40714   4.277  14.275   5.156 -0.2622 -0.0871  0.2576
20435W        W40715  14.566  16.098  13.122 -0.1066  0.2244 -0.1376
20436W        W40716   4.300  10.853  15.985 -0.0097 -0.0922 -0.2150
20437W        W40717  14.341   5.691   2.735 -0.3149 -0.2347 -0.2850
20438W        W40718   4.847  11.933   4.499 -0.1447  0.2572  0.0886
20439W        W40719   1.974   3.994   2.347 -0.0672  0.1050  0.2846
20440W        W40720   2.770   8.702  14.282  0.2641  0.2356  0.1690
20441W        W40721  15.044   2.372   2.881  0.1998 -0.0574  0.1134
20442W        W40722   8.591  17.498   2.761  0.1973 -0.1239  0.1593
20443W        W40723  14.964   2.004   3.287 -0.0903 -0.2292 -0.1341
20444W        W40724   7.496  15.754  15.465 -0.1428 -0.1003  0.1888
20445W        W40725  12.961   8.519  13.561  0.2025  0.0223 -0.4628
20446W        W40726   4.790  13.586  13.393 -0.3539 -0.3688 -0.0727
20447W        W40727   7.579   9.956   2.842  0.0915  0.0469 -0.1725
20448W        W40728   9.342   4.350  10.493 -0.0272 -0.2113  0.1152
20449W        W40729   9.468  14.198  12.706 -0.0662 -0.0233  0.0398
20450W        W40730   2.307   2.489   3.105 -0.1483  0.0113 -0.3093
20451W        W40731   4.864   0.627   1.852  0.1080 -0.1391 -0.1052
20452W        W40732  12.552   9.642  12.999  0.0036 -0.5516  0.0026
20453W        W40733   6.833   2.084   1.957  0.0645 -0.2088  0.2107
20454W        W40734  11.782  16.927   2.277 -0.2454  0.1734 -0.4071
20455W        W40735  15.158   3.604   3.478  0.0431  0.0384 -0.3043
20456W        W40736   8.857   7.181  12.883 -0.0321  0.1660  0.1564
20457W        W40737  16.887  11.349  12.485  0.1044 -0.1568 -0.1078
20458W        W40738   3.522   7.791  14.708  0.3926  0.1325  0.2887
20459W        W40739   1.663   4.794  14.782 -0.2053  0.1674  0.0457
20460W        W40740  10.075  12.725   4.423  0.1525 -0.0877 -0.1780
20461W        W40741   6.389   9.680  16.391 -0.1620 -0.3333 -0.0986
20462W        W40742  13.791   5.835  16.614  0.0265  0.1366 -0.0159
20463W        W40743   9.053  14.804   3.735 -0.3381  0.0473 -0.3383
20464W        W40744  13.115  11.498  13.226 -0.0020 -0.3131 -0.3332
20465W        W40745   3.616   1.369  15.527 -0.1400 -0.0540 -0.1096
20466W        W40746  15.807  14.930   1.264 -0.0726  0.2580  0.1639
20467W        W40747  15.068   9.562   1.244  0.1112 -0.3236  0.0331
20468W        W40748   2.677   9.919   3.448 -0.2020 -0.0364 -0.0258
20469W        W40749  10.206  16.509  13.100 -0.0981  0.0610  0.3001
20470W        W40750  14.822  16.273  12.398 -0.2832  0.1875  0.2964
20471W        W40751   9.341   9.788   2.116  0.2338  0.1138  0.1796
20472W        W40752  14.841   4.706  16.434  0.0668  0.1459 -0.0749
20473W        W40753   1.100   6.558   1.394 -0.3413  0.1977 -0.1701
20474W        W40754  10.735  14.260   4.012 -0.0402 -0.0389 -0.0561
20475W        W40755  17.211   8.722   3.938 -0.1415  0.0420 -0.1242
20476W        W40756  14.326   3.051  12.865  0.1207  0.1828  0.2852
20477W        W40757  16.941   9.198   1.843 -0.1167  0.2757 -0.4176
20478W        W40758   9.766   2.409   3.914  0.1572 -0.0061 -0.1573
20479W        W40759  12.469   1.309  12.619 -0.0632  0.1600  0.1492
20480W        W40760   1.460   8.797  16.501  0.0402 -0.3134  0.0521
20481W        W40761   5.540   1.650   3.471  0.0341 -0.1693 -0.0800
20482W        W40762   1.468   6.019  14.351  0.0318  0.0230  0.2037
20483W        W40763   1.402   3.123   3.989  0.0993  0.1915  0.0293
20484W        W40764   1.460  14.395   4.404 -0.0067 -0.0086 -0.2621
20485W        W40765  11.504   4.229  13.641 -0.0239 -0.1374 -0.1309
20486W        W40766  16.164   1.884   4.216  0.0043 -0.1771 -0.1718
20487W        W40767   7.428   8.634   2.062 -0.1634 -0.3233 -0.0842
20488W        W40768   9.070   8.642  15.012  0.1244 -0.0755 -0.2341
20489W        W40769   4.479  13.624   3.697  0.0006 -0.2646  0.0125
20490W        W40770   2.247   6.446  14.115 -0.6223  0.0127 -0.1329
20491W        W40771  14.650  16.125  14.715 -0.3063  0.0705  0.3060
20492W        W40772   1.024   0.785   1.153  0.0057  0.0524  0.2793
20493W        W40773   4.706   6.380  15.947 -0.0574  0.4815 -0.0615
20494W        W40774   4.267   9.000   4.531 -0.2077  0.2203  0.2342
20495W        W40775  12.280   2.548   0.700 -0.0832  0.2318  0.0260
20496W        W40776   5.710  14.990  14.999  0.0431  0.0850 -0.0565
20497W        W40777   6.171   3.874  15.772  0.0104 -0.0047  0.0488
20498W        W40778  16.748   3.273  15.945  0.2777  0.1274 -0.2894
20499W        W40779   9.628   0.449  15.056 -0.2854  0.0504 -0.1881
20500W        W40780  14.533  11.430   1.717 -0.0213 -0.1130  0.1952
20501W        W40781  14.789   5.112  13.970 -0.3512  0.2133 -0.2716
20502W        W40782   6.189  12.320  14.897  0.0676  0.1556 -0.1586
20503W        W40783   2.069  16.376   3.515  0.1352 -0.2558 -0.0960
20504W        W40784  15.549   3.066   3.678 -0.1793 -0.1245 -0.1464
20505W        W40785  11.143  10.974   0.615 -0.1353  0.0745  0.0703
20506W        W40786  17.410  10.275  12.872 -0.0319 -0.0288  0.1751
20507W        W40787   5.302   1.968  13.604  0.1349  0.1219  0.1267
20508W        W40788   9.586   6.710   2.702  0.1305  0.1418 -0.2096
20509W        W40789  11.865  14.705   0.127 -0.0852  0.0819  0.3501
20510W        W40790  13.739  14.618   3.553 -0.3538  0.1097 -0.2185
20511W        W40791   1.160   7.164   0.825 -0.0096  0.3880  0.2511
20512W        W40792  14.026   5.674  13.446  0.0228 -0.1208  0.0810
20513W        W40793  14.204  16.486  13.158  0.3491 -0.0269 -0.2468
20514W        W40794   9.070  13.945  12.844 -0.1759 -0.3287  0.2148
20515W        W40795  15.393  10.363   1.126  0.0882  0.0251  0.0508
20516W        W40796   9.935  10.746   2.880 -0.1677 -0.2582 -0.0688
20517W        W40797   5.853  13.164   2.462 -0.1062 -0.0434 -0.2087
20518W        W40798  13.746   3.340  11.840  0.1432  0.1076  0.2459
20519W        W40799   0.187  14.002   0.491  0.3085 -0.0330  0.2492
20520W        W40800  14.876  13.444   4.367  0.1177  0.2520  0.2754
20521W        W40801  10.638  14.882   1.952 -0.1085  0.1276 -0.3157
20522W        W40802   9.212  11.625   3.431  0.0189 -0.3707 -0.3281
20523W        W40803   5.577   8.883   0.699 -0.0076  0.1686  0.2254
20524W        W40804   3.212   8.804   5.430 -0.0038  0.1483 -0.3345
20525W        W40805   6.673   6.844  15.498  0.2141  0.0019 -0.0311
20526W        W40806   4.271  11.255   5.589  0.0854 -0.0195  0.0552
20527W        W40807  16.913  15.060   2.934 -0.0719 -0.1825 -0.1133
20528W        W40808  15.535   1.331   1.624  0.1520  0.0186  0.2039
20529W        W40809   3.643   4.212   3.829 -0.0348 -0.0102 -0.0569
20530W        W40810   4.318   5.159   2.509  0.2257 -0.0018 -0.1059
20531W        W40811   3.396   7.909   5.585  0.2405  0.0494 -0.2310
20532W        W40812  12.686   1.808  12.940 -0.2468  0.0224  0.0139
20533W        W40813   1.946  15.434  12.966 -0.1512  0.0773  0.0717
20534W        W40814   6.464   0.325  14.759 -0.0934  0.0166  0.2163
20535W        W40815   9.559   3.398   2.365 -0.3235 -0.1230  0.1946
20536W        W40816   3.209  11.535   1.161  0.0845 -0.0782  0.0001
20537W        W40817  15.890  10.931   3.191 -0.0069 -0.1136 -0.0348
20538W        W40818   3.189  13.678  13.498  0.3885 -0.0356  0.2240
20539W        W40819  11.457  13.449  14.920  0.0655  0.2843  0.2931
20540W        W40820   2.547   9.338   4.017  0.1482 -0.1150  0.3048
20541W        W40821   0.422  14.861   2.872 -0.0712 -0.0648  0.3886
20542W        W40822  12.543  12.812   3.111  0.3338 -0.2609  0.2371
20543W        W40823   6.133   6.539   4.556  0.0159 -0.0675  0.2973
20544W        W40824  12.522   3.935   4.783  0.1341 -0.2171 -0.1858
20545W        W40825   4.246  13.891   3.161 -0.0494  0.0796 -0.1876
20546W        W40826   7.999  12.686   0.956  0.0568  0.2723  0.0591
20547W        W40827   0.172  14.013   2.486 -0.2305  0.0755 -0.0492
20548W        W40828  15.871   5.053   0.611 -0.1167 -0.0706  0.1523
20549W        W40829   7.668   6.603  14.729  0.2842 -0.0647 -0.1263
20550W        W40830  15.576  11.954  13.427 -0.0137  0.1497 -0.1291
20551W        W40831   2.329  17.868  15.072 -0.1655  0.2331  0.2193
20552W        W40832   3.053   1.519   2.932 -0.0324  0.0424  0.3748
20553W        W40833  11.633   3.617   4.485 -0.2710  0.1669  0.1748
20554W        W40834  15.872  14.613  13.198  0.0835  0.0199  0.0608
20555W        W40835  15.790  11.033  13.780 -0.0128  0.0845 -0.2073
20556W        W40836  10.950  15.662  16.003  0.1980  0.1695  0.0572
20557W        W40837  11.928  14.615  16.101 -0.2803 -0.2258 -0.0623
20558W        W40838  11.878   8.526  12.080  0.0682  0.0065 -0.4288
20559W        W40839  15.102   6.366  14.124  0.0490 -0.0691 -0.1827
20560W        W40840   8.517   1.868  13.666 -0.1400  0.3154  0.2097
20561W        W40841  15.171  13.519   3.007 -0.2936  0.1430 -0.0620
20562W        W40842   8.966   5.525   0.939  0.1045 -0.3442  0.6976
20563W        W40843   1.673  15.092  16.265  0.2029 -0.2981 -0.0420
20564W        W40844   6.746  11.474  13.841 -0.3717  0.2109 -0.0473
20565W        W40845  11.088   6.464   1.264  0.1916 -0.1790 -0.0627
20566W        W40846  16.666  17.875   0.742 -0.0504  0.2116  0.3161
20567W        W40847  15.194   9.219  15.700 -0.3974  0.0395  0.0714
20568W        W40848   1.228  17.054   1.404 -0.1046  0.1390 -0.0342
20569W        W40849  14.966  10.201   4.445  0.4220 -0.0642 -0.0032
20570W        W40850   7.948  13.074   2.755 -0.1704  0.0176 -0.0553
20571W        W40851  17.801   2.761  12.284  0.0047  0.1349  0.3629
20572W        W40852  13.812   7.244  14.040 -0.0203  0.2904  0.1942
20573W        W40853  10.874   8.685  13.848 -0.2020  0.0641 -0.0083
20574W        W40854   8.070   0.935  15.721 -0.2347  0.2367 -0.0864
20575W        W40855   1.722  17.826  12.951  0.1007 -0.0724 -0.1762
20576W        W40856   0.184  15.386   2.789  0.1076 -0.0435 -0.0259
20577W        W40857   7.994  12.044  13.462  0.1593  0.0126  0.1256
20578W        W40858   5.674  16.421  12.924  0.2506  0.0416  0.0856
20579W        W40859  15.702  17.504  13.001 -0.0228  0.0223 -0.2519
20580W        W40860   7.209   2.889   3.679  0.0255  0.0120 -0.2240
20581W        W40861   9.817  16.134   4.626  0.1728  0.4374 -0.1963
20582W        W40862   4.260  14.941   2.610 -0.1294 -0.0017  0.2343
20583W        W40863   1.647   9.904  12.440  0.0268 -0.2301  0.0223
20584W        W40864   2.124   6.480  14.719  0.0253 -0.0961 -0.0207
20585W        W40865  10.123   5.376   3.021 -0.1349  0.0375  0.1346
20586W        W40866   6.922  13.708  15.805  0.2758 -0.2024 -0.0791
20587W        W40867  15.258  12.736  13.878 -0.2693 -0.2837  0.0723
20588W        W40868   8.860  16.575  14.230 -0.1975 -0.1045 -0.0270
20589W        W40869   9.291   3.831  12.002  0.3253  0.1760  0.4098
20590W        W40870   9.546   5.894   2.101  0.4266 -0.1716 -0.0473
20591W        W40871  16.981   9.435  12.994  0.3641  0.2165 -0.0639
20592W        W40872  14.362   2.293  14.570 -0.2456  0.4224  0.1388
20593W        W40873  13.946   3.863   4.910 -0.0593  0.2091  0.0067
20594W        W40874  11.928   7.688  13.390 -0.2026  0.0827  0.1155
20595W        W40875   5.645  12.314   4.765  0.1649 -0.1707  0.1925
20596W        W40876   3.600  11.924  15.191  0.2011 -0.0762 -0.0713
20597W        W40877  16.956  10.265   4.668  0.0207  0.1348 -0.2013
20598W        W40878   2.924  10.768   4.108  0.1181 -0.0257 -0.0205
20599W        W40879  11.491  12.904  15.255  0.0105 -0.1057  0.2400
20600W        W40880   5.590  15.541   0.416 -0.2733 -0.0545  0.1451
20601W        W40881   8.407   7.621  14.029 -0.2767 -0.0330 -0.0560
20602W        W40882   2.258   0.388  15.078 -0.0837 -0.1343  0.1758
20603W        W40883  13.525  16.917  13.484 -0.3257 -0.3776 -0.2289
20604W        W40884   5.925  11.412   4.856  0.1834  0.0421 -0.3078
20605W        W40885   0.911   5.777   1.167 -0.0184  0.0322 -0.0545
20606W        W40886   3.321   3.728  14.554 -0.2855 -0.0133 -0.2822
20607W        W40887   8.759   1.265   3.597 -0.2588 -0.0485  0.0045
20608W        W40888   7.485  17.266  14.144 -0.2040 -0.0082  0.2312
20609W        W40889   7.007   1.298  12.425  0.0771 -0.0657  0.1270
20610W        W40890  15.065  12.979  11.865 -0.0576  0.2627  0.1783
20611W        W40891   1.004   4.659  12.172  0.2572  0.1296  0.3131
20612W        W40892   5.001   0.567   0.669 -0.0843  0.2898 -0.0624
20613W        W40893  16.522   2.544   0.582 -0.6655 -0.1721  0.1856
20614W        W40894   3.555  13.704   5.258 -0.0978 -0.2464  0.0956
20615W        W40895   5.272   5.021  12.341  0.2260  0.1487 -0.2181
20616W        W40896   5.548   2.123  13.084 -0.0629  0.0255  0.0431
20617W        W40897  15.057   8.848   4.250 -0.0727 -0.0777 -0.0867
20618W        W40898   3.892   3.552  15.932  0.4894  0.0547  0.3091
20619W        W40899   7.401   7.178  14.293 -0.2473 -0.0803  0.0247
20620W        W40900   4.526  15.534  16.667 -0.1962  0.1658  0.0352
20621W        W40901  11.104   8.574  14.338 -0.1446 -0.0611  0.4519
20622W        W40902  17.002   1.591  12.386  0.0179 -0.0101  0.0286
20623W        W40903   6.398   2.871   2.424  0.0317  0.0588  0.0665
20624W        W40904  12.704   2.131   3.892 -0.1765 -0.1612  0.0651
20625W        W40905   1.084   9.091   0.711 -0.0788  0.1740  0.1225
20626W        W40906  12.834   7.896  14.674  0.1627 -0.2613 -0.0879
20627W        W40907   1.283  17.249  12.262 -0.3632  0.0884 -0.1931
20628W        W40908  16.792   9.518   3.500  0.0521 -0.1210  0.0955
20629W        W40909  17.746   3.228   2.493  0.1552  0.1068 -0.1081
20630W        W40910   6.925   6.083  13.469 -0.1945  0.2951 -0.0014
20631W        W40911  16.351   2.811  16.505 -0.1174  0.4443 -0.0604
20632W        W40912   7.606   5.094   3.660 -0.0700  0.1976 -0.1858
20633W        W40913   8.127  10.136  15.502  0.1252 -0.0782  0.2222
20634W        W40914   8.437   4.716   0.771 -0.0291  0.2043  0.1126
20635W        W40915  15.840  16.856  15.228  0.0799 -0.0540 -0.3489
20636W        W40916   4.050  13.377   3.401 -0.2536 -0.3127  0.1218
20637W        W40917   1.022   5.885   0.623  0.3743 -0.0937  0.0897
20638W        W40918  13.871   7.317   3.225  0.2007 -0.1012 -0.1346
20639W        W40919   9.513   7.622   0.335 -0.0941 -0.4369 -0.3524
20640W        W40920  14.376   1.393   2.549 -0.0659 -0.1839 -0.1682
20641W        W40921  12.827  16.791  15.420 -0.0017  0.2325  0.0267
20642W        W40922   1.064   7.983  12.313  0.1696 -0.0786  0.0593
20643W        W40923  12.518  14.431  13.948 -0.1385  0.1993  0.1424
20644W        W40924  11.884  12.654   1.116  0.0430  0.0729 -0.2041
20645W        W40925   2.600   2.870  11.985 -0.0573  0.0118 -0.2514
20646W        W40926   1.382  11.234   4.711 -0.0452  0.0442 -0.1316
20647W        W40927   3.763  12.301   1.727  0.2613  0.1495  0.0358
20648W        W40928   8.640   5.735  14.404 -0.0225 -0.1131  0.4420
20649W        W40929   4.495  15.483   1.768 -0.1790  0.1410  0.1548
20650W        W40930   8.281  17.876   4.166 -0.1286 -0.1538 -0.2223
20651W        W40931  16.857   1.628   0.470  0.2236 -0.1746  0.0791
20652W        W40932   0.965  10.427  14.680  0.0959  0.1391 -0.3016
20653W        W40933   0.430   6.106   1.870 -0.0961 -0.1423 -0.0737
20654W        W40934   6.254   0.528  13.265 -0.0742  0.2071 -0.0689
20655W        W40935  17.693  14.457  14.238  0.2655 -0.1187 -0.0406
20656W        W40936   2.290   8.012   3.579 -0.5793 -0.2556 -0.2639
20657W        W40937   4.469  10.675   0.804  0.0486 -0.2241  0.0400
20658W        W40938   3.421   0.810   1.109  0.1021  0.1293  0.0685
20659W        W40939   9.571  14.985  14.690 -0.0016 -0.1957  0.1993
20660W        W40940   4.776   9.940  13.542  0.1636  0.0601 -0.0754
20661W        W40941  16.979  17.665  16.326  0.4233 -0.0903  0.1149
20662W        W40942   9.776   6.721   4.465 -0.1327  0.2545 -0.3757
20663W        W40943  13.687  15.086   0.672 -0.0311  0.1446 -0.1776
20664W        W40944  15.623   0.216  12.708 -0.2193  0.0757 -0.0599
20665W        W40945  12.614   6.676  16.637  0.0213 -0.1139  0.0143
20666W        W40946   4.551   0.340   2.708  0.0758  0.0569 -0.0230
20667W        W40947  14.697   4.875   4.330 -0.1560 -0.1133  0.1848
20668W        W40948   4.429   8.297   2.402 -0.0100 -0.3838  0.1255
20669W        W40949   1.518   9.625  13.888 -0.2161 -0.0185  0.4677
20670W        W40950   2.631   1.460  13.882 -0.0483  0.0544  0.0046
20671W        W40951   7.679  11.179   2.405 -0.1798 -0.0664  0.0145
20672W        W40952  14.898   8.261  11.108 -0.1669 -0.0422 -0.3601
20673W        W40953  15.981  16.502  15.569  0.0348 -0.2305  0.2713
20674W        W40954  16.565  15.377   1.285  0.3680  0.1517  0.1019
20675W        W40955  11.750   5.292   2.273 -0.1061  0.0415 -0.3569
20676W        W40956   0.282   0.913   2.711 -0.2556  0.0026  0.2736
20677W        W40957  17.799  10.727  15.380  0.2309  0.0366 -0.2104
20678W        W40958  15.817   1.012   1.859  0.0303 -0.1973  0.2235
20679W        W40959  17.561  16.738  15.065 -0.2370  0.0547  0.2090
20680W        W40960  10.602  15.274   0.702 -0.3413 -0.2077  0.0035
20681W        W40961  16.426   0.680   0.110  0.2002  0.1662  0.1288
20682W        W40962   6.541  15.607   4.154 -0.1804  0.2716 -0.2007
20683W        W40963  14.074   1.076  12.127  0.0524  0.2489  0.1465
20684W        W40964   8.824  12.701  14.287 -0.0481  0.1682 -0.1302
20685W        W40965  11.326  12.947  13.680  0.0921  0.0865 -0.0310
20686W        W40966   2.364   5.235  12.935  0.0082 -0.0612 -0.0722
20687W        W40967   5.111   1.195  14.583 -0.0324  0.2580 -0.2633
20688W        W40968   7.822  15.286   3.686 -0.0113 -0.2005  0.0665
20689W        W40969   8.701  13.301   4.847 -0.1168 -0.0092 -0.1853
20690W        W40970  11.728   6.216   1.299 -0.1476 -0.2254  0.1176
20691W        W40971   8.411   1.790   0.196 -0.0497  0.0113  0.0037
20692W        W40972  17.613   9.012   0.830  0.2956  0.0604  0.1902
20693W        W40973  11.046   8.032   2.240 -0.3042  0.1406  0.1931
20694W        W40974  12.233  15.647   2.346 -0.0900 -0.1679  0.0374
20695W        W40975  16.083   9.046  15.491 -0.0409  0.0348  0.0317
20696W        W40976   5.560   5.642  15.432 -0.1794  0.2148  0.1792
20697W        W40977  15.814  10.437  12.025  0.2299  0.1596 -0.1970
20698W        W40978  13.477   8.598  13.399 -0.1705  0.0820 -0.0553
20699W        W40979  16.885   9.109  14.201 -0.0372  0.2444  0.0191
20700W        W40980   2.879  17.748  16.308  0.2319  0.1069  0.1521
20701W        W40981  15.440   5.047   3.006  0.1741 -0.3216 -0.0809
20702W        W40982   1.808  12.701   4.899 -0.2278  0.3713 -0.0839
20703W        W40983  14.461  10.388  12.358  0.1230  0.1914 -0.0010
20704W        W40984  14.303   4.599   1.393 -0.0787 -0.0055  0.0309
20705W        W40985   8.424  15.443  15.280  0.2060 -0.0409 -0.4291
20706W        W40986   3.616  17.878   1.776  0.0078 -0.0901  0.0198
20707W        W40987  14.922  15.258   2.397 -0.3583 -0.2970  0.0439
20708W        W40988   8.186   5.570   0.491 -0.1871 -0.0827 -0.0354
20709W        W40989   0.684   6.283   0.586 -0.0806 -0.1368 -0.0755
20710W        W40990   3.576  12.620  16.550 -0.4115 -0.2048 -0.0099
20711W        W40991  11.482   3.255  14.779 -0.3131  0.2931 -0.2457
20712W        W40992   4.176  12.286   1.359 -0.0762 -0.4428 -0.2611
20713W        W40993   4.902   8.844   1.269  0.1755 -0.2680  0.1272
20714W        W40994   0.121   4.687   3.141 -0.1077 -0.0685 -0.1964
20715W        W40995  16.670   2.168   0.259  0.1993 -0.2192  0.0397
20716W        W40996  12.347   5.419  15.874 -0.1578  0.1818  0.0562
20717W        W40997  17.653  12.017  14.411  0.0621 -0.3011  0.1754
20718W        W40998   6.901  17.660  15.364 -0.0244 -0.2673 -0.0345
20719W        W40999  11.464   7.467  14.425  0.0792  0.0731  0.3002
20720W        W41000   8.963   5.961   2.654  0.0236  0.0037  0.1898
20721W        W41001   7.544   9.729   1.167 -0.0701  0.1513 -0.4048
20722W        W41002  10.747   1.067  11.710  0.1058  0.1691  0.2105
20723W        W41003  11.415  17.089   2.583 -0.1029 -0.1419 -0.1759
20724W        W41004   5.572  16.196   2.374  0.0133  0.0730  0.2448
20725W        W41005   9.007  11.912   4.584  0.1546  0.0480 -0.1243
20726W        W41006  14.727   3.410   3.256  0.0807  0.4070 -0.1863
20727W        W41007   8.753   7.045  16.631 -0.0640  0.5186 -0.1358
20728W        W41008  13.701   4.656  11.997 -0.2252 -0.1888 -0.1553
20729W        W41009  11.915  10.692   2.111 -0.4704  0.1313 -0.1818
20730W        W41010  14.837  11.992   2.757 -0.4038  0.3090 -0.3593
20731W        W41011   0.035   7.671   0.810 -0.2887 -0.2241  0.0075
20732W        W41012  10.177  13.538   3.463  0.1816 -0.2637  0.0873
20733W        W41013   8.077   0.179  12.697 -0.0482 -0.0434  0.1113
20734W        W41014   7.650   7.108   3.601 -0.0679  0.1888  0.4655
20735W        W41015   1.731   5.568  14.596 -0.0438  0.1230  0.0705
20736W        W41016   6.287  11.227  16.571  0.1797  0.0874  0.1734
20737W        W41017   0.496   8.172   3.581 -0.1515 -0.1454 -0.2888
20738W        W41018   6.067   8.432  14.594  0.3495 -0.0040 -0.1217
20739W        W41019  11.994  11.579  15.248  0.2086  0.1812  0.1995
20740W        W41020  12.580  10.423  14.892  0.2372  0.3480 -0.1276
20741W        W41021  11.712   9.132   1.938 -0.0411 -0.0410 -0.0955
20742W        W41022   9.468  14.183   2.944  0.1337 -0.2009  0.1950
20743W        W41023  11.156   8.956   0.737  0.0385 -0.1109  0.1057
20744W        W41024   8.201  14.930   4.528 -0.0887 -0.0045 -0.1225
20745W        W41025   1.554  12.076   3.503 -0.2690 -0.1150  0.0332
20746W        W41026   7.738   9.268   4.856 -0.3307  0.0350 -0.1438
20747W        W41027  15.305  17.816  12.985 -0.2189  0.0786 -0.1013
20748W        W41028  13.114  10.549  15.684  0.0911  0.0719  0.3940
20749W        W41029   5.459   0.234  13.311 -0.0239  0.2592  0.0858
20750W        W41030   0.582   0.428  13.516 -0.0451 -0.3168 -0.3379
20751W        W41031  15.136   2.561   0.991  0.2019  0.2403 -0.2256
20752W        W41032  10.493  13.267   4.357 -0.1076  0.0449  0.4321
20753W        W41033  17.438   0.767   3.475  0.1042 -0.1782 -0.0751
20754W        W41034   5.967  15.945  12.208 -0.2933  0.2095 -0.0454
20755W        W41035  12.901   5.560  15.797  0.2194 -0.0932 -0.1398
20756W        W41036   9.408   3.829   0.280 -0.0338 -0.2905  0.0949
20757W        W41037   9.739  14.976   1.779 -0.0059 -0.0353  0.1589
20758W        W41038   7.283  12.722  12.928  0.0089  0.1125  0.0798
20759W        W41039  15.381   6.923  15.668  0.1549  0.4903  0.3618
20760W        W41040   9.168  15.346  15.465  0.0317 -0.0594 -0.1015
20761W        W41041   9.150   4.080   3.922  0.0251 -0.4455  0.0623
20762W        W41042  15.904  13.941   2.069  0.1331  0.0629 -0.0747
20763W        W41043  10.642  11.115  14.701 -0.2651 -0.0044  0.2195
20764W        W41044   4.803  11.536  12.416 -0.4813 -0.0611 -0.0088
20765W        W41045  16.995   6.644  14.230  0.1392 -0.1306  0.0316
20766W        W41046  11.653  13.849  15.513  0.1232  0.0347 -0.1848
20767W        W41047  15.529  14.502   0.144  0.3628 -0.2571 -0.2443
20768W        W41048   2.064  13.121  16.087 -0.4520  0.1344 -0.0912
20769W        W41049   6.245  11.260   1.817  0.1165  0.4080  0.2139
20770W        W41050  13.401   4.408  13.029 -0.1792 -0.0656  0.0248
20771W        W41051  16.961   7.363   3.443  0.3143  0.0171  0.1178
20772W        W41052   7.053  15.935  15.743 -0.0358  0.2886  0.0968
20773W        W41053  15.046  17.628   3.411  0.0453  0.2329  0.2168
20774W        W41054   6.008   2.602   2.165  0.2360  0.2168  0.0741
20775W        W41055   3.674  16.467   2.961 -0.0241 -0.1366 -0.1435
20776W        W41056  17.382  15.072   3.519 -0.0674 -0.1061  0.0829
20777W        W41057   3.907   3.378   1.338 -0.0402 -0.5599  0.0462
20778W        W41058   7.872  16.020   2.795  0.0416  0.3803  0.0677
20779W        W41059   7.069   0.236  14.447 -0.1748 -0.2321  0.1414
20780W        W41060   6.051   6.651   2.258  0.1101 -0.2003 -0.3761
20781W        W41061  15.921   1.971  12.342  0.1194 -0.2173  0.3230
20782W        W41062  15.593   0.942   3.476 -0.0382 -0.0349  0.2585
20783W        W41063  11.699   2.732  13.558 -0.0487  0.2652  0.1203
20784W        W41064   0.891  17.626  15.893 -0.0504 -0.2154  0.0793
20785W        W41065  12.938   2.618   2.168  0.3164  0.0450  0.0893
20786W        W41066   0.142   2.548   4.575  0.2125  0.1434 -0.1712
20787W        W41067  12.856   3.563   1.731 -0.2395  0.1299  0.3096
20788W        W41068  16.994   4.415  12.755 -0.0938 -0.3645  0.3268
20789W        W41069  14.624   0.487   2.197 -0.2329  0.2125  0.1852
20790W        W41070  15.748  16.583  13.211 -0.0857 -0.1857 -0.0849
20791W        W41071   2.270  12.239   3.029 -0.2152  0.0541 -0.1653
20792W        W41072   7.857   4.069   4.328 -0.1888 -0.0644  0.3039
20793W        W41073   9.886   8.175  13.892 -0.0715 -0.0705  0.0882
20794W        W41074  16.113   2.477   4.335 -0.1262 -0.0054  0.2013
20795W        W41075   4.909   1.341  13.919 -0.0858 -0.0209  0.0603
20796W        W41076   2.960  13.513   0.559  0.2431 -0.3823  0.0818
20797W        W41077  14.130   9.875  13.101  0.0966  0.0042  0.1143
20798W        W41078  11.538   0.556   0.347  0.2964 -0.2317  0.2961
20799W        W41079   5.744   2.966  15.043  0.0966  0.0101 -0.3171
20800W        W41080  11.457   9.098  12.946 -0.8149 -0.0299 -0.1928
20801W        W41081   6.386  12.151   2.548 -0.1228  0.0284  0.1129
20802W        W41082   2.385   3.593   3.456  0.0458  0.1228  0.0273
20803W        W41083  12.152  13.800   4.136  0.5078 -0.1193 -0.1390
20804W        W41084  12.395   1.599   1.809  0.0069 -0.1890  0.1231
20805W        W41085   8.547  17.688  16.573 -0.0070 -0.0003  0.1607
20806W        W41086   6.455  12.389  12.115 -0.1781  0.0781  0.2872
20807W        W41087   8.981   2.825  15.850 -0.0764 -0.1297 -0.0561
20808W        W41088   7.793   9.420  15.858 -0.1512  0.0137 -0.0927
20809W        W41089   1.617  11.762   0.251  0.1480  0.1096 -0.1032
20810W        W41090  14.169   5.955  14.766 -0.1106 -0.2810 -0.2115
20811W        W41091  11.131   4.965   0.817 -0.0901 -0.3985  0.1774
20812W        W41092   2.311  13.965   4.467  0.2599 -0.1288  0.2591
20813W        W41093   8.775   0.513  13.924 -0.1588 -0.0574 -0.1107
20814W        W41094   5.466  11.136   3.745  0.1093  0.2009 -0.2574
20815W        W41095  12.364  16.399  13.276 -0.0298  0.0485 -0.3231
20816W        W41096  13.850   5.626  12.921  0.0285 -0.0912  0.2070
20817W        W41097  13.249  10.399   3.998  0.0981 -0.0513 -0.1277
20818W        W41098   0.671   3.142  12.219  0.2445 -0.0052 -0.1662
20819W        W41099  11.450   6.118  15.448  0.0975  0.0772 -0.0383
20820W        W41100  13.381   3.894  15.138  0.1354 -0.3944 -0.0653
20821W        W41101   3.390   0.825   0.303  0.1116  0.2410  0.3657
20822W        W41102   2.909   2.712   3.105  0.0864  0.0498  0.0501
20823W        W41103   0.595   5.615   3.551 -0.0892 -0.2555  0.0817
20824W        W41104   8.157  14.014  16.191  0.0250  0.1921  0.0717
20825W        W41105   4.517   9.402   2.083  0.1200 -0.1567  0.2617
20826W        W41106   1.530   3.157   3.048  0.0445 -0.1695  0.2902
20827W        W41107   4.914  16.665  14.215 -0.3238  0.0069 -0.0014
20828W        W41108  14.909   7.308  14.659  0.0791 -0.3166  0.3532
20829W        W41109   7.242  10.204   1.323 -0.0850 -0.1897 -0.0287
20830W        W41110   8.667  14.157   4.372 -0.3429  0.1030 -0.0303
20831W        W41111   4.033   9.951   4.858  0.1660 -0.0641 -0.0103
20832W        W41112   6.564  10.554   4.259  0.0841 -0.3501  0.0632
20833W        W41113   0.037   1.547  16.046  0.0433 -0.1924  0.1071
20834W        W41114  11.789   1.874  12.821  0.1051  0.0548 -0.0542
20835W        W41115  10.538  14.978   2.471 -0.0229 -0.1503  0.1268
20836W        W41116   4.656   1.764  15.822  0.3072  0.0130  0.1695
20837W        W41117   7.517  12.480   1.170 -0.2728  0.1137 -0.0485
20838W        W41118  15.366  14.699   2.707 -0.0049  0.0151  0.1487
20839W        W41119   5.406   5.241  16.179  0.0190  0.2596  0.2860
20840W        W41120   9.424   5.811   3.791  0.0935 -0.0630 -0.4300
20841W        W41121  11.355  14.051   3.783 -0.0451  0.0567 -0.2767
20842W        W41122   9.426   0.506   3.281  0.0682 -0.1006 -0.1867
20843W        W41123  14.530  10.488   4.451  0.2177 -0.0432 -0.1915
20844W        W41124   2.801  14.541  14.693 -0.0300  0.0805 -0.0205
20845W        W41125   0.353  14.357   2.923  0.2522  0.0290 -0.2583
20846W        W41126  13.780  11.090  14.485  0.0996 -0.0344 -0.0937
20847W        W41127   2.436   1.709   1.129  0.0250 -0.1464  0.2055
20848W        W41128   7.124   9.962   3.916 -0.0814  0.2847  0.0361
20849W        W41129   7.258   3.245  12.471 -0.0005 -0.1124  0.2275
20850W        W41130  16.931  12.039   4.389 -0.0461  0.0710  0.0797
20851W        W41131   4.263   9.286  15.565  0.0589 -0.1523 -0.1432
20852W        W41132   2.243  12.650  12.642  0.2819  0.1203 -0.1369
20853W        W41133  12.123   6.908   3.889  0.2717 -0.0789 -0.0472
20854W        W41134   6.526  11.477  12.536  0.0121 -0.2065  0.1421
20855W        W41135  17.646  15.884   4.455 -0.1144  0.1083  0.2537
20856W        W41136   9.360   0.277   1.682 -0.0451  0.0759  0.1562
20857W        W41137  14.279  16.704  13.926  0.1601  0.0516 -0.3184
20858W        W41138   8.246  10.646  14.608 -0.0864 -0.3960  0.0353
20859W        W41139  13.908  11.452   4.865 -0.1368 -0.1539 -0.2682
20860W        W41140   9.373   7.490  14.265  0.0398 -0.0352 -0.1888
20861W        W41141   0.210  10.512   5.561 -0.0341 -0.0985 -0.0282
20862W        W41142   3.784   9.029  13.348 -0.0214  0.3889 -0.0505
20863W        W41143   3.523  16.824  12.019 -0.2296 -0.0481  0.0983
20864W        W41144   9.903   5.360   0.578 -0.0082  0.1720 -0.1294
20865W        W41145  11.682   3.636  14.399 -0.0257  0.2950  0.1985
20866W        W41146   8.648   9.076   1.936  0.0589 -0.0500 -0.2751
20867W        W41147  17.663  17.411  13.465  0.1295  0.2236  0.2238
20868W        W41148  12.752  11.748   0.453 -0.1638  0.1633 -0.1319
20869W        W41149  14.490   8.314   1.583 -0.1621 -0.0325 -0.0371
20870W        W41150   7.404  12.972   1.885 -0.2614 -0.0453  0.0471
20871W        W41151   8.124   3.038  15.783 -0.2627  0.0015 -0.0388
20872W        W41152   1.008   4.107   1.561 -0.0575  0.0758  0.0182
20873W        W41153  10.127  16.979  13.134 -0.3539 -0.3087  0.2360
20874W        W41154  10.971   4.816  12.793  0.0104  0.0234 -0.1192
20875W        W41155  17.242   2.167   1.102 -0.0068  0.1251  0.0649
20876W        W41156  15.674  10.679  15.920 -0.0295  0.1521 -0.0461
20877W        W41157  16.673  17.900   4.980 -0.0314 -0.1387 -0.2073
20878W        W41158   5.245   1.574   1.780 -0.2562 -0.2030 -0.0236
20879W        W41159  12.658  17.810   5.090 -0.0833  0.1468  0.1763
20880W        W41160  17.715  17.962   0.249  0.0000 -0.0829  0.3028
20881W        W41161   5.537  13.052  12.448 -0.1084  0.1773 -0.2951
20882W        W41162   3.193   8.603  14.578  0.1628 -0.0972 -0.1326
20883W        W41163  16.885  16.946   2.042  0.2052 -0.2002 -0.0386
20884W        W41164   2.436   0.546  14.287  0.3358  0.1182 -0.1029
20885W        W41165   1.384  17.221  16.347  0.0813 -0.2411 -0.3709
20886W        W41166   9.620   3.129  14.710 -0.0935 -0.0383  0.1246
20887W        W41167  17.380   8.892   2.296  0.1673 -0.1818 -0.2329
20888W        W41168   5.009  14.366   0.926 -0.3111  0.1308  0.1003
20889W        W41169   8.177   7.568  13.623  0.0437  0.2239 -0.1951
20890W        W41170   7.026   6.818  15.039 -0.0592  0.0836 -0.2115
20891W        W41171  16.147  13.496  13.284  0.4282 -0.7014 -0.0977
20892W        W41172   2.128   9.325   3.642 -0.2814 -0.0463  0.1571
20893W        W41173  10.169  13.033   3.071 -0.0770 -0.0455 -0.2314
20894W        W41174  13.311   9.346   1.051 -0.1605  0.0224 -0.0766
20895W        W41175   3.080   6.286  13.819 -0.1888  0.2633  0.0219
20896W        W41176  11.744  17.705   0.900  0.1562  0.0161  0.0497
20897W        W41177  12.421  14.488   2.785 -0.6899 -0.1927  0.0635
20898W        W41178   5.366  16.569   0.024 -0.1692  0.0474 -0.0744
20899W        W41179   0.072  12.852  14.331  0.0808 -0.3130 -0.0491
20900W        W41180   9.439  12.439   1.519 -0.1227 -0.1269  0.0145
20901W        W41181   8.742  17.645   4.131 -0.1273 -0.0671  0.1734
20902W        W41182   2.314   9.167  16.559 -0.0044  0.0527  0.0928
20903W        W41183  12.826  16.462  15.061 -0.0114  0.0603  0.0959
20904W        W41184   3.467   4.639   0.407 -0.2142 -0.3851 -0.2468
20905W        W41185  11.974   0.282  12.529 -0.1345  0.2304 -0.1213
20906W        W41186   0.761   2.266  14.500  0.1823 -0.1183 -0.0228
20907W        W41187   2.771   5.978   0.542  0.0195 -0.2115 -0.0874
20908W        W41188  13.634  17.499  14.684  0.0484  0.0592  0.1335
20909W        W41189   9.352  17.878   0.476  0.0154 -0.1926  0.1169
20910W        W41190   2.114  17.255  16.478  0.3590  0.2225  0.3652
20911W        W41191   3.900  17.129   2.451 -0.0669 -0.1564  0.4352
20912W        W41192   6.837  17.151   2.537 -0.1972 -0.1632 -0.1703
20913W        W41193   8.677   4.180   4.260 -0.2580 -0.2804  0.1195
20914W        W41194  15.381  17.470   0.087 -0.0493 -0.2653  0.1266
20915W        W41195   9.692   5.754  15.281 -0.4722 -0.1979  0.0324
20916W        W41196   2.034  11.335  16.654  0.0334 -0.0249  0.0136
20917W        W41197  16.641   1.629   2.817 -0.2333 -0.2730  0.0746
20918W        W41198  13.850  11.907  12.873 -0.1937  0.0248 -0.5232
20919W        W41199  12.838   3.925   2.881  0.0705 -0.1663 -0.0066
20920W        W41200   8.616  11.351   3.329  0.1920  0.3143 -0.0703
20921W        W41201  11.270   2.466  12.454  0.0553 -0.0576  0.3916
20922W        W41202   2.668   8.195  15.409 -0.1825 -0.2575 -0.2250
20923W        W41203  12.796  13.160  14.698  0.0641 -0.0469  0.2338
20924W        W41204   4.430  12.124  16.063  0.0739 -0.4271 -0.3677
20925W        W41205   1.465   3.676   3.816 -0.2321 -0.0370 -0.0136
20926W        W41206   9.839   4.830  11.631  0.1292  0.0384 -0.1102
20927W        W41207  11.679  13.867  12.758 -0.0406  0.2811 -0.0683
20928W        W41208   7.765  16.301  14.374 -0.1176  0.1728  0.0098
20929W        W41209   0.570  10.231  11.972 -0.2885  0.2789 -0.1526
20930W        W41210   5.932   5.327  15.436  0.0326 -0.3901 -0.2562
20931W        W41211  12.129  16.038  14.166  0.1645 -0.0010 -0.1144
20932W        W41212  14.444  17.917   0.644  0.0718  0.2486  0.0501
20933W        W41213   7.475   1.045  13.496 -0.0798 -0.4494 -0.1569
20934W        W41214   5.320   1.317   3.813 -0.4738 -0.0543  0.0044
20935W        W41215   7.976   3.096  15.298  0.1304  0.2721  0.0600
20936W        W41216   1.544   4.175  12.816 -0.5763 -0.1559  0.1405
20937W        W41217  17.010  12.661   2.358 -0.0907  0.1571  0.0038
20938W        W41218   8.965   2.090  13.373  0.0407 -0.0204  0.0256
20939W        W41219   0.178  15.624  14.490  0.1377 -0.1336  0.3910
20940W        W41220  16.051   3.285  13.753  0.1357  0.1042  0.2201
20941W        W41221   0.001   2.245   3.749 -0.1241 -0.1238  0.1821
20942W        W41222  17.040   0.438  14.903 -0.0138  0.0268  0.1093
20943W        W41223   0.078  10.055  12.816 -0.1370 -0.0365 -0.0661
20944W        W41224   9.404   4.527   0.505 -0.1609  0.1252 -0.0403
20945W        W41225   6.615  17.285  13.054  0.2547 -0.0598 -0.0540
20946W        W41226   0.627   6.068  14.757 -0.0864 -0.3496  0.1490
20947W        W41227   7.202   2.073   2.721 -0.1295 -0.0391  0.0408
20948W        W41228   1.741   8.063  12.837  0.1524  0.0808 -0.1531
20949W        W41229  16.321   4.894   0.804  0.2583 -0.1653 -0.0723
20950W        W41230  15.920  10.325  12.965 -0.0289 -0.0823  0.1202
20951W        W41231  10.013  15.064  12.530  0.1219  0.1561  0.4550
20952W        W41232   6.292  10.419   2.907  0.0575 -0.2904 -0.2393
20953W        W41233   3.115  16.525  12.515  0.2419  0.0511 -0.0317
20954W        W41234   0.339   9.570   1.124  0.1960  0.1300 -0.0524
20955W        W41235  13.897   9.329   2.782  0.2367  0.1497  0.0350
20956W        W41236  13.268   9.382   3.185 -0.3506 -0.0666  0.2735
20957W        W41237  16.337  16.869  15.973  0.0116 -0.2176 -0.0654
20958W        W41238   0.911   0.398   2.328  0.1250  0.1622  0.1998
20959W        W41239  13.265   0.742   1.390  0.0694  0.0092  0.2399
20960W        W41240  11.922  16.126   2.261 -0.1516  0.2642 -0.0924
20961W        W41241   5.760   8.814  14.790 -0.0357  0.1126 -0.1053
20962W        W41242  12.741  14.603   3.432  0.0154 -0.3365  0.1603
20963W        W41243  11.083   0.211  10.399  0.0161 -0.1356 -0.1591
20964W        W41244  15.078   4.858   3.877  0.0129  0.1016  0.2316
20965W        W41245  12.296  10.371  15.916 -0.1290 -0.3089 -0.0364
20966W        W41246  14.633  11.679   3.676  0.4041  0.3405  0.0562
20967W        W41247  17.780  10.290  13.692 -0.1357 -0.0122 -0.2266
20968W        W41248  16.496  15.044   0.283 -0.0334 -0.1538 -0.1337
20969W        W41249  10.535  14.701   0.506  0.1578 -0.4543 -0.0495
20970W        W41250   6.513  13.064   1.919  0.0252 -0.0508  0.2335
20971W        W41251  16.466   0.432  12.488  0.0868  0.0332  0.0690
20972W        W41252   4.975   8.369   3.145 -0.3710  0.0483  0.0000
20973W        W41253   4.546  15.540  14.836  0.0719 -0.1565 -0.1885
20974W        W41254   8.043   7.298   3.794 -0.1867 -0.4922  0.1665
20975W        W41255   8.875   3.860   1.523  0.0815  0.3910  0.1627
20976W        W41256   5.421   2.398  16.458 -0.2702 -0.0523  0.2303
20977W        W41257  14.377   2.427  12.826 -0.0060  0.1958  0.0439
20978W        W41258   0.645   8.961  15.264 -0.1072 -0.0562  0.1485
20979W        W41259  14.545   4.265   0.979  0.1148  0.3889 -0.1411
20980W        W41260   9.836   2.538  11.969  0.1796 -0.2423  0.1670
20981W        W41261  10.576   2.335   2.948 -0.2642  0.1623  0.0116
20982W        W41262  12.775   0.789   0.375 -0.0096 -0.0128 -0.1886
20983W        W41263  12.745   1.326  15.617  0.1433  0.2093 -0.1492
20984W        W41264   4.471  10.851  14.454 -0.2085  0.0064 -0.1641
20985W        W41265   9.244   6.640   4.391  0.1790 -0.2329  0.0805
20986W        W41266  10.870   4.146  12.329 -0.1124  0.1169  0.0505
20987W        W41267  17.242   1.004  15.880  0.1754 -0.2298 -0.1237
20988W        W41268   7.731   5.648   3.412  0.0657  0.4299 -0.0783
20989W        W41269  10.519   3.253  13.698  0.1821 -0.2286  0.1102
20990W        W41270   6.660  11.113  14.950  0.0793 -0.0778  0.0259
20991W        W41271   4.165  12.815   1.194 -0.2905 -0.3456 -0.0544
20992W        W41272  11.939  11.941   2.278  0.1105 -0.0557  0.1334
20993W        W41273   0.543   5.588   1.448 -0.0209  0.0090  0.3542
20994W        W41274  13.206   6.225  13.341  0.1843  0.1235  0.0769
20995W        W41275   0.557   5.943   4.659  0.3521 -0.1351  0.2379
20996W        W41276   3.995  16.753  12.121 -0.0400  0.1278  0.2095
20997W        W41277   7.620  12.456  16.200  0.0072 -0.1295  0.0438
20998W        W41278   4.661   4.867  13.970  0.1458  0.0068  0.2402
20999W        W41279  12.797  17.646  13.523  0.0198 -0.0121  0.0596
21000W        W41280  14.045   6.994   1.276  0.0285 -0.0198 -0.0983
21001W        W41281   0.218   2.928  15.957 -0.0547 -0.0504  0.0454
21002W        W41282   0.209  12.608  13.818  0.0671  0.3867  0.1499
21003W        W41283  16.885   7.677  12.504  0.0597  0.3541  0.1443
21004W        W41284   5.459   0.075  12.520  0.0359 -0.0882  0.1175
21005W        W41285   3.586   3.230   3.216  0.4831 -0.1741 -0.1514
21006W        W41286   1.096   2.566  14.649  0.0546 -0.0445 -0.0736
21007W        W41287   6.298   0.143  12.924 -0.2714  0.2843 -0.1053
21008W        W41288   5.963   6.889   1.534  0.3038 -0.1296 -0.1816
21009W        W41289   7.120  10.911   0.171  0.0660 -0.0573 -0.1766
21010W        W41290   1.863  14.617   1.203 -0.0267  0.2343 -0.0852
21011W        W41291  15.771   2.862  13.772  0.1752 -0.1577  0.0184
21012W        W41292   7.258  14.514  13.988  0.0450  0.2280  0.1088
21013W        W41293   5.401  13.820   4.760 -0.0153 -0.0134 -0.0093
21014W        W41294   7.378   8.467   4.101 -0.2129 -0.1815 -0.0168
21015W        W41295  12.168   5.924  16.597 -0.0663 -0.3050 -0.1013
21016W        W41296  14.014  12.768   1.781  0.3840  0.2343  0.0336
21017W        W41297  15.399  15.403  12.809  0.1348  0.0625 -0.2281
21018W        W41298   3.970   0.860   3.507  0.0105 -0.0733 -0.2549
21019W        W41299   7.277  12.460   4.389 -0.0851 -0.0940 -0.1455
21020W        W41300   1.969   9.674   2.467  0.0134 -0.0123 -0.1494
21021W        W41301   8.531   3.001   3.200 -0.2667 -0.0548  0.2855
21022W        W41302  13.855  16.581  12.273 -0.2628 -0.0383 -0.0576
21023W        W41303   7.128  10.586   2.726  0.0164 -0.0457  0.1569
21024W        W41304  11.852  13.723  14.030 -0.1876 -0.3344 -0.1040
21025W        W41305   0.007  14.466   3.817  0.0227  0.0834  0.0248
21026W        W41306   8.341   3.443   1.544  0.1341  0.1230 -0.0325
21027W        W41307   5.022  13.615   4.428  0.2425 -0.3133 -0.0374
21028W        W41308   2.274   1.360   3.764  0.1845  0.3592  0.2190
21029W        W41309   6.968   4.155   4.576 -0.2388 -0.1347  0.1615
21030W        W41310  14.948   0.006  16.137  0.2397 -0.0013 -0.2472
21031W        W41311  14.707  12.742  13.915  0.1844  0.0471 -0.1851
21032W        W41312  12.214  13.560  14.292 -0.0753 -0.0104  0.0334
21033W        W41313  14.570  13.552   3.891  0.0692 -0.0057  0.3036
21034W        W41314   2.958   9.711   2.644 -0.3282  0.1188  0.0358
21035W        W41315  15.731  17.237   3.293  0.1315 -0.1393  0.0252
21036W        W41316   3.342   4.501   1.881  0.0990  0.2423 -0.1529
21037W        W41317  14.883   9.465  11.138 -0.0384 -0.0484 -0.0691
21038W        W41318   4.360   5.982   4.304 -0.1745 -0.0819 -0.0417
21039W        W41319  16.646  17.456   3.858  0.3026 -0.1121 -0.0691
21040W        W41320  11.359   8.789  13.907  0.2457 -0.0969  0.3452
21041W        W41321  12.893   7.470   0.434 -0.1855  0.0741  0.1294
21042W        W41322  10.674  16.284  12.098  0.0167 -0.0524  0.0118
21043W        W41323  11.484  12.295  12.093 -0.1253 -0.2034 -0.2140
21044W        W41324  15.273   0.695   4.546  0.3618  0.4085 -0.0618
21045W        W41325  12.466   3.065   3.849  0.0506  0.0980 -0.2205
21046W        W41326   6.670   5.563   2.139  0.1079 -0.1574  0.0250
21047W        W41327  12.497   7.889   3.420 -0.3139 -0.2285  0.0728
21048W        W41328   2.001   3.684   3.170 -0.1577 -0.1625 -0.0313
21049W        W41329   9.452  17.172  13.743 -0.2994  0.0646  0.1496
21050W        W41330   5.743   9.538   1.888 -0.1216 -0.1601  0.0443
21051W        W41331   6.594   6.665  14.150  0.0862 -0.1896  0.1260
21052W        W41332   6.332   7.325  12.015 -0.1387 -0.2153 -0.1483
21053W        W41333  14.054   0.058   4.430 -0.0898 -0.0600 -0.2196
21054W        W41334   5.060  14.672   2.484 -0.1082  0.0516 -0.2114
21055W        W41335  14.500  12.014   1.047  0.2430 -0.0199 -0.2585
21056W        W41336   1.006   0.122   3.404 -0.0277  0.3354 -0.1426
21057W        W41337   7.710  12.243   4.253  0.1238  0.0707  0.1051
21058W        W41338   8.452   3.627   3.517  0.0161 -0.0564 -0.2472
21059W        W41339   5.434   6.512  14.167  0.2431  0.2138  0.0810
21060W        W41340  11.906  10.748   3.397 -0.3168 -0.4598 -0.1447
21061W        W41341  10.082   0.064   4.712 -0.0858 -0.1781  0.2682
21062W        W41342   7.225   8.889  14.618 -0.2125  0.2021  0.0482
21063W        W41343   5.613   5.461   4.273  0.0436 -0.1593 -0.0918
21064W        W41344   7.069  14.864   0.977 -0.2756  0.0782 -0.0041
21065W        W41345  10.345   6.374  15.464 -0.1173 -0.2568  0.0923
21066W        W41346   7.462   4.246  12.340 -0.0160  0.2536  0.0426
21067W        W41347   7.361  14.170  13.628  0.2008  0.1363 -0.1604
21068W        W41348   3.238  13.007   2.910 -0.2514  0.3287  0.0997
21069W        W41349  10.049   8.814   3.367 -0.1514  0.1725 -0.3163
21070W        W41350   6.183  13.525  14.278  0.2252  0.1162  0.5230
21071W        W41351   3.585   0.786   1.932  0.0352 -0.0345  0.4573
21072W        W41352   0.867   6.263  13.508 -0.1751 -0.1931 -0.2118
21073W        W41353   0.353   0.583   4.531 -0.2188  0.0794 -0.0937
21074W        W41354   8.052  16.233  12.563 -0.0834  0.2518 -0.1686
21075W        W41355  12.165   1.125   3.616 -0.0895 -0.0818  0.2078
21076W        W41356  12.367  13.274   0.550  0.0090 -0.0253  0.0945
21077W        W41357   4.233   8.937  16.209  0.3481 -0.0353  0.0716
21078W        W41358  14.236   9.486  14.983  0.3385  0.0150 -0.0936
21079W        W41359  12.083  11.318  16.432 -0.0878 -0.0831  0.3537
21080W        W41360   8.309   6.353   1.300 -0.0307  0.0439  0.1636
21081W        W41361   1.751   5.418  12.240 -0.0813  0.0578 -0.2526
21082W        W41362   7.927   1.912  13.828 -0.1037  0.0449  0.2666
21083W        W41363   9.620   2.378   1.248  0.0188  0.0018  0.2622
21084W        W41364   4.300   7.657  15.990  0.2760 -0.0791  0.0176
21085W        W41365   8.961   8.015  13.085  0.1797  0.0196  0.3400
21086W        W41366  12.985   3.758  11.461  0.0100  0.1025 -0.3398
21087W        W41367   9.858   9.266   0.918  0.1640  0.4301 -0.0281
21088W        W41368  14.489  17.094   0.405  0.1200  0.2666  0.1039
21089W        W41369   0.403   0.049  15.268 -0.0659  0.0977  0.1222
21090W        W41370   7.530  12.650   3.973 -0.1934 -0.1015  0.1813
21091W        W41371   3.639   8.214  15.047  0.2219  0.1103 -0.1345
21092W        W41372   4.911   2.712  14.742 -0.1324  0.0565 -0.0351
21093W        W41373   0.476   3.931  15.476 -0.2411 -0.2194 -0.0213
21094W        W41374  11.436  14.920  15.544 -0.0900 -0.0368 -0.0853
21095W        W41375  17.632   4.301  12.216  0.0790  0.1557 -0.2247
21096W        W41376  11.340   3.428   1.411  0.1200  0.1213  0.1221
21097W        W41377   2.339   5.213  13.489 -0.0397 -0.0613 -0.0131
21098W        W41378  15.928  10.563  16.308  0.0055  0.1908  0.0554
21099W        W41379  15.473   8.798  11.065  0.0449 -0.0171 -0.0248
21100W        W41380   5.900   7.450   2.710  0.3722 -0.0867  0.0679
21101W        W41381   9.542   9.765  13.121  0.0360 -0.0609  0.4956
21102W        W41382  13.767   0.231  12.332  0.1531  0.0027  0.1501
21103W        W41383  17.113  14.618  13.013  0.1618 -0.1895  0.1513
21104W        W41384   2.331  14.253  14.389  0.1161 -0.1821 -0.0299
21105W        W41385   6.013  11.381  14.360 -0.2002 -0.2704  0.0058
21106W        W41386  13.875   2.665  13.065  0.5481  0.3413  0.1290
21107W        W41387   1.671  13.010   2.877 -0.0491 -0.5544 -0.1117
21108W        W41388   7.182  17.327  16.243 -0.2756 -0.0022 -0.2451
21109W        W41389   2.786  10.393   3.196 -0.1662 -0.3297 -0.1024
21110W        W41390   2.080   5.235  16.595  0.4006  0.1206  0.0206
21111W        W41391  16.800  11.127   4.128 -0.0560  0.2012  0.3147
21112W        W41392   7.616   0.775  15.960 -0.0410  0.0212  0.0983
21113W        W41393  14.521  15.438   0.503 -0.3503  0.2553 -0.0051
21114W        W41394  12.200  16.772   4.234 -0.1723  0.1270 -0.0095
21115W        W41395  16.263  10.080  14.562 -0.0731  0.2998  0.3980
21116W        W41396  11.914  11.662   4.061  0.0781  0.4110 -0.0296
21117W        W41397   3.023  10.039   1.997 -0.1052 -0.0949  0.0207
21118W        W41398  13.123  12.347  14.507  0.3591  0.0328  0.1005
21119W        W41399   8.350  16.199  16.173  0.1581 -0.2895  0.1403
21120W        W41400  10.947  11.996  14.665 -0.1139  0.0540  0.0792
21121W        W41401  10.580   0.660  13.014  0.2436  0.3281  0.0018
21122W        W41402  12.688  15.078   3.230 -0.3000  0.0010 -0.1909
21123W        W41403   4.960   5.569   1.512  0.3563 -0.1993  0.0163
21124W        W41404  10.611   8.711  13.112  0.1881 -0.2609  0.0928
21125W        W41405  16.012   7.928  15.496  0.2974  0.1615  0.1048
21126W        W41406   9.889   4.461   3.362  0.2475  0.1029  0.0969
21127W        W41407   2.290  17.842   0.873 -0.2734 -0.0306 -0.0042
21128W        W41408  16.476   0.912   1.927 -0.3884  0.2249 -0.0729
21129W        W41409   7.538  17.013  15.008  0.1216 -0.3038 -0.0675
21130W        W41410  11.161  12.987   4.444  0.0823 -0.0966  0.0703
21131W        W41411   3.551  15.870   4.051 -0.0852  0.1583 -0.3260
21132W        W41412   7.024  17.512   2.786  0.0059  0.0612 -0.2575
21133W        W41413  15.060  17.932   4.465 -0.0079 -0.0957 -0.2333
21134W        W41414  13.779   2.870   2.736  0.1777  0.1343  0.1340
21135W        W41415  14.306  17.771   4.096  0.1573  0.1306  0.1154
21136W        W41416   3.389  10.756  16.125 -0.2265  0.1598 -0.2154
21137W        W41417  13.594  11.840  15.212  0.2280 -0.1243  0.1439
21138W        W41418   1.220  13.100   4.229 -0.1285 -0.1023 -0.0749
21139W        W41419  14.367  16.970   3.070 -0.0616 -0.1337 -0.0661
21140W        W41420  11.795   0.809   3.849  0.1904  0.1372  0.2304
21141W        W41421   0.971  14.411   3.579  0.1126 -0.1464  0.2280
21142W        W41422   0.876   8.937  12.693  0.1860 -0.0610 -0.1397
21143W        W41423  13.185   3.413  13.074  0.1420 -0.1023  0.0341
21144W        W41424  13.342  14.083  14.034 -0.0170 -0.0931 -0.2927
21145W        W41425  13.661   5.471  14.293  0.1466 -0.0993 -0.1852
21146W        W41426  13.957  10.065  12.544  0.0978  0.0664 -0.3576
21147W        W41427   1.184   3.355  14.092  0.2790 -0.2968 -0.1057
21148W        W41428   2.821   6.651   0.667  0.2124 -0.0803  0.1032
21149W        W41429   1.668  12.763   0.027  0.1029  0.1178 -0.0792
21150W        W41430   8.823  13.836  16.591  0.0551  0.1949 -0.1794
21151W        W41431  12.276  10.374   4.385 -0.2315 -0.6466 -0.0175
21152W        W41432  11.905  14.216  15.247  0.1559 -0.2600 -0.0411
21153W        W41433   9.213  11.349   1.565  0.2484  0.0311 -0.1403
21154W        W41434   2.106  13.706   0.357 -0.0387 -0.1015  0.0216
21155W        W41435  16.114   3.584  11.927  0.1398  0.0798 -0.1335
21156W        W41436   8.491  13.604  16.260  0.0953  0.0304  0.1527
21157W        W41437  14.382   2.359  12.058  0.1708  0.1340  0.2659
21158W        W41438   0.429   9.709  15.186 -0.1899  0.3767  0.2071
21159W        W41439   2.411  15.788  13.569 -0.1536  0.1482 -0.0964
21160W        W41440  12.043  17.844  14.197 -0.2432 -0.1316 -0.1331
21161W        W41441  16.491   0.349   3.495  0.0425 -0.1110  0.0111
21162W        W41442  12.411   8.657   0.138  0.1122  0.1264 -0.0436
21163W        W41443   0.873  15.188   4.437 -0.1759  0.0304  0.0511
21164W        W41444   2.251   7.973  12.747  0.1059  0.3363  0.3124
21165W        W41445   7.590  11.477  13.352  0.1265 -0.1209  0.3071
21166W        W41446   9.889  13.843   3.186 -0.2140 -0.1137 -0.3492
21167W        W41447   6.876   8.447  12.737  0.0791 -0.3169  0.0956
21168W        W41448  16.638  12.679   1.028 -0.1716 -0.3681  0.0985
21169W        W41449  10.261   5.421   1.020 -0.1980 -0.1359  0.2217
21170W        W41450   4.728  12.521  13.667  0.3257 -0.1194 -0.2612
21171W        W41451   1.230   9.704   1.696  0.0684 -0.1129 -0.1727
21172W        W41452   2.110   9.261   2.132  0.0510  0.3175 -0.1635
21173W        W41453  13.816   6.735   3.049  0.0451 -0.0721 -0.0299
21174W        W41454   8.306   7.215  12.194 -0.1940  0.0552  0.0642
21175W        W41455  13.412   0.916  15.084 -0.2365  0.1308  0.1181
21176W        W41456  12.636  14.201  16.350 -0.3891 -0.2101 -0.0046
21177W        W41457  17.604   9.437   1.216  0.3510 -0.0089  0.0733
21178W        W41458  14.369   3.713  15.053  0.1304  0.0630  0.2595
21179W        W41459   9.597  13.370  12.155  0.1877  0.3362  0.2762
21180W        W41460  10.828   6.818   2.749  0.1422 -0.3384 -0.5102
21181W        W41461  13.430  15.866   2.023  0.0295  0.1339  0.3081
21182W        W41462  11.353  15.799   2.078  0.0959  0.2280 -0.1102
21183W        W41463  10.669   2.436   4.134  0.1675  0.0547 -0.0797
21184W        W41464   0.689   7.720   3.645  0.2204 -0.1389  0.1614
21185W        W41465  15.445   4.845   3.531 -0.0090 -0.0470  0.1607
21186W        W41466   7.539   8.410  13.938  0.0960 -0.2723  0.2096
21187W        W41467   7.566   8.305   3.006 -0.0319  0.3001  0.1195
21188W        W41468   7.505   2.430   3.028 -0.0960  0.2506  0.0335
21189W        W41469  13.944   6.340   4.415 -0.0001  0.2738  0.0297
21190W        W41470  12.807   9.691   1.236 -0.2932 -0.0995 -0.0188
21191W        W41471  13.184   1.413  15.901 -0.2561 -0.2480  0.2281
21192W        W41472   0.509  10.399   4.990  0.0878 -0.1184  0.2713
21193W        W41473  16.906   6.480   3.604  0.2274  0.2577  0.1307
21194W        W41474  13.197  15.846   0.812  0.0688 -0.0174  0.2392
21195W        W41475   3.286   3.178  16.465  0.5020 -0.2361  0.1078
21196W        W41476  11.019  15.026   0.562  0.0291  0.0069 -0.0726
21197W        W41477  14.250  13.307  15.441  0.2305 -0.1527  0.3340
21198W        W41478   9.906  13.231   0.845 -0.0422 -0.0783  0.0782
21199W        W41479  12.143  14.138   2.927 -0.1034 -0.1528  0.0754
21200W        W41480   9.391   3.679   1.274 -0.3786  0.0858  0.1554
21201W        W41481  17.419   7.563  16.455 -0.0334  0.0281  0.0240
21202W        W41482  14.677   7.179   4.185  0.1552 -0.0420 -0.0338
21203W        W41483   9.933   4.688   2.662  0.0130  0.1714  0.0250
21204W        W41484  17.625  10.719   2.219 -0.3179 -0.0182 -0.0968
21205W        W41485  10.421   8.210  11.714 -0.1226 -0.0628 -0.0657
21206W        W41486   8.262  10.726  13.518  0.1716 -0.0687 -0.0580
21207W        W41487   2.796   1.913   3.117  0.0360 -0.1479 -0.2693
21208W        W41488   3.011   6.781  12.851  0.0967 -0.0123 -0.1104
21209W        W41489   6.070   9.649  14.617  0.1810 -0.0302  0.0383
21210W        W41490  17.627  11.203   0.354 -0.1081  0.2835 -0.0137
21211W        W41491   0.524  12.673   4.847 -0.1756  0.0078  0.1754
21212W        W41492  10.925   5.660  10.495  0.1208 -0.0558  0.0700
21213W        W41493  13.290   7.667  15.772  0.1136 -0.1042  0.0472
21214W        W41494   4.880   9.039   3.874 -0.1854  0.0778 -0.5164
21215W        W41495  10.608   9.543   2.786 -0.1741 -0.0760 -0.0708
21216W        W41496   9.733  12.723   2.575  0.0007 -0.0100 -0.1096
21217W        W41497   2.893   4.150   4.839 -0.0512 -0.0330  0.0858
21218W        W41498   2.657   1.356   0.295 -0.1476 -0.2976 -0.3319
21219W        W41499   7.505  11.012  16.077 -0.0562  0.0980 -0.0646
21220W        W41500  17.205  13.731  13.737  0.0586  0.0140  0.0076
21221W        W41501   8.953   9.024  12.735  0.0353 -0.3203 -0.1152
21222W        W41502   4.379   1.941  14.975  0.1283 -0.3808  0.1761
21223W        W41503   5.267   9.584   2.207  0.0203 -0.3993  0.1564
21224W        W41504  10.507  17.487   1.580  0.3581 -0.0882  0.2383
21225W        W41505   8.672  12.234   5.373  0.1424 -0.2884 -0.2009
21226W        W41506   1.832  10.409  13.035  0.2487  0.1095  0.0456
21227W        W41507   8.538   9.624   4.181 -0.3750 -0.1689 -0.5104
21228W        W41508   4.498  16.668  12.087 -0.0774 -0.1043 -0.1523
21229W        W41509   0.168   2.090   3.250  0.1287 -0.0701 -0.0783
21230W        W41510   0.288  13.528   4.212 -0.2472 -0.0062 -0.2179
21231W        W41511   7.674  12.694   3.241  0.5108 -0.0300  0.1837
21232W        W41512  16.910  15.699   4.766  0.0936 -0.1676 -0.2092
21233W        W41513   5.826  14.183   4.208 -0.0794 -0.2020 -0.4917
21234W        W41514   5.711   7.521   1.103 -0.1245 -0.3997 -0.1327
21235W        W41515   7.756   0.680  13.333  0.3491 -0.0540 -0.2616
21236W        W41516  11.812   6.433  15.224 -0.2827  0.0544  0.0981
21237W        W41517   9.153   2.431  14.368  0.0371  0.2374 -0.1382
21238W        W41518   3.492  16.166  12.829 -0.2012  0.2600  0.0118
21239W        W41519  14.878  10.716   3.569 -0.1543 -0.2563 -0.1908
21240W        W41520  13.615   9.867  13.877  0.2448  0.2167 -0.0692
21241W        W41521   1.276   2.631  13.336 -0.2730 -0.1142 -0.1505
21242W        W41522   4.484   0.010  12.565 -0.0088 -0.2605 -0.3085
21243W        W41523  17.711  15.563   5.861  0.2222  0.2707  0.1436
21244W        W41524   5.941   0.987  14.854  0.1808  0.2591 -0.3036
21245W        W41525   2.328  13.620   0.888 -0.0432 -0.3566  0.3336
21246W        W41526   0.901   1.731   4.282  0.0602 -0.1984 -0.3694
21247W        W41527   3.537   8.950   4.166  0.4767 -0.1993 -0.2763
21248W        W41528  10.479  10.945   0.660 -0.3556 -0.0342 -0.1582
21249W        W41529   9.399  16.640  12.499  0.0976 -0.3927  0.1947
21250W        W41530   5.025   5.188  15.321 -0.0068 -0.2342 -0.3155
21251W        W41531   2.989  12.174   3.891  0.2799 -0.1263  0.0931
21252W        W41532   6.029  11.675   2.705 -0.1115  0.0340  0.0184
21253W        W41533   9.598  15.262   0.225 -0.0940 -0.3479 -0.0552
21254W        W41534   5.159   7.419   1.100 -0.2097  0.0161  0.0495
21255W        W41535   6.476   4.573  15.305  0.1649  0.1601  0.0829
21256W        W41536  13.939   9.643  15.437  0.0151 -0.4849 -0.1776
21257W        W41537   3.702  15.974   3.172  0.3451  0.0074  0.1057
21258W        W41538  15.942  13.595  15.947  0.1370  0.2377  0.2770
21259W        W41539  10.162  14.701   1.645 -0.0921  0.0242 -0.0606
21260W        W41540   4.620   7.340   0.259  0.0678 -0.1875  0.0665
21261W        W41541   5.408   2.921  14.700 -0.3200  0.0984 -0.0754
21262W        W41542  12.444  16.481  15.677  0.3195  0.0491 -0.2158
21263W        W41543   0.980  16.235  14.387 -0.0668  0.0752 -0.4384
21264W        W41544   0.796   8.988   3.267  0.2697 -0.0182 -0.3520
21265W        W41545   2.458   8.293  14.755 -0.0155 -0.0252  0.2634
21266W        W41546  13.362  11.940  12.862  0.0935  0.0066 -0.4266
21267W        W41547   9.258   9.698  13.508  0.3771  0.3861 -0.3405
21268W        W41548   4.390  15.971  14.647  0.1585  0.3049 -0.2505
21269W        W41549   0.916  15.836  16.542 -0.0089 -0.2079 -0.0945
21270W        W41550   1.429  10.692   0.462 -0.3265 -0.0230  0.1392
21271W        W41551  15.602   7.947  14.688 -0.2884  0.0438 -0.3653
21272W        W41552   1.714   3.017  12.461  0.2921 -0.1386 -0.0042
21273W        W41553   3.736  15.311  13.694  0.1577 -0.1370 -0.2616
21274W        W41554  14.729   1.946  11.824 -0.1583 -0.1642  0.4215
21275W        W41555   7.806  10.106  12.023  0.1196  0.1609  0.2776
21276W        W41556  10.040  10.988   1.898 -0.2947  0.1237 -0.0225
21277W        W41557  12.079   5.584   4.008 -0.2856 -0.2019 -0.0189
21278W        W41558   9.050   7.307   4.723  0.1830 -0.0475  0.0796
21279W        W41559  16.781  10.184   4.235 -0.1752 -0.2877  0.1497
21280W        W41560   2.788   3.093  15.071 -0.3422 -0.1428  0.1304
21281W        W41561   8.381   1.857  14.765  0.0939  0.2913 -0.1308
21282W        W41562   3.227   0.063  16.475 -0.0282 -0.0334  0.3583
21283W        W41563   8.727  14.494  12.244  0.2005 -0.2205 -0.2634
21284W        W41564   4.462   8.596  16.601 -0.0148  0.1189  0.0350
21285W        W41565   7.995  16.956   2.995  0.0289  0.1764  0.1487
21286W        W41566  16.926  12.424  14.090  0.0847  0.1501 -0.1749
21287W        W41567   0.184  15.061   5.114  0.0019 -0.0100  0.0813
21288W        W41568  12.905  15.506   4.535  0.0359 -0.1068  0.0921
21289W        W41569   3.136  10.739  16.658 -0.1921  0.0024  0.3059
21290W        W41570  16.501  10.074   2.723 -0.0571  0.0985  0.0392
21291W        W41571  15.196   1.755   1.461 -0.1699  0.1550  0.0350
21292W        W41572   9.680   2.086  11.409  0.1304  0.1586  0.0502
21293W        W41573  13.065  12.021   0.753  0.0528  0.0580  0.0748
21294W        W41574   5.247  12.585   3.506 -0.2275 -0.0964 -0.0026
21295W        W41575  13.904  16.160   0.226  0.3650 -0.1042 -0.3823
21296W        W41576   1.133   5.962   4.323 -0.1776 -0.0013 -0.2957
21297W        W41577   9.955   1.896   2.054  0.1526 -0.1053 -0.4180
21298W        W41578   4.922  16.312   0.821  0.1246 -0.4701  0.2205
21299W        W41579   0.432   0.432  14.931 -0.0184  0.0289 -0.0081
21300W        W41580  12.519  15.851   1.523  0.0321 -0.1818 -0.0451
21301W        W41581   8.616  17.045  15.925  0.1725  0.1956 -0.1264
21302W        W41582   6.664  17.254   0.359 -0.1143 -0.1850 -0.0925
21303W        W41583  16.127   6.840   4.466  0.3812 -0.2249  0.3388
21304W        W41584   0.021  13.353  12.466  0.1416  0.1868  0.2721
21305W        W41585   9.133  11.673  14.523 -0.1266 -0.0475  0.2851
21306W        W41586  13.236  15.006   0.377  0.0321  0.0918 -0.0086
21307W        W41587   7.434   7.117   2.041  0.1273  0.1127  0.1170
21308W        W41588  16.459   2.421   1.949 -0.1377 -0.2954 -0.0730
21309W        W41589   0.789  15.466   0.755 -0.2176 -0.1709 -0.0934
21310W        W41590   5.964   4.567  15.429  0.0958 -0.2215  0.2058
21311W        W41591   9.333   9.513   1.401  0.1049 -0.1535 -0.3760
21312W        W41592   6.570   8.873   1.872 -0.1577  0.0761 -0.1339
21313W        W41593   3.998   5.491  14.691  0.3417 -0.3415  0.0481
21314W        W41594   7.600   5.892   2.469  0.1846  0.2402  0.0080
21315W        W41595  11.285   9.029  16.314  0.1150 -0.0160  0.3302
21316W        W41596  11.150   9.354  13.216 -0.0529  0.3348  0.0485
21317W        W41597  12.016   1.079   4.210 -0.1648  0.0231 -0.0130
21318W        W41598  16.286   4.207  12.494  0.2227 -0.0696  0.1825
21319W        W41599  14.011   7.197  16.642 -0.2387 -0.2839  0.1227
21320W        W41600   4.674   9.165  16.453  0.2841 -0.0109  0.0624
21321W        W41601  11.708  16.138   3.714  0.0753  0.1666 -0.2873
21322W        W41602   7.183   5.804  11.669  0.0160  0.0832  0.1567
21323W        W41603   1.542  12.636   0.459 -0.0127 -0.2152 -0.0987
21324W        W41604   3.965  13.140   0.299  0.1398  0.0582 -0.0938
21325W        W41605  15.765  10.387  14.828  0.0305  0.0394  0.1285
21326W        W41606  17.788   2.940  15.541 -0.0675 -0.1746  0.0028
21327W        W41607   5.270   2.075   3.218 -0.0133 -0.0816 -0.0941
21328W        W41608   7.112  13.066  13.942  0.0755  0.6521 -0.0731
21329W        W41609   4.204   4.475  12.737  0.2296  0.2544  0.1098
21330W        W41610   1.527  14.697  14.475 -0.0396  0.2023 -0.0780
21331W        W41611   7.767   2.581   1.713 -0.1951 -0.1078 -0.1364
21332W        W41612   7.858   0.802   5.558 -0.1924 -0.0541  0.0350
21333W        W41613  16.240   6.721   3.048  0.2472  0.3919 -0.1488
21334W        W41614  11.275   8.508   0.494 -0.1590  0.0141 -0.0249
21335W        W41615   0.102   7.386  12.541 -0.1262 -0.4487 -0.2391
21336W        W41616   5.676  15.625  16.544 -0.1265  0.1488 -0.0784
21337W        W41617  12.520   2.795   2.997 -0.0926 -0.3066  0.0054
21338W        W41618  10.522  17.491   2.984 -0.0095 -0.4766 -0.4776
21339W        W41619  11.193  17.969  13.673 -0.2248 -0.2692 -0.2643
21340W        W41620   7.869   4.197  13.286  0.1045  0.3487 -0.1232
21341W        W41621  15.251   6.679   4.705  0.1111  0.0600  0.2320
21342W        W41622   4.679   8.638   2.089  0.2370  0.2035 -0.2244
21343W        W41623  13.132   3.445  11.801  0.0916  0.0182 -0.1402
21344W        W41624   9.445   3.326   0.144  0.2076 -0.1181 -0.1176
21345W        W41625   0.519  10.953  15.532 -0.3473  0.0426  0.2839
21346W        W41626   7.026   4.540   1.959 -0.1282 -0.2640  0.1022
21347W        W41627  10.008  17.462  13.284  0.2261 -0.5428 -0.3094
21348W        W41628   8.108  15.196   1.937  0.0977  0.5313 -0.1051
21349W        W41629   5.257   0.237   1.882 -0.0328  0.1315 -0.0360
21350W        W41630   8.060   0.406  16.602  0.1660 -0.0987  0.0782
21351W        W41631   0.809  10.010  15.345  0.1159 -0.1504 -0.0359
21352W        W41632  10.387   7.556   1.818  0.4075  0.1341  0.4306
21353W        W41633   4.852   4.391  15.755  0.1658  0.0539  0.1405
21354W        W41634   0.994   3.454   3.940 -0.0443 -0.0802 -0.1413
21355W        W41635   6.120   9.171  14.767  0.0686  0.1135 -0.1732
21356W        W41636   3.372   4.896  12.622 -0.2508 -0.1181  0.1829
21357W        W41637  16.720  17.186  15.639  0.2839  0.0736 -0.2067
21358W        W41638  17.924  15.736  14.961  0.2139  0.2032  0.1372
21359W        W41639   9.632  12.566   4.469  0.1146 -0.2070  0.0694
21360W        W41640   1.978   8.974   3.198  0.1915  0.1685 -0.0505
21361W        W41641   9.216  10.532  15.497  0.2023  0.1122 -0.2569
21362W        W41642   1.966   4.400  14.415 -0.0930  0.0132 -0.0632
21363W        W41643   4.812  14.787   3.488 -0.3762 -0.1866 -0.1742
21364W        W41644   7.484  11.003  13.258 -0.0837 -0.0618  0.1730
21365W        W41645   7.698   5.848  14.178  0.0449  0.4341 -0.1148
21366W        W41646  14.244  10.110   0.318  0.0840  0.4138 -0.0199
21367W        W41647   8.396   9.675   1.594  0.1690  0.2004  0.0176
21368W        W41648   5.077  12.002  15.338 -0.0715 -0.1620 -0.1119
21369W        W41649  15.081  10.606   1.547 -0.1942  0.1977  0.0396
21370W        W41650  13.895   8.214   4.773  0.2114 -0.0364 -0.0862
21371W        W41651  10.774  17.511   4.092  0.1317  0.0868  0.1197
21372W        W41652   8.201   0.742  14.593  0.1211  0.0478  0.1201
21373W        W41653   9.449   5.858   3.312 -0.2179  0.1128  0.2491
21374W        W41654   4.479   3.700   4.166  0.1026  0.0327 -0.2222
21375W        W41655   8.113   6.351  14.898 -0.2295 -0.0326 -0.1156
21376W        W41656  13.207   4.441  14.369 -0.1833 -0.1376 -0.0242
21377W        W41657  16.260   1.383   1.830 -0.0357  0.0255 -0.2324
21378W        W41658  16.507  10.984   0.235 -0.0115  0.3476 -0.0746
21379W        W41659   5.911   2.780  14.495 -0.0467 -0.0144 -0.0587
21380W        W41660  16.242  14.017   2.512  0.2130  0.0099  0.0982
21381W        W41661   3.684  13.733   2.398  0.1268 -0.0169  0.1638
21382W        W41662   8.134   7.985  15.726 -0.1589  0.0459 -0.2111
21383W        W41663   5.585   5.250   4.710  0.1257 -0.3218  0.2041
21384W        W41664   5.786   8.710  14.302 -0.0760 -0.0557  0.1186
21385W        W41665   7.393  16.708  14.429 -0.3318  0.4441  0.0964
21386W        W41666   2.211   2.958  15.686  0.2596 -0.0015 -0.2087
21387W        W41667  16.014  10.194   0.371 -0.0441  0.2130  0.0316
21388W        W41668  17.467  13.895  12.604  0.1251 -0.1167  0.0184
21389W        W41669  17.879   4.272  13.560 -0.0339  0.0238 -0.3294
21390W        W41670  12.478   2.061  12.180 -0.0243  0.0350 -0.1369
21391W        W41671  11.469   0.950  16.687 -0.1430 -0.1696 -0.4332
21392W        W41672   8.188   4.165   2.870 -0.1918  0.0368  0.3572
21393W        W41673  13.192  16.345  12.131 -0.1803 -0.0424  0.3012
21394W        W41674   7.009   4.664  15.406  0.0898  0.3306 -0.1132
21395W        W41675   2.447  13.392  15.435 -0.0262  0.2105  0.3709
21396W        W41676  10.634   8.408  12.718  0.1281 -0.0073 -0.0209
21397W        W41677   4.901   5.299  14.312 -0.1120 -0.3395  0.1106
21398W        W41678  12.026  11.785   0.086 -0.4494 -0.1315  0.0040
21399W        W41679  17.596   0.080   4.903 -0.1426  0.0997  0.0907
21400W        W41680   3.541   1.496  14.944 -0.1009 -0.1261  0.0377
21401W        W41681   0.107  10.982  14.521 -0.2909  0.2129 -0.1029
21402W        W41682  15.205   0.275   4.085 -0.2803  0.3935  0.0800
21403W        W41683   0.402   6.039  14.205  0.1367 -0.0979 -0.0706
21404W        W41684  12.541   0.793  11.845 -0.1213  0.1364 -0.0255
21405W        W41685   8.717  13.800   0.397 -0.1309  0.2877  0.0934
21406W        W41686  10.778   0.415   1.543 -0.2427 -0.1666  0.1271
21407W        W41687  10.748   0.296   0.617 -0.0283 -0.5398 -0.0097
21408W        W41688   1.622  10.075   1.855  0.1292 -0.0523  0.0656
21409W        W41689  12.187  16.040  15.896 -0.1236 -0.0018 -0.2170
21410W        W41690   7.083   7.866   0.653 -0.0112  0.2358  0.2691
21411W        W41691   0.590  15.064  13.429 -0.3470  0.0815  0.0258
21412W        W41692   8.890   3.712   1.012  0.3488  0.0945 -0.0141
21413W        W41693  14.920   4.499   0.825 -0.1969  0.1629 -0.1167
21414W        W41694  17.483  10.732   0.598 -0.0829  0.2548 -0.0765
21415W        W41695   0.473   4.587  11.801  0.2368 -0.0936  0.1009
21416W        W41696   4.657   9.412  15.298  0.2193  0.1303 -0.3899
21417W        W41697   9.650   3.664  15.306  0.4636 -0.2037  0.2623
21418W        W41698   5.797   0.465   1.755 -0.2259 -0.0737  0.1109
21419W        W41699   0.804   3.831   0.152 -0.0156  0.2537 -0.0874
21420W        W41700  12.865  10.091   4.118  0.0539  0.2536 -0.1162
21421W        W41701   4.154  17.828   0.754 -0.2383 -0.1894  0.1687
21422W        W41702  13.152  14.833  16.579  0.1918 -0.0372 -0.2972
21423W        W41703  17.393   6.305  13.291 -0.2307 -0.1425 -0.3326
21424W        W41704   9.492  15.404   1.195 -0.1959  0.0913 -0.3401
21425W        W41705  12.301   0.340  14.077 -0.0157  0.0996  0.1918
21426W        W41706  13.533  17.947   1.091  0.0164 -0.2342 -0.0640
21427W        W41707  13.582  11.934   0.727  0.5433 -0.2111  0.2235
21428W        W41708   3.453  13.270  13.627  0.1691 -0.2751 -0.0781
21429W        W41709  10.018   6.135   0.462 -0.0002  0.1791  0.4737
21430W        W41710   6.116   1.599  13.232 -0.0967  0.0784  0.2476
21431W        W41711   0.856   5.146  16.144  0.0696 -0.0950  0.0914
21432W        W41712   7.414   8.227  13.385 -0.0937 -0.0636 -0.2456
21433W        W41713   4.942  13.414   1.323  0.2785  0.0613  0.2482
21434W        W41714   7.570  10.461  13.879 -0.2220  0.0684  0.2180
21435W        W41715  15.542   8.424  14.650  0.1133 -0.0074  0.0490
21436W        W41716  17.347   2.110   3.047 -0.0074  0.3333 -0.0963
21437W        W41717  13.030   4.254  15.247 -0.0100  0.3911 -0.1377
21438W        W41718   6.187   3.029   1.985  0.0349  0.1147 -0.1987
21439W        W41719  10.110  13.533   3.952 -0.0229 -0.0849  0.2542
21440W        W41720   3.739   4.287  16.087  0.0746 -0.1796 -0.2497
21441W        W41721   8.628  13.582  12.334  0.5258 -0.0859 -0.0950
21442W        W41722  15.851   6.636  16.431 -0.0573 -0.1116 -0.3753
21443W        W41723   4.493   9.891  16.127 -0.1547 -0.0809  0.1386
21444W        W41724   2.224   4.453   2.865 -0.0086  0.1384 -0.1081
21445W        W41725   8.501  16.574   0.305  0.1478 -0.1302 -0.1584
21446W        W41726  16.951  10.605   0.573 -0.1607 -0.1693  0.1581
21447W        W41727  10.144  14.157   2.405 -0.0204  0.1426 -0.2020
21448W        W41728   1.431   9.498  14.597 -0.1414 -0.1730 -0.0503
21449W        W41729   5.902   5.737  15.777 -0.2304 -0.0829  0.2492
21450W        W41730   0.038  11.273   1.272  0.1946 -0.1442  0.2051
21451W        W41731   3.712  12.479  14.472 -0.0591  0.1337  0.1528
21452W        W41732   6.650  10.264   3.230 -0.0668  0.1014  0.3070
21453W        W41733   1.157  12.869  15.075  0.2302  0.3617  0.0416
21454W        W41734   7.410  14.671   2.941  0.0042  0.0290 -0.0352
21455W        W41735  14.161   4.363  12.826 -0.0441 -0.0220 -0.1123
21456W        W41736  14.576   0.969   0.740  0.1701  0.2310  0.1259
21457W        W41737   7.686  11.251   0.255  0.2581  0.1584  0.1014
21458W        W41738   9.424   7.459   2.009 -0.1740 -0.0858 -0.0293
21459W        W41739   6.125   4.228   0.715  0.3983  0.0112  0.1690
21460W        W41740   1.225   3.194  15.709 -0.0807  0.2031 -0.2602
21461W        W41741   3.514   2.543   1.321  0.3414 -0.1869 -0.0976
21462W        W41742   7.064  11.952   4.198  0.0800 -0.1078  0.3293
21463W        W41743   3.091   1.995  15.665  0.0196 -0.0664 -0.1489
21464W        W41744  13.565  17.224  13.014  0.1335 -0.1217  0.0720
21465W        W41745   6.693  10.718   0.428 -0.1162 -0.0191  0.2724
21466W        W41746   9.558   4.269  14.136  0.0719  0.1508 -0.1388
21467W        W41747   8.573  16.324   1.523  0.1724  0.2523  0.2333
21468W        W41748  17.761   4.894  15.153 -0.0968 -0.1507 -0.1667
21469W        W41749  14.898   4.977   2.084  0.0759  0.0735 -0.2730
21470W        W41750  14.870   4.814  14.722 -0.2418  0.0267  0.2049
21471W        W41751  17.103   1.711  14.038 -0.1187  0.1506  0.1490
21472W        W41752  11.304  12.838   2.834 -0.2684 -0.0614  0.0277
21473W        W41753  15.306   3.080   0.290 -0.1806 -0.5436  0.1303
21474W        W41754  12.367  12.558  14.972 -0.0678 -0.3214 -0.2280
21475W        W41755  10.035   4.017  13.877  0.1730 -0.0708  0.0045
21476W        W41756  17.229  14.461  13.495 -0.1104 -0.2215  0.1510
21477W        W41757  11.956   4.267   2.599 -0.1250  0.1207  0.0604
21478W        W41758  15.559   8.846  11.520 -0.2503 -0.0465 -0.0468
21479W        W41759  17.298   8.105  12.395  0.1254 -0.2451 -0.1221
21480W        W41760  10.419  13.943  15.843 -0.1272  0.4011 -0.2587
21481W        W41761  12.826  12.845  13.796 -0.0030  0.0470 -0.0873
21482W        W41762   7.943  15.952   3.686  0.1291  0.4560 -0.3058
21483W        W41763   0.601   3.070   0.723  0.1115  0.1038  0.1495
21484W        W41764  15.839  11.794  15.226  0.2764  0.0113 -0.0864
21485W        W41765  13.090   8.761   1.882  0.2566 -0.2918  0.0549
21486W        W41766   0.603  16.727   1.543  0.0619  0.0210 -0.1791
21487W        W41767   1.630  12.795   4.117  0.4307  0.0397  0.0749
21488W        W41768   4.486  11.319   3.734 -0.2226 -0.1163  0.1843
21489W        W41769   9.108   1.114  11.703  0.1587 -0.2306 -0.1021
21490W        W41770  10.520   2.815  13.381 -0.1853 -0.0420  0.2014
21491W        W41771   9.982   9.993   4.451 -0.2901  0.0250  0.0905
21492W        W41772   0.901   2.395   5.053  0.2604  0.0627  0.2403
21493W        W41773   3.672   0.251   4.034  0.2082 -0.0023  0.0785
21494W        W41774  14.375   6.895   2.922  0.1783 -0.1140  0.0714
21495W        W41775   0.065   9.209   1.360 -0.2429 -0.0915 -0.0420
21496W        W41776   2.093  12.564   1.483  0.1083 -0.0645 -0.0267
21497W        W41777   2.123   4.497  13.075 -0.0114  0.0821  0.2096
21498W        W41778   4.846  16.566  16.349 -0.1679 -0.4161 -0.0638
21499W        W41779  12.103  15.307   1.148 -0.2770 -0.2964 -0.3565
21500W        W41780  13.382  12.438  13.138 -0.0885 -0.1653 -0.3327
21501W        W41781   2.455  15.799   1.117  0.1279  0.0120  0.1677
21502W        W41782   4.993   3.517  15.225  0.2456  0.0623  0.1113
21503W        W41783   0.693   5.444   0.802 -0.0104  0.1060  0.0638
21504W        W41784   9.577  14.297  15.761 -0.0472 -0.2165  0.0836
21505W        W41785   0.446   4.467  12.558  0.0307  0.1433  0.3457
21506W        W41786  13.311   3.472   4.411 -0.0474 -0.1731  0.0185
21507W        W41787  17.380   8.514  13.253  0.0476 -0.3319  0.2773
21508W        W41788  14.525   6.264  12.942  0.1014 -0.0697 -0.0236
21509W        W41789   4.728  16.761  15.501  0.1800  0.0604 -0.2979
21510W        W41790  13.092  13.101   1.251  0.2272  0.2864 -0.0513
21511W        W41791   0.958   6.520   4.247 -0.2118  0.1459  0.1659
21512W        W41792   8.296   1.578  12.933 -0.0660 -0.0109  0.1882
21513W        W41793  13.620  11.457  12.851  0.2390  0.4931 -0.2266
21514W        W41794   9.765   4.855  13.538  0.1577 -0.1443 -0.0286
21515W        W41795   5.533  17.890  15.053  0.1899 -0.1111 -0.3429
21516W        W41796   2.997   3.660   1.426 -0.0479  0.1332 -0.1689
21517W        W41797   3.449   4.359  13.753 -0.1869  0.1373  0.0680
21518W        W41798   3.185   3.061  12.876  0.2434 -0.0982 -0.1840
21519W        W41799   2.504   7.486   4.717 -0.0562 -0.1564 -0.1630
21520W        W41800   3.894  10.052   4.248  0.3692  0.1442 -0.1461
21521W        W41801   1.906   9.148   2.644 -0.1437 -0.2662 -0.2252
21522W        W41802   8.759   0.310   1.521 -0.0914 -0.0411  0.2209
21523W        W41803   8.078  11.641  12.472  0.0234  0.2562 -0.1539
21524W        W41804  12.605  17.280   3.778 -0.0680 -0.0157 -0.4618
21525W        W41805   9.660   2.694  15.949  0.0922 -0.1351  0.0311
21526W        W41806   4.318   1.158  16.113 -0.0156 -0.0282 -0.1212
21527W        W41807   7.144  14.328   3.271 -0.0324 -0.3266 -0.1441
21528W        W41808   5.886  14.673   2.044 -0.0669 -0.0507 -0.1177
21529W        W41809   3.739   8.873   2.048 -0.0816 -0.1394 -0.1214
21530W        W41810  14.145  16.961  15.255 -0.0867 -0.0047 -0.3296
21531W        W41811  16.479   8.614   2.921  0.0701  0.2844  0.0934
21532W        W41812  10.706   5.209  12.736  0.0802  0.1161 -0.0898
21533W        W41813   2.379   8.868  13.676  0.3499 -0.0568  0.3233
21534W        W41814  16.963  15.901   3.149 -0.1554 -0.0007  0.0219
21535W        W41815   9.747  13.906   2.691 -0.1351 -0.0423 -0.0498
21536W        W41816   4.577  17.190   4.481  0.1255  0.0222 -0.5003
21537W        W41817   0.536  16.932   3.731 -0.2701 -0.0007  0.2657
21538W        W41818  10.472  12.442   4.545  0.0024  0.1611  0.0660
21539W        W41819  16.345   7.334   5.766 -0.0829 -0.0141 -0.1235
21540W        W41820   2.479  13.318   0.479 -0.0958  0.0127  0.0725
21541W        W41821  17.766  11.720  12.627 -0.0814 -0.0389 -0.1467
21542W        W41822   6.370  16.413   0.870 -0.0540 -0.2298  0.3644
21543W        W41823  10.279   8.333  14.387 -0.0712  0.1045  0.1876
21544W        W41824  14.141   4.535  11.819 -0.3134 -0.0405 -0.1575
21545W        W41825  14.666   5.859   1.925 -0.0718 -0.0536 -0.2903
21546W        W41826   7.045  17.965  12.495 -0.0264 -0.1567  0.0362
21547W        W41827   4.149  15.096  14.432  0.0379 -0.1796 -0.2382
21548W        W41828   6.686   4.287  13.006 -0.1854 -0.1071  0.0839
21549W        W41829   0.478   5.695  15.129 -0.1229  0.0994  0.1657
21550W        W41830  11.008   6.607   1.939 -0.0161  0.0552 -0.0737
21551W        W41831  17.829  16.754   0.968  0.2044  0.0645  0.1139
21552W        W41832  11.168   4.842  11.765 -0.0350  0.1046 -0.2379
21553W        W41833   8.191  14.720   3.307  0.0050 -0.1163  0.2293
21554W        W41834   2.202   9.241   0.331  0.2890 -0.0423 -0.0187
21555W        W41835   8.818   9.609   1.390  0.0284  0.1320 -0.0250
21556W        W41836  17.198  16.052  16.494 -0.4429  0.2887 -0.0663
21557W        W41837  11.238   1.570  11.561 -0.0477  0.0046  0.1719
21558W        W41838   3.347  16.214   0.364 -0.1756 -0.2524 -0.1785
21559W        W41839   1.251   7.923   2.031 -0.1027 -0.3693 -0.0873
21560W        W41840   9.840  17.866  13.507 -0.1306 -0.1861  0.4175
21561W        W41841   4.360   1.543   1.776  0.0959  0.1187 -0.0341
21562W        W41842  11.212  15.262   0.965 -0.0852  0.0781  0.0304
21563W        W41843  13.045   7.088   3.648  0.0044  0.3058  0.2928
21564W        W41844  14.320   3.390   3.531 -0.3554  0.1896 -0.0878
21565W        W41845  14.741  15.135   1.551 -0.3334 -0.4590  0.0997
21566W        W41846   9.781   8.604   0.074 -0.0607 -0.0885  0.2001
21567W        W41847   5.902  15.693   2.073  0.0530  0.2050  0.0413
21568W        W41848   0.588  14.000  15.033  0.2496  0.1196 -0.3203
21569W        W41849   9.630   0.948   1.114  0.0971  0.2667  0.1543
21570W        W41850  11.579  17.596  13.478  0.0859 -0.3287 -0.2615
21571W        W41851   6.111   6.761  12.209  0.1206 -0.2102 -0.1343
21572W        W41852   4.218  16.883  16.011 -0.1067 -0.2724  0.2072
21573W        W41853  15.027   1.195   2.325  0.1402 -0.1317  0.2180
21574W        W41854  11.450   5.946   1.634  0.1593  0.1441 -0.1184
21575W        W41855   3.910   3.561  15.191 -0.0997 -0.1748 -0.0719
21576W        W41856  13.115   7.594  12.066  0.0046 -0.2637  0.4887
21577W        W41857   8.532  17.253   4.700  0.1407 -0.0257 -0.2821
21578W        W41858   4.096   9.463  14.106 -0.3412 -0.0751 -0.2731
21579W        W41859   8.665  10.262   2.227  0.1931 -0.0662  0.0860
21580W        W41860   6.621   7.953   3.652  0.1043 -0.0142 -0.2003
21581W        W41861  15.841  12.102   0.800 -0.0930 -0.2493 -0.1352
21582W        W41862   6.635  12.470  16.632 -0.1973  0.2112 -0.0938
21583W        W41863   0.308  12.841   1.307 -0.0739  0.1360 -0.1276
21584W        W41864   8.868   6.032  14.061 -0.1021  0.1513 -0.0143
21585W        W41865  10.958   2.066   2.715 -0.3227 -0.1407  0.1458
21586W        W41866   8.470   2.193  13.057 -0.0575  0.0071  0.0403
21587W        W41867   1.350  10.849  12.063  0.1513 -0.0011  0.0349
21588W        W41868   4.948  15.702   2.970 -0.0189  0.0912 -0.0326
21589W        W41869  14.120   4.589   4.240 -0.1357 -0.2021  0.1695
21590W        W41870   2.244   0.548  13.249 -0.4376 -0.0495  0.3583
21591W        W41871  17.571   6.542   3.385  0.0003 -0.0523 -0.0679
21592W        W41872  11.356   2.644   1.017 -0.3312  0.0213  0.1391
21593W        W41873   0.027  11.175   1.766 -0.1089 -0.0132  0.0752
21594W        W41874   9.258   6.031   1.122  0.1171  0.0866  0.1536
21595W        W41875   4.474   4.412   3.669  0.1662 -0.2051 -0.1832
21596W        W41876  14.172  10.375   1.366  0.1512 -0.1987  0.0616
21597W        W41877   1.966  17.712   5.855 -0.1578  0.1574  0.3926
21598W        W41878  16.610   4.185   2.151 -0.1715  0.3549 -0.0791
21599W        W41879  11.234  15.742   4.130 -0.0949  0.2004  0.6391
21600W        W41880  11.799   2.183   5.385 -0.1606  0.0240 -0.2259
21601W        W41881   6.072  15.963  14.024  0.0293 -0.2351  0.0708
21602W        W41882   3.758  13.977   4.075  0.1046  0.2707  0.1209
21603W        W41883   9.532  16.251   5.064  0.1368 -0.2298  0.0360
21604W        W41884  14.818   2.193  13.632  0.1640  0.0564 -0.2745
21605W        W41885   5.115  17.865   2.258 -0.3326  0.1476 -0.1676
21606W        W41886  13.208   8.543  11.761  0.0954 -0.0381 -0.0828
21607W        W41887   2.064   0.607   0.783 -0.1251 -0.1201 -0.0108
21608W        W41888   8.534  12.325   2.004  0.2936 -0.1192  0.1862
21609W        W41889  17.082   9.444   4.297 -0.1593  0.0037  0.4763
21610W        W41890  17.007   8.661   3.124 -0.0542 -0.1534  0.0963
21611W        W41891   2.974  16.602  13.465 -0.1056 -0.1928 -0.1919
21612W        W41892  10.353   3.194  12.845 -0.2230  0.2121  0.0320
21613W        W41893   2.590   9.807  13.979 -0.3189  0.2278 -0.0687
21614W        W41894   3.814  17.898   1.283 -0.1483  0.4222 -0.0204
21615W        W41895   4.250  11.747  14.571 -0.2902 -0.0038 -0.0542
21616W        W41896   7.069   5.806  16.299  0.3369  0.0685 -0.0697
21617W        W41897   0.830   2.809  16.135 -0.2085 -0.0618  0.1385
21618W        W41898   9.089  12.807  15.940  0.0223 -0.0920 -0.1361
21619W        W41899  16.260   1.742   0.357 -0.1808 -0.2650  0.2622
21620W        W41900   7.713  13.678   3.498 -0.1259 -0.3032  0.2452
21621W        W41901   4.860  10.168   3.222  0.0536  0.1082  0.0731
21622W        W41902  15.230  13.552  13.651  0.0821  0.2807  0.3922
21623W        W41903  11.362   8.582  11.986 -0.1466 -0.0981 -0.1720
21624W        W41904   2.018  12.546  13.683  0.1931 -0.0112 -0.1862
21625W        W41905  11.952  16.503  12.965 -0.2849 -0.3614 -0.1775
21626W        W41906   6.757  17.545  16.464  0.1110  0.1730  0.0700
21627W        W41907   4.585   2.721   1.554  0.3009 -0.0825 -0.1271
21628W        W41908  16.589  15.705  16.562 -0.1456 -0.0317 -0.3312
21629W        W41909   3.777   6.275  15.647 -0.0301 -0.0613 -0.0619
21630W        W41910   9.624  17.291   1.171 -0.1091 -0.1530 -0.0932
21631W        W41911  15.684   4.753   1.582  0.1642 -0.1056  0.1861
21632W        W41912  10.618   2.961  15.688  0.0762 -0.0720 -0.2270
21633W        W41913   9.161  13.886   4.471 -0.2682 -0.0086 -0.0220
21634W        W41914   9.438   5.142   0.233  0.2337 -0.2603  0.0980
21635W        W41915   8.495  14.515  15.197 -0.0817 -0.2068 -0.1680
21636W        W41916  15.908  14.545  16.538  0.0698  0.1821 -0.0769
21637W        W41917   5.846  10.493   4.187  0.1146 -0.2874 -0.3096
21638W        W41918   5.373  14.527  16.251  0.5770  0.0824  0.3894
21639W        W41919  15.741  17.574  13.805 -0.0473  0.0959  0.2788
21640W        W41920   8.788   4.730   3.148  0.0599 -0.1484  0.1937
21641W        W41921   5.321   5.716  16.455  0.0766  0.2142  0.1235
21642W        W41922   2.840   7.587  13.473 -0.0700 -0.2206 -0.1077
21643W        W41923  17.705  16.403  12.690  0.1050  0.1383  0.2422
21644W        W41924   9.533   7.962   1.540 -0.0815 -0.1017 -0.0532
21645W        W41925   5.569  14.597   4.173 -0.2351 -0.1257  0.2244
21646W        W41926   1.251   7.135  13.196 -0.2404  0.1675  0.3733
21647W        W41927  12.495   9.955  14.684 -0.2682  0.1634  0.0963
21648W        W41928  12.098  13.282   2.482 -0.0453  0.0283 -0.1520
21649W        W41929   0.263   4.155   1.896 -0.1198  0.4771 -0.1579
21650W        W41930  14.568   6.227   2.729  0.1541 -0.4465  0.0236
21651W        W41931   8.722  15.348   3.261 -0.0299  0.0057  0.0649
21652W        W41932  11.018  12.078   3.281 -0.2457  0.1919  0.1097
21653W        W41933   0.471  16.561   0.850 -0.2858 -0.1706  0.0137
21654W        W41934   9.909   8.973   0.510  0.1372  0.0114  0.1681
21655W        W41935  13.997  16.547   1.824 -0.1472 -0.1179  0.2966
21656W        W41936  11.588  16.852  16.004  0.0762 -0.4179  0.2781
21657W        W41937   6.504  11.142   3.279 -0.2881  0.1272  0.0612
21658W        W41938   3.784  16.315  13.930 -0.0281 -0.0398  0.1178
21659W        W41939   2.419  12.881  13.619 -0.1453 -0.0018  0.1482
21660W        W41940   1.123   6.615  13.192  0.2664  0.0729  0.1301
21661W        W41941  11.692   4.424  11.859 -0.0542 -0.0460 -0.1582
21662W        W41942   5.627   9.198  12.913  0.1790  0.2365  0.0467
21663W        W41943   9.002   7.021   0.624 -0.5204  0.2606 -0.0721
21664W        W41944  15.981  14.123   3.745  0.0836 -0.0344  0.2624
21665W        W41945  12.810  13.361  13.219  0.3142  0.0577  0.0917
21666W        W41946   3.288   4.429  16.211  0.0097  0.3050 -0.1628
21667W        W41947  13.872  12.378   0.580 -0.1230 -0.0863  0.0154
21668W        W41948  12.374   1.639   0.527  0.1458 -0.0043 -0.0366
21669W        W41949  11.403  17.848  15.748  0.1465 -0.1070  0.0898
21670W        W41950   2.154  12.331   3.522 -0.0014 -0.2041  0.1226
21671W        W41951  16.164  15.137   4.997 -0.2113  0.1596 -0.0477
21672W        W41952   3.063  15.072  13.152 -0.0763  0.0841  0.0337
21673W        W41953  12.262  11.271  12.839 -0.0878  0.1990 -0.1370
21674W        W41954   8.577   0.889   2.638 -0.1564  0.2508 -0.2532
21675W        W41955  11.208  14.453   4.131  0.0382 -0.2535 -0.0703
21676W        W41956   9.706  14.576   1.529 -0.0225 -0.1997 -0.1137
21677W        W41957  11.456   8.060  12.094 -0.0407  0.0293 -0.1564
21678W        W41958   3.851  13.956  12.111 -0.4025 -0.4115 -0.0167
21679W        W41959   5.004  11.030  12.746 -0.1652 -0.0300  0.1379
21680W        W41960  12.647   9.095  16.383  0.1868  0.2312  0.0006
21681W        W41961   9.750  12.865  14.168  0.1617 -0.1248  0.0040
21682W        W41962   3.057   4.944   1.222 -0.0530 -0.0173 -0.1466
21683W        W41963  14.936  16.509   0.887  0.1003  0.4025  0.1330
21684W        W41964  12.077  16.574   0.398  0.1397 -0.0661  0.0572
21685W        W41965  11.589  16.513  15.641  0.0545 -0.0871  0.2868
21686W        W41966   1.097   1.691   2.216  0.3560 -0.1087  0.1713
21687W        W41967   1.342   9.703   0.745  0.3448  0.1895 -0.0243
21688W        W41968   7.218   9.936   4.504 -0.1631 -0.1907 -0.1326
21689W        W41969  12.902  15.899   1.209 -0.1571  0.0939 -0.0857
21690W        W41970   5.179   5.259   2.299 -0.0746  0.2751 -0.1103
21691W        W41971   6.321  11.814  12.102 -0.0556  0.0956  0.0586
21692W        W41972  17.698   0.229  13.071  0.1383  0.0281  0.0656
21693W        W41973   2.644   6.634  14.394  0.0587  0.0636  0.1913
21694W        W41974  15.447  17.772  16.386 -0.2364  0.2803 -0.1146
21695W        W41975  10.942  15.178  14.827  0.1340  0.1376  0.2723
21696W        W41976  13.644   3.562  13.280  0.1516 -0.1644 -0.2830
21697W        W41977   5.143   5.908  14.056 -0.2836 -0.2360  0.2338
21698W        W41978   5.860   2.746  13.819  0.0704 -0.0621  0.2839
21699W        W41979  14.761  12.606  12.251  0.2765  0.0908 -0.0439
21700W        W41980  11.224   1.688  12.069 -0.4952 -0.1785 -0.2340
21701W        W41981   7.338  10.982  12.179  0.0531 -0.1129  0.0776
21702W        W41982  15.198   7.516   1.627  0.0597  0.0265  0.1812
21703W        W41983   3.150   1.393   0.306  0.0954 -0.1368 -0.0389
21704W        W41984   8.090  14.919  16.335 -0.0636  0.2021 -0.0016
21705W        W41985  15.288  17.329   2.681 -0.0315 -0.0507 -0.1259
21706W        W41986   5.966  14.977  14.390 -0.0495  0.2893 -0.0277
21707W        W41987   1.907  16.828   0.291 -0.4229 -0.1779 -0.2776
21708W        W41988  16.942  10.749   0.060 -0.0724  0.1134  0.1860
21709W        W41989  14.705   2.803   1.714 -0.0617  0.0228 -0.2192
21710W        W41990  12.035   9.435   2.867  0.0239  0.1460 -0.1907
21711W        W41991  11.868  17.138   4.045 -0.1020  0.0721  0.1333
21712W        W41992   9.381  11.351   0.182  0.2431 -0.2459 -0.0899
21713W        W41993  17.190  12.163   4.943 -0.2316 -0.1425 -0.0095
21714W        W41994   9.566   6.326   1.903 -0.1030  0.0175  0.1440
21715W        W41995   3.920   6.167   4.521  0.1450  0.0294 -0.0211
21716W        W41996   2.164   9.474   2.914 -0.1979 -0.0132  0.3769
21717W        W41997  17.431  17.892   1.910  0.1872 -0.0353  0.0686
21718W        W41998   8.257  12.524  15.244  0.0262  0.1255  0.0109
21719W        W41999  11.284  10.228   0.310  0.1040  0.0626  0.0850
21720W        W42000   8.091   8.920  16.540 -0.2420 -0.0530 -0.0014
21721W        W42001   6.998  16.693   2.325 -0.0858  0.0634 -0.1277
21722W        W42002  17.366   9.530   3.391 -0.3277  0.0207  0.0137
21723W        W42003  10.863  13.832   3.669  0.0854  0.0051  0.0695
21724W        W42004   7.736  14.368   4.819  0.0864 -0.3015 -0.0973
21725W        W42005   7.084   6.212  14.622  0.0582  0.0718  0.0499
21726W        W42006   1.162   5.551  14.415  0.1822 -0.0218 -0.0858
21727W        W42007   0.753  12.403  12.581  0.0238  0.1807 -0.1089
21728W        W42008   3.307   5.084   0.636  0.1323 -0.2774 -0.2406
21729W        W42009   2.927   7.599   5.109 -0.1997 -0.1237  0.2499
21730W        W42010   9.595   6.051  15.913  0.0164  0.1293 -0.0811
21731W        W42011  13.577  10.604  14.934 -0.0978 -0.1175 -0.1349
21732W        W42012   1.077  10.147   4.720  0.1341  0.0372  0.1387
21733W        W42013   7.033  13.842   3.487 -0.3049  0.3313  0.0971
21734W        W42014   8.278   1.455  13.897 -0.1292 -0.0158 -0.0300
21735W        W42015   1.668   1.667   4.495 -0.1242  0.0239  0.1407
21736W        W42016   8.877   6.109  12.533 -0.0470 -0.1092  0.0985
21737W        W42017   0.527   6.661   2.059  0.0275  0.0274 -0.1029
21738W        W42018  11.905  13.695  15.996 -0.0908 -0.2769 -0.0484
21739W        W42019  17.878  17.113   0.582  0.0666  0.0257  0.0535
21740W        W42020  16.862  16.906  14.276 -0.2108 -0.1278  0.1834
21741W        W42021  13.783   0.290   0.599  0.0647 -0.0362  0.1141
21742W        W42022   8.898  13.356   2.330  0.0076  0.4492  0.1105
21743W        W42023   8.178   4.510   2.250 -0.1046 -0.0008  0.2504
21744W        W42024   4.724   4.799   3.042  0.2364 -0.3555 -0.1450
21745W        W42025   3.278   8.160  12.753 -0.1360  0.0486  0.1954
21746W        W42026  12.290   4.158  16.598  0.3255 -0.1318  0.2002
21747W        W42027   2.269  11.435  14.664 -0.0004  0.1268  0.0736
21748W        W42028   5.344   1.709   4.766 -0.1244  0.1990 -0.2306
21749W        W42029   3.232   7.120  16.487 -0.2983  0.0849  0.2747
21750W        W42030  15.816  15.963  12.391  0.0255  0.0531 -0.2439
21751W        W42031   7.512   0.480   1.583  0.0541  0.2064  0.1231
21752W        W42032   5.300  12.852   2.694 -0.0754 -0.0083  0.4212
21753W        W42033  13.684   9.052  16.473  0.1729 -0.2312 -0.1715
21754W        W42034  11.018  13.642   1.581 -0.2926 -0.1802  0.0403
21755W        W42035  10.248   4.818  13.397  0.1618  0.1179 -0.0094
21756W        W42036  17.766  10.906   3.393 -0.0983 -0.0310  0.0651
21757W        W42037  17.351   6.842  14.689  0.0890 -0.1231  0.1553
21758W        W42038  15.912   0.853   2.576 -0.2920 -0.1104 -0.1623
21759W        W42039  16.792  11.493  15.008 -0.2198  0.0697 -0.2989
21760W        W42040   0.605  11.679   5.163 -0.0320  0.1544  0.2956
21761W        W42041  13.650   4.937  16.169 -0.0487 -0.1779  0.0707
21762W        W42042   2.634  10.427   1.973 -0.1175  0.1707  0.1203
21763W        W42043  12.089   4.574  11.499  0.0457  0.2075  0.2914
21764W        W42044  13.695   4.252   4.067 -0.1738 -0.1313 -0.1282
21765W        W42045   0.716   2.759   2.841 -0.0906 -0.1715  0.0758
21766W        W42046  16.415  10.521   0.903  0.1706 -0.2841 -0.3881
21767W        W42047   0.441  11.762   3.283 -0.2744  0.2434  0.1007
21768W        W42048  13.028  12.135   0.247  0.0434 -0.2223 -0.1783
21769W        W42049   1.031   9.663  13.773 -0.1902 -0.1323  0.0724
21770W        W42050  17.531   2.520  15.702  0.1337  0.0632 -0.0854
21771W        W42051  14.828  10.380  15.728  0.2044 -0.0308 -0.3262
21772W        W42052   3.216   4.046   1.708  0.1813 -0.0468  0.0097
21773W        W42053  15.197   9.310   3.222 -0.1242  0.1107  0.0163
21774W        W42054  11.148  14.275  15.072 -0.4826  0.1526  0.1478
21775W        W42055   8.113   3.197  14.097  0.0323  0.1271  0.0346
21776W        W42056  11.332  16.234   2.298 -0.3423 -0.3756 -0.1141
21777W        W42057   2.772  11.402  13.387  0.0260  0.1527  0.3315
21778W        W42058   8.065   0.960  11.900  0.0505 -0.0014  0.2459
21779W        W42059  12.603   9.539   3.075  0.3446 -0.1459  0.4763
21780W        W42060   9.887   2.174   0.796 -0.2955 -0.0479 -0.1983
21781W        W42061  12.961  14.487  13.152  0.0758  0.2649 -0.1304
21782W        W42062   6.627   4.163   3.737 -0.0514  0.2080  0.2177
21783W        W42063  13.579  12.236  15.520 -0.1429  0.0633  0.0870
21784W        W42064   8.957   0.442  13.243 -0.4132  0.1906  0.0793
21785W        W42065  16.686  13.630  14.440  0.2491 -0.1183 -0.0639
21786W        W42066  10.482   0.582  14.534  0.2130 -0.2238  0.0527
21787W        W42067  17.485  10.733  12.960 -0.0979 -0.0332 -0.1423
21788W        W42068  15.934   5.028  15.651  0.0093 -0.1140  0.3158
21789W        W42069   2.474   5.189   1.047  0.0574 -0.0955  0.0002
21790W        W42070  12.630  12.249   1.166 -0.0663  0.2624 -0.3132
21791W        W42071   5.149  16.758   3.191  0.1300 -0.0937 -0.1477
21792W        W42072   8.532  13.013  13.439  0.2129  0.2021 -0.1002
21793W        W42073   3.589   8.398  12.441  0.0697  0.3129  0.2850
21794W        W42074   4.327  14.285  13.314  0.1038 -0.0551  0.3896
21795W        W42075   5.600  17.660   4.410 -0.2173  0.2612  0.0552
21796W        W42076   8.951   9.414   0.519 -0.0942  0.0531 -0.0270
21797W        W42077   7.144  16.994   4.717 -0.0860  0.2318 -0.2340
21798W        W42078   1.808  17.634   4.467 -0.4419  0.0903  0.0513
21799W        W42079   0.294   0.956  14.548 -0.0964 -0.5174  0.4756
21800W        W42080  15.366   4.027   1.845  0.0986 -0.0673 -0.1772
21801W        W42081   3.985   1.790  12.136 -0.1682  0.4082  0.4092
21802W        W42082  17.758   7.314   4.552  0.1473 -0.3114 -0.1892
21803W        W42083   2.769  10.549   4.617 -0.1359 -0.0527 -0.0465
21804W        W42084  12.190  17.870   0.393  0.0037  0.0270  0.0007
21805W        W42085   2.651   8.309   3.894  0.2944  0.2907 -0.2747
21806W        W42086  14.444   4.617  13.821 -0.1807  0.0034 -0.3701
21807W        W42087   8.443   5.458  11.796  0.1428 -0.0607  0.2071
21808W        W42088   5.353   4.183  15.753 -0.0577  0.3312 -0.0046
21809W        W42089  15.502   1.792  14.775 -0.2053  0.4417 -0.1441
21810W        W42090   6.702   7.098   4.397 -0.1320  0.0044  0.2968
21811W        W42091  11.417  12.720   4.765 -0.0659 -0.0033 -0.1109
21812W        W42092   3.098  13.422   1.296  0.4928  0.1139  0.2768
21813W        W42093   7.176   6.436   3.631  0.2283 -0.0393 -0.1723
21814W        W42094   4.659  14.106  11.830 -0.2280 -0.0194  0.1451
21815W        W42095  12.622   2.749   1.052 -0.2120  0.0664 -0.0744
21816W        W42096  13.674   7.768   0.415  0.1018  0.0546 -0.0190
21817W        W42097  16.024   9.237   0.083 -0.2046  0.0734  0.2431
21818W        W42098   8.616   2.917   0.453 -0.2026 -0.0576  0.2345
21819W        W42099   8.156   4.176  14.262  0.0060  0.1598  0.1693
21820W        W42100   0.376  15.761  13.942 -0.0162  0.5059 -0.2996
21821W        W42101   0.625  13.448   1.884 -0.2665 -0.0884  0.0911
21822W        W42102  13.264   3.618   2.798 -0.1666 -0.2201 -0.0019
21823W        W42103   1.235  15.207  16.642 -0.3419 -0.3183 -0.0195
21824W        W42104  17.435  17.728  13.146  0.3666  0.0455 -0.1140
21825W        W42105   3.821   9.005   5.246  0.0127  0.1497 -0.2559
21826W        W42106  13.671   3.604   2.375  0.0662 -0.1088 -0.3889
21827W        W42107   3.950   2.887   2.128  0.0015 -0.0974 -0.3189
21828W        W42108  11.772   2.628   3.574 -0.1104 -0.0580  0.0611
21829W        W42109  12.217  12.461   4.631  0.0334  0.0721 -0.4072
21830W        W42110   4.951   8.346  16.255 -0.1248  0.1023  0.0354
21831W        W42111   0.123   4.266   4.393  0.1000 -0.2078 -0.0256
21832W        W42112  12.166  12.295  15.900  0.0401  0.1212  0.2730
21833W        W42113  16.071   9.732  16.671 -0.1781 -0.0411 -0.0457
21834W        W42114  10.953  10.026   2.155 -0.1590  0.1890  0.1849
21835W        W42115  16.991  12.311  15.042  0.0990  0.1508 -0.2119
21836W        W42116   1.560   0.503   2.159  0.1064 -0.1672  0.1246
21837W        W42117   8.299   2.548   1.690  0.2241  0.2098 -0.0018
21838W        W42118  10.330   4.865  14.402  0.2413 -0.2119 -0.1248
21839W        W42119  15.572  14.740  12.054 -0.1572 -0.0678  0.0898
21840W        W42120   4.783   5.077   1.253  0.0398 -0.2010 -0.0825
21841W        W42121   9.533  14.359  12.119 -0.2226 -0.3326  0.1039
21842W        W42122   4.548  17.137  11.872 -0.0588  0.0257 -0.0884
21843W        W42123  12.165   1.702  12.014  0.1630  0.1694 -0.1723
21844W        W42124   2.925   0.418  14.464 -0.0583 -0.1138 -0.2296
21845W        W42125  14.848   5.850   2.401  0.0267 -0.0880 -0.1562
21846W        W42126   5.708   6.601   0.177  0.1916 -0.0606  0.1343
21847W        W42127  15.449  15.396   3.112 -0.0288  0.0046 -0.2438
21848W        W42128   0.549  16.241  16.554 -0.0425  0.3214 -0.0581
21849W        W42129  12.913  10.603   2.297  0.0484 -0.1714  0.1096
21850W        W42130   4.915   5.435  16.111  0.0336 -0.0851 -0.2289
21851W        W42131   7.603   9.885  15.682  0.0352  0.0958  0.0660
21852W        W42132   9.792  16.809  14.062  0.2585  0.3613 -0.0996
21853W        W42133   9.672   5.983   1.446 -0.0570  0.3836  0.2401
21854W        W42134  16.159   2.442   0.914 -0.0791  0.2016 -0.1702
21855W        W42135   7.611  13.565  12.683  0.0868  0.1072  0.1784
21856W        W42136  13.635   9.976  12.970 -0.0280 -0.1196  0.1045
21857W        W42137   0.388  12.611  16.570 -0.1498  0.2615  0.1798
21858W        W42138  13.080   0.641  13.791  0.0737  0.2694 -0.1620
21859W        W42139   8.717  17.778   3.261 -0.2587 -0.0147  0.3697
21860W        W42140   0.228   3.678   1.798  0.1135 -0.0049  0.0067
21861W        W42141  10.763   4.970  14.059  0.2941 -0.0989 -0.0161
21862W        W42142  12.834   0.873  13.417  0.1211 -0.2773 -0.1896
21863W        W42143   8.298  13.095  15.388 -0.0901 -0.0072 -0.1233
21864W        W42144   4.714  12.995   4.187 -0.0461  0.0064  0.0602
21865W        W42145   0.879  16.066  15.150  0.0131 -0.0463  0.2246
21866W        W42146   6.093   7.228   1.059  0.0807 -0.0541 -0.0738
21867W        W42147  15.557  13.977  15.768  0.1212  0.1545 -0.0889
21868W        W42148  14.427  17.685  15.107 -0.1064  0.0677  0.0521
21869W        W42149   5.956   8.633   2.980  0.2377  0.3225 -0.3932
21870W        W42150   3.710   4.879  13.413 -0.1210 -0.0191  0.1273
21871W        W42151   5.078   9.986  15.841  0.0661  0.1923  0.1516
21872W        W42152   4.114   6.686  14.152 -0.0305 -0.2006 -0.1546
21873W        W42153  12.962   6.001   2.618 -0.0520  0.1956  0.2898
21874W        W42154   3.834   1.782  15.665 -0.2764  0.0184  0.0732
21875W        W42155  16.330  13.763  16.184 -0.0249  0.0819  0.0404
21876W        W42156  15.027   0.928  16.542 -0.0054 -0.1405 -0.2867
21877W        W42157   0.119   3.798  13.334  0.1442 -0.3168  0.1759
21878W        W42158  10.920   7.311  16.160 -0.1040 -0.5665 -0.0224
21879W        W42159   2.813   3.699   4.568 -0.0339  0.2500  0.0566
21880W        W42160   2.342   1.938   2.604 -0.2188  0.0646 -0.1609
21881W        W42161  14.663   9.561  15.247  0.1483 -0.0892 -0.4511
21882W        W42162  14.336   8.482  15.462 -0.0774  0.1099  0.0411
21883W        W42163   1.919   4.702   4.270 -0.0746  0.2136 -0.1319
21884W        W42164  15.690  11.323   1.015 -0.3410  0.0498  0.1354
21885W        W42165  10.842   5.699   0.613  0.0435  0.1306  0.0586
21886W        W42166  12.518  11.792   0.871  0.0296  0.1095  0.0666
21887W        W42167   1.900   9.103   1.683 -0.0457  0.1346 -0.0292
21888W        W42168  15.704   7.779   1.131  0.1128  0.0544  0.1085
21889W        W42169  13.467   9.747  13.407  0.3322 -0.0240 -0.2020
21890W        W42170  12.973  10.653   3.643  0.1015 -0.0541  0.0525
21891W        W42171  14.044  17.819   0.400 -0.1843 -0.5146 -0.1278
21892W        W42172   0.703   2.588   4.535 -0.3232  0.3188  0.0712
21893W        W42173   1.898   4.788  13.725  0.2316 -0.3168 -0.0766
21894W        W42174  12.534   4.113  14.566  0.2305  0.0116  0.2402
21895W        W42175   4.919   1.316  12.355 -0.1196 -0.1976 -0.0602
21896W        W42176   8.280   7.824   4.552 -0.0835  0.0515 -0.1629
21897W        W42177  13.760   0.085  15.701 -0.0606  0.1515 -0.1081
21898W        W42178   7.565  12.300  14.612 -0.0017  0.1042  0.0474
21899W        W42179  17.043   7.412   1.471  0.0105  0.1318  0.0109
21900W        W42180   2.493   0.900   0.680  0.2929  0.0415 -0.1493
21901W        W42181   6.907  14.010  16.621  0.1307 -0.0447  0.3251
21902W        W42182   7.284   2.075  12.929  0.2486 -0.0299 -0.0251
21903W        W42183  10.467   5.845   2.392  0.3169 -0.1227 -0.1694
21904W        W42184   1.982   4.652  11.293  0.0254  0.0200 -0.2009
21905W        W42185   1.060  14.463   4.065  0.1648 -0.2577 -0.2995
21906W        W42186   1.184   8.150   0.553 -0.2051 -0.1792  0.0944
21907W        W42187   9.254   7.278  16.191 -0.0363  0.0503 -0.1227
21908W        W42188   5.873   5.234   2.178 -0.0474  0.1062 -0.1486
21909W        W42189  15.590  12.308   3.995  0.1432 -0.2755 -0.1160
21910W        W42190  11.517  14.564   3.699  0.0194  0.1622 -0.0793
21911W        W42191   3.516   0.248   0.255  0.1077 -0.0770 -0.0009
21912W        W42192  16.772   8.809   1.402  0.3376  0.2772  0.1772
21913W        W42193  17.464  11.680  16.335  0.0134  0.0648 -0.0012
21914W        W42194  10.038   4.983   0.902  0.0185 -0.4107 -0.0700
21915W        W42195   0.165   8.817  15.387  0.2539  0.0608 -0.0674
21916W        W42196  15.928   8.159  15.011  0.3216 -0.1589 -0.0032
21917W        W42197  17.981   9.551  13.137  0.2955  0.1148  0.1575
21918W        W42198  10.600  14.410  15.895 -0.2337 -0.0372  0.0316
21919W        W42199  14.653   2.403  14.936  0.2465  0.0021  0.0142
21920W        W42200  15.328   1.111   1.109  0.2016 -0.1563  0.2896
21921W        W42201  12.087   7.875   4.390  0.0257  0.1839  0.1574
21922W        W42202  17.482   7.222   3.054 -0.0057  0.0500 -0.1032
21923W        W42203  11.561  16.477   0.545 -0.0485 -0.3432 -0.0803
21924W        W42204  12.440   8.313   0.610  0.3066  0.0880 -0.0856
21925W        W42205   8.183   1.216  14.896 -0.1340 -0.2514 -0.2077
21926W        W42206   2.125   2.529  13.707  0.1727 -0.0481 -0.0618
21927W        W42207  12.250   3.513  11.924  0.1999 -0.0134  0.0253
21928W        W42208   3.269  12.145  16.577 -0.3536 -0.5046 -0.0982
21929W        W42209   0.365   5.019  14.042  0.0836 -0.2764  0.0164
21930W        W42210  17.820  12.172  12.941  0.0189  0.0538  0.2071
21931W        W42211  10.592   6.670  13.652 -0.1179  0.0939 -0.1517
21932W        W42212  17.681  13.475  14.710 -0.2907 -0.0302 -0.1279
21933W        W42213   1.410  15.032  15.781 -0.1440 -0.0849  0.2144
21934W        W42214   5.051  13.454  13.800  0.1958 -0.0554 -0.1938
21935W        W42215   0.646  10.844   4.112  0.2297 -0.1084  0.0655
21936W        W42216   9.055  15.062  12.744  0.0379 -0.1165  0.0172
21937W        W42217  14.904   8.395  16.628  0.1772 -0.1027  0.2244
21938W        W42218  14.964  12.222  13.634  0.1667 -0.2617 -0.0527
21939W        W42219   8.770   1.593   3.205  0.0393 -0.1265 -0.3244
21940W        W42220   6.956   7.440  11.881  0.1373  0.0250  0.1918
21941W        W42221  14.469   7.734  13.973  0.3646 -0.1203 -0.0887
21942W        W42222  15.923   1.305  15.345 -0.3346  0.0829  0.5889
21943W        W42223  13.982   9.803   3.005 -0.0529  0.1601  0.2244
21944W        W42224  14.162   6.620  13.033  0.2640 -0.0706 -0.1866
21945W        W42225   5.534  17.643   2.551 -0.0192 -0.3193 -0.3126
21946W        W42226  17.625  11.252   3.034 -0.1189 -0.2124  0.2435
21947W        W42227  11.048  13.861   1.141 -0.0287  0.2425  0.0530
21948W        W42228   9.115   3.959  16.467  0.1064  0.0089  0.0088
21949W        W42229  11.840   3.443  13.984 -0.1887 -0.3296  0.2077
21950W        W42230   6.803   9.577  15.737 -0.1342  0.0779 -0.1811
21951W        W42231   3.656  17.882  14.525 -0.0079 -0.0536 -0.1173
21952W        W42232   8.205   6.036   0.905 -0.2339 -0.0458 -0.2263
21953W        W42233   2.732   3.709  15.858 -0.2940 -0.2361 -0.2189
21954W        W42234  13.359   9.946   3.931  0.0544  0.0461  0.0361
21955W        W42235   0.321  14.915   3.819 -0.0953  0.2309  0.0355
21956W        W42236   8.028  13.486  13.700 -0.0309 -0.1928  0.1151
21957W        W42237   8.195   2.916   3.910 -0.2347 -0.0303 -0.1029
21958W        W42238   8.630   0.181  15.185 -0.0938  0.0398 -0.2597
21959W        W42239   3.660  14.851  14.438 -0.3499 -0.0025 -0.4353
21960W        W42240  17.801   2.503   1.823 -0.1162 -0.2374 -0.1580
21961W        W42241   7.911   0.104  12.199 -0.1532  0.0977  0.2086
21962W        W42242   5.872   9.537   3.353  0.3070 -0.0077 -0.1163
21963W        W42243  13.584  16.009  14.727  0.0927 -0.0655 -0.0684
21964W        W42244   9.079   8.309   3.543  0.1076  0.1473  0.0989
21965W        W42245   8.659   9.762  14.443 -0.0355 -0.0769 -0.0091
21966W        W42246   2.806   0.938   4.271 -0.2238  0.1095 -0.0316
21967W        W42247   5.572   9.179   4.972  0.1899  0.1254 -0.1768
21968W        W42248  13.230  12.362   1.074  0.0143 -0.0241 -0.2304
21969W        W42249  11.196   8.268  13.748 -0.4333 -0.1646 -0.0944
21970W        W42250  15.012  14.079   1.946 -0.1380  0.0397 -0.1963
21971W        W42251   5.028   0.032   4.701 -0.1276 -0.1420  0.0441
21972W        W42252   1.927  12.199   4.964  0.2967 -0.0260 -0.0478
21973W        W42253   5.913   7.292  14.290 -0.1520  0.0096  0.0786
21974W        W42254   3.742   0.004  16.273  0.4078 -0.0634 -0.0212
21975W        W42255  14.856   2.840  11.231 -0.1198  0.2223  0.0973
21976W        W42256   1.552   7.168  12.729  0.1890 -0.0415 -0.1431
21977W        W42257   4.220  12.431  12.350  0.0178  0.0263 -0.1196
21978W        W42258  14.555  16.223   0.844  0.1945 -0.4372  0.1579
21979W        W42259   9.011   9.588   4.033  0.0335  0.0356  0.0696
21980W        W42260   4.959  10.951   4.904 -0.1697  0.0741  0.0738
21981W        W42261   0.511   6.886  13.785 -0.1766 -0.1373 -0.0834
21982W        W42262  13.003   1.426  12.757  0.0178  0.1712  0.0664
21983W        W42263  14.988   3.039  16.555 -0.0545 -0.1559  0.2155
21984W        W42264  10.556  12.064   1.367  0.0231 -0.0501 -0.0878
21985W        W42265  12.059   0.454   0.446 -0.1393 -0.0671 -0.1822
21986W        W42266   2.869   3.062  13.317 -0.1374  0.2962 -0.2659
21987W        W42267  11.956   5.012  12.426 -0.0779 -0.1082 -0.2665
21988W        W42268   3.643   1.180  12.023 -0.0690 -0.0460 -0.1444
21989W        W42269   4.942   3.253   1.661  0.1641 -0.1062  0.0574
21990W        W42270  15.256   2.014  16.242 -0.0023  0.0522  0.1157
21991W        W42271   9.721   1.775  13.662 -0.0892  0.0884  0.2112
21992W        W42272   6.051   1.397   2.007 -0.3639  0.1167 -0.3879
21993W        W42273   5.831   8.416  15.173 -0.0859  0.0070  0.3598
21994W        W42274   7.639   7.692  12.384 -0.1437  0.0678  0.2755
21995W        W42275  11.225   9.814   1.726 -0.0734  0.0262  0.0674
21996W        W42276   3.249  14.472  11.949  0.2356 -0.0319  0.2361
21997W        W42277  13.349  17.905   2.929 -0.1513  0.0538 -0.0882
21998W        W42278   4.398  13.212   1.481 -0.0119 -0.0273 -0.0751
21999W        W42279  12.990   3.085  13.462 -0.1313 -0.2439  0.0733
22000W        W42280   4.418   5.262   3.571  0.0117 -0.1483 -0.0904
22001W        W42281  16.584  14.770  14.481  0.0554  0.0289 -0.1447
22002W        W42282  14.705   1.460  16.209 -0.0573  0.2820  0.0696
22003W        W42283   8.350  10.555  15.698 -0.1628 -0.1416 -0.1276
22004W        W42284  17.513   3.229   0.093 -0.0175  0.3199  0.0361
22005W        W42285  10.255   6.097  16.492 -0.0178  0.0927  0.0335
22006W        W42286  17.985   2.400  13.976  0.1748  0.1598  0.0845
22007W        W42287   2.268  11.156   4.252  0.2448 -0.0526  0.0311
22008W        W42288  14.937   5.320  14.422  0.0045  0.1362  0.0010
22009W        W42289  16.656   7.075  12.954  0.0765  0.0519 -0.0521
22010W        W42290  10.641  11.504   4.578  0.0331 -0.1554  0.0675
22011W        W42291   3.776   3.549  14.688  0.1639  0.1881 -0.1634
22012W        W42292   6.690  14.554  12.214  0.0490  0.0481  0.0794
22013W        W42293   1.194   4.033   3.554  0.1674 -0.1288  0.1270
22014W        W42294  11.091   2.689   3.890 -0.3410 -0.1636 -0.1824
22015W        W42295   2.291   5.435   2.684  0.1627 -0.2969  0.0442
22016W        W42296   5.379   2.146  12.095  0.0766 -0.1750  0.2457
22017W        W42297  12.747   4.337   3.168 -0.0828 -0.0692 -0.0290
22018W        W42298  13.888  11.317  13.961  0.2158  0.1782 -0.2801
22019W        W42299   5.807   4.130  15.535 -0.1235 -0.1342  0.1857
22020W        W42300   1.885  10.521  16.304 -0.1079 -0.0561 -0.2113
22021W        W42301  12.643   3.746  14.181  0.2712  0.0624 -0.1886
22022W        W42302   9.438   2.820   3.789 -0.0342  0.0504 -0.3534
22023W        W42303   9.127  17.444   2.923  0.1380  0.2364  0.3279
22024W        W42304   1.948  15.082  14.758  0.0413 -0.1383 -0.0603
22025W        W42305   8.951  16.665   3.179  0.3479 -0.3196  0.0068
22026W        W42306  16.604   2.960   0.262 -0.0443 -0.1249  0.0073
22027W        W42307   6.449   8.004  14.651  0.0327 -0.0772 -0.1036
22028W        W42308  11.711  11.478   1.319  0.0460  0.0275 -0.0564
22029W        W42309   5.171   9.729   1.719  0.0130  0.3350  0.0526
22030W        W42310   3.337   5.482  16.069  0.1655 -0.1886  0.4291
22031W        W42311   5.080   9.538  13.757  0.0850  0.2698  0.0432
22032W        W42312  11.462   3.075  16.231  0.1172  0.0960 -0.2535
22033W        W42313   3.964  11.353   3.711  0.1542  0.1901  0.3931
22034W        W42314   2.579  12.412   0.343 -0.0875  0.1695 -0.1617
22035W        W42315  10.282   2.698   2.407  0.2801  0.0925  0.1754
22036W        W42316  13.435  10.053  15.319  0.0087  0.2184 -0.0137
22037W        W42317  10.647  13.178   1.678  0.2565 -0.0396  0.0907
22038W        W42318  15.083   6.530  14.578 -0.0313  0.0468 -0.2372
22039W        W42319   7.154  13.537  14.606  0.2583 -0.0289  0.3437
22040W        W42320  14.184   8.267   4.175  0.1033 -0.0544 -0.0418
22041W        W42321  14.004   8.229   3.317 -0.0547  0.0761 -0.1819
22042W        W42322   7.922  13.128   0.620 -0.0022 -0.0646  0.0356
22043W        W42323   4.893  16.896   1.646 -0.1001 -0.0195  0.3474
22044W        W42324  13.548   0.595  15.411  0.1170 -0.1072  0.0190
22045W        W42325  10.353  10.108  15.468 -0.0760 -0.0906  0.0028
22046W        W42326  11.237   1.429  12.959 -0.0603  0.1866  0.2439
22047W        W42327   3.333   7.792   2.929  0.1041  0.2271 -0.1936
22048W        W42328   6.369  10.301  15.970  0.1377 -0.2483  0.0817
22049W        W42329  16.062   1.765  13.636  0.1241 -0.0272 -0.2021
22050W        W42330   5.706  17.970   1.649  0.0662  0.2295 -0.1929
22051W        W42331   2.584  12.928  14.524 -0.1482 -0.3239 -0.0018
22052W        W42332  17.646  15.598  14.576 -0.0065  0.0523 -0.1843
22053W        W42333  11.712   0.950   3.373  0.1120 -0.4708 -0.1272
22054W        W42334   5.654   6.316   0.660  0.2999 -0.0269 -0.0675
22055W        W42335   0.021   3.522   0.511 -0.1246 -0.0604  0.0202
22056W        W42336  17.477   7.680   4.304 -0.0578 -0.1300  0.3608
22057W        W42337  14.433   5.075   1.569 -0.0261 -0.0809 -0.2242
22058W        W42338   2.921  15.315   1.675 -0.0365  0.0949 -0.0263
22059W        W42339  11.547   7.278   1.551 -0.0848 -0.1675  0.1549
22060W        W42340   2.053  12.925  14.624 -0.0501 -0.0599  0.0887
22061W        W42341   1.626   6.011   4.401  0.2850 -0.0658  0.2502
22062W        W42342  15.130   4.134  10.862  0.0399 -0.3231  0.3146
22063W        W42343   3.977  17.425  16.081  0.0984 -0.1961 -0.0247
22064W        W42344  11.363   5.302   5.726 -0.4522 -0.0279  0.0957
22065W        W42345  15.190  13.062   2.012 -0.1825  0.1824  0.0665
22066W        W42346  15.216   6.618   3.289  0.2915 -0.3195 -0.0613
22067W        W42347   6.421   6.950  16.408  0.1957 -0.0776 -0.3815
22068W        W42348  11.095   1.333   1.476 -0.2681  0.1650  0.1835
22069W        W42349   7.267   2.218  14.580 -0.0348  0.0754 -0.1654
22070W        W42350   5.011   1.265  15.174  0.0167  0.2059  0.0542
22071W        W42351  10.181  15.628  15.328 -0.0919  0.3926 -0.1979
22072W        W42352   5.100  14.013  14.548 -0.0251 -0.1481 -0.0820
22073W        W42353  17.139   9.539  12.161 -0.3190 -0.2296  0.0354
22074W        W42354   2.533  15.461  13.938 -0.0723  0.0572  0.2417
22075W        W42355   9.866  14.812  14.302  0.2180  0.0801 -0.1405
22076W        W42356  10.940  11.935   0.638  0.1341 -0.0271  0.1027
22077W        W42357  12.979   5.714  16.327 -0.3701 -0.1225 -0.0908
22078W        W42358  17.398  10.313   1.321 -0.1203 -0.0423  0.3079
22079W        W42359   4.482  17.419   0.665 -0.1297 -0.1948 -0.1017
22080W        W42360   0.759  15.482  13.129 -0.0362 -0.0236 -0.2054
22081W        W42361   0.441  12.447  14.420  0.1111 -0.2169  0.2514
22082W        W42362   1.767   8.430   4.751  0.2268 -0.1990 -0.0987
22083W        W42363  11.779   4.049   2.085  0.0584 -0.3361  0.1416
22084W        W42364   5.017  16.414  11.903  0.2201  0.1505 -0.2005
22085W        W42365  14.356   0.215   1.309 -0.0086  0.1612 -0.0791
22086W        W42366   9.166  10.029  12.752  0.0106 -0.0890  0.1260
22087W        W42367  10.625   0.593  11.923  0.1687 -0.2010 -0.2068
22088W        W42368   4.692  10.201  12.639 -0.0987 -0.0281 -0.4257
22089W        W42369  10.174   5.009   2.219 -0.0593 -0.0200  0.1673
22090W        W42370   2.652  16.194  14.053  0.4363 -0.2679  0.0321
22091W        W42371   0.158  16.156   1.058  0.1126 -0.2361 -0.0350
22092W        W42372  15.718   4.399   1.922 -0.1313 -0.2594 -0.0605
22093W        W42373   3.664   8.998   1.462 -0.0938  0.1160  0.4475
22094W        W42374   4.543   5.158  15.088  0.0219 -0.0269 -0.0844
22095W        W42375   4.463   4.578   0.476  0.2572 -0.0399 -0.0004
22096W        W42376  15.005   3.192   1.688  0.2825  0.0102  0.0680
22097W        W42377  16.058  16.519   2.840 -0.0541  0.0229  0.0765
22098W        W42378   2.620   9.778  12.768  0.0975 -0.1394  0.0602
22099W        W42379   5.531   9.989  16.546 -0.1201  0.0466 -0.1102
22100W        W42380   1.669   5.377   0.330 -0.0758 -0.3384 -0.1312
22101W        W42381   1.832  15.100   2.081 -0.1006 -0.1046 -0.0229
22102W        W42382   1.009  14.937  12.204  0.2211 -0.5449  0.0593
22103W        W42383   9.296  11.781  15.507 -0.1849 -0.0166 -0.2701
22104W        W42384   9.306   6.000  15.129  0.1848 -0.0146 -0.2649
22105W        W42385   0.282  14.031   3.732 -0.0585 -0.1280  0.0739
22106W        W42386  15.188  12.090  12.170  0.2271 -0.0853  0.1322
22107W        W42387   2.883   4.998  15.813  0.1064  0.1373 -0.1942
22108W        W42388  16.153   6.265   4.212  0.1545  0.1198 -0.0949
22109W        W42389  17.645  13.117  15.973  0.0290  0.0628  0.1713
22110W        W42390   8.531   0.334  15.700 -0.1855 -0.0758 -0.0569
22111W        W42391  11.360  16.189   3.313  0.0890 -0.1370 -0.1118
22112W        W42392  12.552   3.375   4.259  0.0023  0.0967 -0.2521
22113W        W42393  16.571   7.489   2.644 -0.0722 -0.1518  0.0456
22114W        W42394   1.715   7.388   0.955  0.1369  0.3009  0.1304
22115W        W42395   4.775   5.361  12.923 -0.1358 -0.0604 -0.0886
22116W        W42396  12.378  17.826   4.539  0.2299  0.0852  0.1003
22117W        W42397  14.268   9.047  13.638  0.0399  0.0674 -0.1009
22118W        W42398  17.382  12.408   4.505 -0.0871 -0.1178 -0.3118
22119W        W42399  12.491   8.596  13.356  0.0380  0.0133 -0.2945
22120W        W42400   5.665   6.608  15.990 -0.1294  0.0626 -0.1743
22121W        W42401  14.372  17.762  12.024 -0.2069 -0.1718  0.1174
22122W        W42402   5.569  13.000   0.043 -0.2310 -0.1873 -0.0699
22123W        W42403   2.106   1.153  15.769  0.1809 -0.3561  0.1981
22124W        W42404   7.723   0.494   4.104 -0.0476  0.1744 -0.1192
22125W        W42405  10.340  16.209  13.538 -0.0673 -0.2185 -0.0262
22126W        W42406  16.116  14.889  16.250 -0.0786  0.0593  0.0986
22127W        W42407   6.460  17.961   1.052  0.0663  0.1085  0.2147
22128W        W42408   2.646   9.975   0.842 -0.1522 -0.0304  0.3042
22129W        W42409  15.543   3.377  14.508 -0.0114  0.2979 -0.5529
22130W        W42410   9.118   8.951   3.231  0.1090 -0.0919 -0.1117
22131W        W42411   5.207   1.934   3.717  0.3292  0.1513 -0.0566
22132W        W42412   7.616   2.451  12.788  0.0696  0.0819 -0.4402
22133W        W42413   8.758  15.061  15.310  0.1040  0.2681 -0.0416
22134W        W42414  10.149   5.969  15.111 -0.1955  0.2308  0.1745
22135W        W42415   3.039  10.657   1.809  0.0757 -0.0184  0.0688
22136W        W42416  12.788   0.355   2.051 -0.1282 -0.0308 -0.0839
22137W        W42417   8.625  14.079  12.581  0.0714  0.3662  0.2036
22138W        W42418  14.765   1.226  13.974  0.2184  0.1619 -0.2060
22139W        W42419   6.710   3.796   0.354  0.1175  0.0819  0.1829
22140W        W42420   3.522   7.856   3.850 -0.3608 -0.1812 -0.1150
22141W        W42421  11.410   5.098   2.663  0.0642 -0.0253  0.0280
22142W        W42422   8.825  11.327  14.264  0.0544 -0.0579 -0.2741
22143W        W42423   2.042   4.306  16.302  0.0140  0.1924 -0.2433
22144W        W42424   3.720  10.241  11.985  0.2553 -0.2386  0.0817
22145W        W42425  15.664   7.433   2.738  0.0988  0.1743 -0.0096
22146W        W42426   6.676  15.519  12.541  0.3415  0.2531  0.0927
22147W        W42427   6.198  17.252   3.788 -0.0904 -0.0002  0.0163
22148W        W42428  12.249   2.316   4.320  0.1731  0.2550 -0.0483
22149W        W42429   6.436  16.165  16.241 -0.1005  0.1558  0.0014
22150W        W42430   2.791   5.670  14.267 -0.0032  0.0104  0.3821
22151W        W42431  13.771  11.493   2.733 -0.2289 -0.0518 -0.0663
22152W        W42432   3.570   0.676  11.915  0.0576 -0.1273 -0.0333
22153W        W42433   0.857   2.436  12.218 -0.1529  0.1924 -0.6468
22154W        W42434   4.125   5.922  14.221  0.1143  0.0668 -0.2706
22155W        W42435  16.977   2.060  13.642  0.0950 -0.3951 -0.0279
22156W        W42436  12.501   0.241   3.299  0.1225 -0.0132 -0.0295
22157W        W42437   9.404  11.656   2.854  0.0488 -0.2424  0.0410
22158W        W42438   8.815   9.158  12.263 -0.1821 -0.1229  0.1839
22159W        W42439   3.428   7.876   1.893 -0.0818 -0.3439 -0.0962
22160W        W42440   8.286   4.474   1.579  0.0608 -0.0871  0.2388
22161W        W42441  11.838  12.000  14.523  0.0290 -0.1240 -0.0197
22162W        W42442   5.459   9.886   3.623 -0.2355  0.2436 -0.0258
22163W        W42443   2.704  13.400  14.444  0.1289  0.1354  0.0862
22164W        W42444  15.995  10.450  12.514  0.0904 -0.2025  0.2665
22165W        W42445   0.828  12.510  14.780 -0.2104  0.0008  0.1665
22166W        W42446   4.472   0.226  15.719 -0.0040  0.1664 -0.1279
22167W        W42447   6.675   4.978  15.040  0.1525 -0.3150 -0.0384
22168W        W42448  12.321   1.113   0.429 -0.1670  0.1529  0.2363
22169W        W42449  13.545   2.725   0.981 -0.0848 -0.3189 -0.0054
22170W        W42450   5.645  16.964  16.616 -0.1324 -0.2223 -0.1659
22171W        W42451  10.775   4.515   3.740  0.2558 -0.1793  0.2877
22172W        W42452   5.785  14.696  16.456  0.2990  0.1962 -0.3203
22173W        W42453   0.161   4.608  13.913 -0.0156 -0.3311  0.3619
22174W        W42454   5.838  17.275  12.509  0.4405 -0.1436  0.0564
22175W        W42455   7.039   5.327   2.464  0.1066  0.2938 -0.1429
22176W        W42456   1.796  16.661   0.795  0.1364 -0.2558 -0.0870
22177W        W42457   0.891   8.112  15.678 -0.1288 -0.0754 -0.0187
22178W        W42458  10.105  14.375  15.964 -0.1576  0.1207 -0.0141
22179W        W42459   7.582  12.262  13.622  0.0560 -0.0361  0.0660
22180W        W42460   1.201   3.423   4.420  0.0336 -0.0270 -0.1640
22181W        W42461  14.566  14.737  16.612  0.1885  0.2750 -0.1858
22182W        W42462  16.205   7.647   4.027  0.2788  0.2824 -0.0983
22183W        W42463  13.306  10.677  14.428 -0.0378  0.0716 -0.1667
22184W        W42464   3.544  13.842  12.636 -0.0124  0.2131  0.0942
22185W        W42465  16.420   3.933  13.227 -0.0874 -0.1158 -0.0579
22186W        W42466   6.538  14.047   0.660 -0.2171  0.0575  0.0890
22187W        W42467   6.631  12.584   2.307  0.1400  0.2767  0.0735
22188W        W42468  10.008   5.850  16.132 -0.0834 -0.0918  0.2058
22189W        W42469  14.622   5.168  14.938 -0.1440  0.1825 -0.0214
22190W        W42470  16.395  14.720   2.448 -0.2754  0.0647  0.2479
22191W        W42471   6.527  12.127   0.283  0.0532  0.2395 -0.0122
22192W        W42472  17.058  13.362   2.374  0.1460  0.0934  0.1939
22193W        W42473  16.880  13.378  13.039 -0.1026  0.3012  0.2212
22194W        W42474   5.044  16.330  13.250 -0.0056  0.1369 -0.2802
22195W        W42475  14.204   9.957   3.378 -0.3984 -0.5656  0.0040
22196W        W42476  15.527   2.347  12.020  0.0051  0.3264 -0.1275
22197W        W42477   6.855   0.789   0.864  0.0565 -0.0911  0.2559
22198W        W42478   9.347  17.606  13.453 -0.1538 -0.1882 -0.2706
22199W        W42479  17.140   7.716  14.264  0.1465  0.0688 -0.1848
22200W        W42480  11.779   8.485   2.743  0.5244 -0.0796  0.0242
22201W        W42481  16.322  12.964  13.925  0.0070  0.1662 -0.0619
22202W        W42482   0.072  15.706   0.086 -0.1213  0.3881 -0.4405
22203W        W42483   7.922   0.877   3.111 -0.3141  0.2883 -0.6132
22204W        W42484  15.818   0.722  14.530  0.0924  0.0709  0.0227
22205W        W42485   5.798   6.869  14.140  0.1506 -0.0888 -0.2395
22206W        W42486  14.386  12.065   4.038  0.0431  0.0549  0.2456
22207W        W42487   0.124   4.444   0.362  0.0522 -0.2394  0.0483
22208W        W42488   7.851   1.655  14.646  0.1706  0.2975  0.1679
22209W        W42489  10.873  13.590  12.591 -0.1340  0.0705  0.0160
22210W        W42490  10.978   3.040  15.998  0.3657 -0.2599  0.1113
22211W        W42491   1.959   2.917   2.817  0.5284 -0.1496  0.0508
22212W        W42492  14.559   3.413   2.253  0.0354 -0.0912  0.3148
22213W        W42493  16.312  12.531  16.127  0.3130  0.0292 -0.2193
22214W        W42494   1.501   5.129  14.294  0.1738 -0.0216 -0.2088
22215W        W42495   1.833   6.441  14.343 -0.1244  0.1683  0.0370
22216W        W42496  10.550  12.785   2.190  0.3601 -0.1649  0.2331
22217W        W42497  17.313   6.025   1.306  0.1357  0.0388 -0.0159
22218W        W42498   4.666  12.091   1.311  0.1049 -0.4333 -0.0800
22219W        W42499   3.826   8.484  16.176 -0.1554 -0.1069 -0.0699
22220W        W42500   1.775   0.022   0.196  0.5529  0.0242  0.1453
22221W        W42501   6.083   1.785  15.673  0.1592 -0.0245  0.1817
22222W        W42502   3.488  10.078  15.484  0.1176  0.2329 -0.0665
22223W        W42503  13.859  14.242   0.223 -0.1170  0.0311  0.1005
22224W        W42504  16.856   0.613   1.721  0.1298  0.2446 -0.1843
22225W        W42505   4.641  11.868  11.526  0.0511 -0.0818 -0.0233
22226W        W42506  13.643   4.183  12.115 -0.0172  0.1915 -0.1505
22227W        W42507  12.645   4.301   4.074  0.1816 -0.1355  0.1161
22228W        W42508  17.941   6.216  12.706 -0.0818  0.1978  0.0534
22229W        W42509   5.483  17.499  13.843  0.1909  0.1422 -0.1987
22230W        W42510   2.907   1.207   2.469 -0.3625  0.0057 -0.1079
22231W        W42511   8.178  12.016   2.818  0.0012 -0.0605  0.0626
22232W        W42512  11.687   7.776   1.482  0.1183 -0.1787 -0.0408
22233W        W42513   4.266  12.400   2.628  0.1130 -0.1694 -0.0470
22234W        W42514   1.537  12.046  12.417  0.3771 -0.0470 -0.0896
22235W        W42515   5.830   2.968   4.436 -0.0236 -0.2011  0.0220
22236W        W42516  10.604  13.789   0.845 -0.1866 -0.2380  0.2328
22237W        W42517  17.457  14.976  14.896  0.0785  0.2694 -0.2182
22238W        W42518   8.064   9.606   2.497 -0.0966  0.1674  0.1429
22239W        W42519   7.922   4.165   1.973  0.2399  0.0114  0.2862
22240W        W42520  13.419  11.878   2.639 -0.0536 -0.0311 -0.0771
22241W        W42521   0.211  10.794   3.733  0.0978 -0.0254  0.1915
22242W        W42522   9.830  13.853   3.668  0.0921 -0.0481 -0.0775
22243W        W42523   2.809   0.613  12.615  0.1334 -0.0597  0.0907
22244W        W42524  16.402  10.145  12.612  0.1519  0.0569 -0.2938
22245W        W42525   3.445   3.148   2.435 -0.0605  0.5175  0.2771
22246W        W42526   3.407  10.305  15.043  0.0522 -0.2543  0.2032
22247W        W42527  15.227   0.886  13.634  0.0071  0.1572 -0.1115
22248W        W42528   5.393  12.711   1.314  0.1906 -0.0232 -0.0667
22249W        W42529   5.256  17.759   1.390  0.1091  0.0169 -0.0356
22250W        W42530   2.465  14.603  12.538 -0.2877  0.1301 -0.0162
22251W        W42531  10.273  16.127   2.510  0.2400  0.0119 -0.0642
22252W        W42532   2.262  10.123  14.200 -0.0005  0.0379 -0.0243
22253W        W42533  17.696   5.782  16.112 -0.2345 -0.0862  0.0267
22254W        W42534   0.357   5.657   5.712  0.1347 -0.2222  0.1370
22255W        W42535   6.095   0.117   3.410  0.1958 -0.2010  0.0986
22256W        W42536  13.486  13.943   4.667 -0.1378 -0.1241 -0.1335
22257W        W42537   7.742  15.179   0.051 -0.1345  0.0935  0.2810
22258W        W42538   8.533  17.092  13.573 -0.1311  0.0691  0.2144
22259W        W42539   6.309  11.101   0.380 -0.1825  0.1186  0.3989
22260W        W42540   1.404  17.823   0.948  0.1776  0.2132 -0.1215
22261W        W42541  14.526  11.347   5.145 -0.2444  0.0545  0.0324
22262W        W42542  16.454   4.352  14.586 -0.0767  0.0372  0.0982
22263W        W42543  12.620  17.586   1.206  0.1728 -0.0036 -0.0139
22264W        W42544  10.880  17.875   4.459  0.3480 -0.0204 -0.2196
22265W        W42545   9.845   4.676   4.060  0.0388  0.1722  0.1527
22266W        W42546   0.157   6.878   1.792  0.2392  0.0137  0.0920
22267W        W42547   6.274  10.169   1.730 -0.0323  0.0619 -0.1697
22268W        W42548   9.051   3.402  11.882 -0.1428  0.0613  0.1174
22269W        W42549  10.655   4.353   2.739 -0.0553 -0.1265  0.2403
22270W        W42550   2.035  17.593   2.428  0.0986 -0.3014 -0.2639
22271W        W42551  17.149  14.968  13.591  0.2871 -0.2706  0.1389
22272W        W42552  12.563   7.292  15.230 -0.1909 -0.1412 -0.0159
22273W        W42553   7.918  14.042   0.007  0.0616  0.0712  0.0297
22274W        W42554   9.231   2.273  12.635 -0.0633 -0.2466  0.0449
22275W        W42555   2.842   0.881   0.259  0.1096 -0.1372  0.0756
22276W        W42556  13.168   0.050   4.198 -0.0642 -0.0543 -0.4266
22277W        W42557   5.094  13.690   2.389  0.0197  0.0392  0.2290
22278W        W42558   5.145  16.259  12.788 -0.0851 -0.1036  0.1717
22279W        W42559   9.138  15.228  14.619  0.0751 -0.0205 -0.2421
22280W        W42560   2.994   5.246  13.343  0.2944 -0.0991 -0.1436
22281W        W42561   9.870   3.687   1.070  0.0221  0.2466 -0.1266
22282W        W42562   1.289  15.529   4.428  0.0316  0.0420  0.4104
22283W        W42563  11.360  14.666   4.630  0.2424  0.2963  0.2139
22284W        W42564  12.758   6.546  16.091  0.0881  0.1659  0.0570
22285W        W42565  16.868   6.224  13.031  0.0354 -0.0652 -0.1804
22286W        W42566   9.512  14.141   1.674  0.4317  0.1968 -0.2730
22287W        W42567  16.154   6.222   2.908  0.1570 -0.0821 -0.1384
22288W        W42568  10.166  15.317  13.056 -0.2713  0.0316  0.0238
22289W        W42569  11.958   0.020  15.775  0.3853  0.0805 -0.0890
22290W        W42570   8.996  17.089  15.159 -0.2095  0.1946 -0.0388
22291W        W42571  14.472  12.122  13.615 -0.0704  0.2712 -0.0705
22292W        W42572  17.077  13.121   1.748 -0.1605  0.0412  0.2695
22293W        W42573  12.385  16.566  12.737 -0.1474 -0.0287 -0.2611
22294W        W42574   1.354   7.385  14.562 -0.4334 -0.0412  0.0144
22295W        W42575   4.913   4.408   3.346 -0.5782 -0.1303 -0.1729
22296W        W42576  15.383   6.759   3.925 -0.0123 -0.2509  0.1144
22297W        W42577   5.597  17.610   2.043 -0.4691  0.0390 -0.1350
22298W        W42578  10.308   4.498  12.130 -0.3979  0.1327 -0.2901
22299W        W42579  15.467  13.951   1.823  0.0131 -0.2135  0.0810
22300W        W42580  15.211  13.842  15.213  0.0658  0.1430  0.1210
22301W        W42581  17.004  16.246  13.005  0.3074 -0.2762 -0.2845
22302W        W42582   9.973  17.806   2.904  0.0238  0.1219  0.0858
22303W        W42583  16.977   3.263  13.207  0.1624 -0.3647  0.0052
22304W        W42584   3.363   1.006  14.602  0.2200  0.0953 -0.1475
22305W        W42585   1.195   0.701  15.418  0.0736  0.0491  0.0275
22306W        W42586   3.240   3.561   4.814  0.1566 -0.2310  0.0112
22307W        W42587   2.147  13.598   5.394 -0.1291 -0.0469  0.0748
22308W        W42588   0.302   4.452   2.726 -0.2662  0.3831 -0.2460
22309W        W42589   5.714   2.585   0.731  0.1321  0.0940 -0.0045
22310W        W42590   8.645   5.883   3.048  0.1019  0.2227  0.0425
22311W        W42591   1.180  14.486   2.874 -0.0099 -0.1167  0.0404
22312W        W42592   5.435   6.284   5.042 -0.0403 -0.3766  0.0891
22313W        W42593   2.727   7.645   3.665  0.1429 -0.0328 -0.2840
22314W        W42594   8.418   3.267   2.039 -0.0201 -0.0964  0.2953
22315W        W42595   5.291  10.279   0.331  0.1759 -0.0249 -0.1251
22316W        W42596   6.997   7.284  15.350 -0.0806 -0.1551  0.0403
22317W        W42597  17.572  14.523  16.032  0.1021 -0.1668  0.0704
22318W        W42598  15.413  11.051   4.438  0.2462 -0.0392 -0.2605
22319W        W42599  16.678   9.963  14.779  0.0979 -0.1499 -0.0874
22320W        W42600  11.525   0.068   2.111  0.0237  0.0160  0.1923
22321W        W42601  12.549  17.593  12.195 -0.0563  0.0587  0.5272
22322W        W42602  12.098   7.137   1.881  0.0667  0.0470  0.2412
22323W        W42603   8.898  12.965   2.690 -0.0740 -0.0404  0.1400
22324W        W42604  15.260   1.913  15.769 -0.2308  0.0072 -0.0278
22325W        W42605   3.478  12.092  12.562 -0.0027 -0.1199 -0.2311
22326W        W42606  15.156   2.980  14.350  0.2853  0.0654  0.0391
22327W        W42607   8.995  16.431  15.202  0.0481 -0.0038 -0.1569
22328W        W42608   7.144   5.835  12.149 -0.3387  0.0476 -0.1254
22329W        W42609   6.018  16.174   2.088  0.2266 -0.1185  0.2466
22330W        W42610   6.801  12.216  15.146 -0.0203  0.0865 -0.1653
22331W        W42611  16.643  15.232   2.587  0.0752  0.0943 -0.2139
22332W        W42612   7.063   2.509   0.620  0.1536 -0.0226  0.1390
22333W        W42613   4.851   1.648   4.601  0.2715  0.0798 -0.1865
22334W        W42614   0.119   8.368  12.380  0.2121 -0.2119 -0.4206
22335W        W42615   8.598  15.319  14.616  0.2100  0.1218  0.1420
22336W        W42616  11.470  15.442   2.746 -0.0272 -0.1203 -0.1558
22337W        W42617   3.986  14.928  13.966  0.0932 -0.1793 -0.0683
22338W        W42618  11.146   9.033  12.329 -0.0532 -0.3896  0.0349
22339W        W42619  15.448  14.422   2.080  0.0702  0.1830  0.0353
22340W        W42620  10.203  17.560  14.807  0.2743  0.0053 -0.0346
22341W        W42621   4.058   6.051   3.600  0.1698 -0.0633 -0.2574
22342W        W42622   7.733  10.865   1.983  0.0365 -0.0135  0.3466
22343W        W42623   6.841   0.839   3.261 -0.1333  0.0478 -0.1946
22344W        W42624   1.115   9.120  14.906  0.0552 -0.2386 -0.0268
22345W        W42625  17.029   8.665  16.408 -0.4886  0.1862  0.0237
22346W        W42626  17.267  16.708  15.895  0.1810 -0.0436  0.0974
22347W        W42627   1.240  14.606  15.358 -0.0499  0.0775 -0.0404
22348W        W42628  15.401   4.306  13.090 -0.3561 -0.1470 -0.0775
22349W        W42629   8.881  10.210   2.701 -0.0375  0.2753  0.0372
22350W        W42630   0.878   1.649  15.523 -0.2396  0.3141 -0.2739
22351W        W42631  11.483  14.108  15.959 -0.0359  0.1115  0.0497
22352W        W42632  15.004  13.082  13.651 -0.0193 -0.3550 -0.1172
22353W        W42633  10.572   2.560   1.418  0.2006  0.1965 -0.0497
22354W        W42634  16.025  12.645   3.198 -0.0238  0.1334  0.0984
22355W        W42635  17.464   4.467   1.873  0.2261 -0.1078 -0.0700
22356W        W42636   1.532   8.892   2.986 -0.4786  0.1845  0.1780
22357W        W42637  16.543  10.700  13.429 -0.0369  0.4241 -0.1431
22358W        W42638  12.201  15.104   4.908  0.2233  0.3621 -0.2590
22359W        W42639   5.315   7.949   1.041 -0.2478 -0.1509  0.1020
22360W        W42640   8.164   2.229  12.600 -0.0038  0.3535 -0.0044
22361W        W42641   9.787   3.570  14.833  0.1854  0.0960 -0.2356
22362W        W42642  14.236  14.041  13.379  0.2825 -0.2325 -0.2329
22363W        W42643   9.337  13.862  15.796 -0.1176  0.1478 -0.0301
22364W        W42644  17.013  15.498  13.780 -0.1915 -0.0041 -0.6077
22365W        W42645   0.115   6.016  14.928 -0.0866  0.0181  0.2169
22366W        W42646   4.809  12.444   4.429  0.1438 -0.1466  0.0757
22367W        W42647   0.813  16.443   1.179  0.1884  0.2064  0.0842
22368W        W42648   2.691  13.784  13.679  0.0493  0.2299  0.1479
22369W        W42649  11.835  11.152   2.997  0.1155  0.0721  0.0734
22370W        W42650  16.220   3.288  12.905 -0.1838  0.1453  0.0197
22371W        W42651  10.520  17.094   4.164  0.1550  0.1678  0.1488
22372W        W42652   8.580  13.143   2.006 -0.0218  0.0987 -0.3059
22373W        W42653  13.580   7.047   0.791  0.0455 -0.1556 -0.3830
22374W        W42654   4.470   3.318   1.400  0.0361  0.2256 -0.1809
22375W        W42655  12.252  10.897   3.077  0.1807  0.1278 -0.0892
22376W        W42656   5.256   8.475  14.763  0.0026 -0.0836 -0.2697
22377W        W42657   0.012   6.740   2.697 -0.1469 -0.2129  0.2143
22378W        W42658  14.988  13.900   4.677  0.1949 -0.1926 -0.1079
22379W        W42659  16.682  16.377  15.286 -0.1657 -0.2218  0.3145
22380W        W42660   3.452   1.908   4.796 -0.0902 -0.0598 -0.0825
22381W        W42661  13.231   2.282  14.798  0.1460  0.1812  0.1234
22382W        W42662  10.580   8.723  15.503 -0.1482  0.3091 -0.0846
22383W        W42663  16.721  17.672   2.600  0.1298  0.0340 -0.0702
22384W        W42664  16.796   4.168   4.473  0.1344  0.0241  0.0691
22385W        W42665  16.424   5.720  15.739 -0.2163 -0.1549  0.0661
22386W        W42666   0.727   7.222   0.429  0.0248 -0.4320  0.0192
22387W        W42667   7.664   0.171  15.717 -0.1870  0.2251 -0.1913
22388W        W42668   9.530  11.804  14.179  0.1739 -0.0004  0.1039
22389W        W42669  13.952   4.297  13.445 -0.1039 -0.2140  0.0871
22390W        W42670  10.285  13.102   4.763  0.4413 -0.1433  0.2511
22391W        W42671  11.103   8.211  16.292  0.0051  0.2408  0.1358
22392W        W42672  13.882   9.437  14.550  0.0714  0.3606 -0.1100
22393W        W42673   2.006   1.614   2.776  0.1170  0.1739 -0.0992
22394W        W42674   1.384  13.901   4.762  0.1119 -0.1553 -0.1029
22395W        W42675   3.484   9.249   3.236  0.0936 -0.0991  0.1499
22396W        W42676   8.208   9.803   2.986 -0.0038 -0.0148  0.2409
22397W        W42677   3.080  12.783   5.359 -0.0501  0.2165  0.3499
22398W        W42678   4.273   6.575  15.604 -0.2762 -0.0756 -0.1535
22399W        W42679   2.444  14.519  11.981 -0.1198 -0.3945  0.0181
22400W        W42680   1.857   2.726   3.274  0.0699  0.0843 -0.1956
22401W        W42681  13.025   5.017   2.366  0.1871 -0.3509  0.1235
22402W        W42682   1.749   8.555  15.890 -0.3184  0.1897  0.0526
22403W        W42683  17.212   4.491   4.270  0.0572  0.1470  0.0875
22404W        W42684   9.404  16.352   4.551 -0.0605 -0.3748  0.0859
22405W        W42685   7.276   4.148  16.437 -0.0103 -0.1081 -0.0176
22406W        W42686  10.766   6.657   0.504 -0.1741 -0.2366  0.3669
22407W        W42687   8.722   2.646   1.441 -0.0072  0.2283 -0.0917
22408W        W42688  16.525   1.382   1.323  0.1037 -0.0425 -0.3992
22409W        W42689  17.783   8.869  12.554 -0.0969  0.0038 -0.1647
22410W        W42690  10.987   0.727  14.706 -0.0151  0.1318  0.1955
22411W        W42691   6.132   6.558  13.871 -0.1334 -0.1181 -0.0615
22412W        W42692   1.409  17.289  14.486 -0.2743  0.1843 -0.1226
22413W        W42693  10.348   2.268  13.183 -0.0004 -0.2709  0.2579
22414W        W42694  16.108  12.006   4.151 -0.0955  0.1532 -0.0587
22415W        W42695   9.430   4.961   4.021  0.0304 -0.1251  0.0950
22416W        W42696  12.591   6.847   2.728  0.2298  0.1119  0.0135
22417W        W42697   2.680  16.426  15.288 -0.0266 -0.1873  0.1266
22418W        W42698  16.026  10.738  15.103  0.0408 -0.2917 -0.2257
22419W        W42699   3.161   5.082   2.962 -0.2169  0.1709  0.2962
22420W        W42700   6.670  15.417   4.965  0.2296 -0.0230  0.1029
22421W        W42701  16.115  11.331  15.568  0.0226  0.1606  0.0521
22422W        W42702  11.874   8.295  14.995  0.0902 -0.1623  0.0821
22423W        W42703   7.878   6.470   4.282  0.0513 -0.1494  0.1783
22424W        W42704  14.736   9.990  12.600  0.0262  0.2532  0.1237
22425W        W42705   1.261   5.361  13.409 -0.1550  0.3955  0.0510
22426W        W42706   4.049   2.050  13.436 -0.1718  0.1293 -0.4199
22427W        W42707   4.428   2.852  12.631 -0.2780 -0.0768  0.0912
22428W        W42708   7.833   7.388   2.162  0.0478  0.0499 -0.1415
22429W        W42709  13.302   3.436   1.099 -0.0494  0.0632 -0.0195
22430W        W42710   1.548  13.222  15.202 -0.2300  0.0447 -0.1776
22431W        W42711   7.039   5.999   3.968  0.0020 -0.3193  0.0055
22432W        W42712  14.719   7.321  15.089  0.1479  0.1433  0.0864
22433W        W42713  11.896  12.718  15.981  0.0880  0.0626  0.1772
22434W        W42714   5.181   0.524   0.206  0.1300  0.0055 -0.2631
22435W        W42715  17.522  13.543  14.202 -0.1486 -0.0768 -0.2647
22436W        W42716  12.627  12.146   3.290  0.4295  0.1293  0.2570
22437W        W42717   1.539   4.902  15.328  0.0260  0.1108  0.2760
22438W        W42718  11.696   3.132   3.611  0.3568  0.0003 -0.1476
22439W        W42719  15.600  17.268  14.308 -0.2151  0.2487  0.2757
22440W        W42720  16.471  15.171  16.464  0.1254  0.0631 -0.0794
22441W        W42721   0.441   7.697   1.851 -0.0631  0.0767 -0.2613
22442W        W42722   7.514   1.584   4.493  0.0725 -0.1724  0.0428
22443W        W42723   8.691  13.558  13.649  0.2150 -0.1541 -0.2573
22444W        W42724   5.649  10.498  13.552 -0.1125  0.2849  0.0764
22445W        W42725   8.348  13.425   0.624 -0.0533  0.2774 -0.3644
22446W        W42726  11.440  13.066  16.085 -0.1986  0.2581 -0.2884
22447W        W42727   6.298  11.302   3.946 -0.0562 -0.0033 -0.3261
22448W        W42728  14.886   9.037   2.680 -0.1212 -0.1115  0.2502
22449W        W42729   4.316  15.086   1.256  0.0122 -0.4321  0.0662
22450W        W42730   8.307   0.598  12.577  0.0440  0.0763 -0.0201
22451W        W42731   8.582   4.714  14.649 -0.3220 -0.0909  0.0266
22452W        W42732   5.039  14.108   1.913  0.1167  0.2157 -0.1310
22453W        W42733   6.567  12.570   3.965  0.1591 -0.1176  0.2963
22454W        W42734  15.495   6.682  15.119 -0.1566  0.2824  0.3022
22455W        W42735   4.153   5.891  12.941  0.0224 -0.3069 -0.0403
22456W        W42736   4.709  15.850   1.575 -0.1940 -0.1986  0.0205
22457W        W42737  12.289   6.728  11.578 -0.1381 -0.1758  0.0814
22458W        W42738  14.885   7.510  14.173 -0.1284 -0.0607  0.0280
22459W        W42739   2.427  13.704  14.091 -0.1972  0.2123 -0.3159
22460W        W42740   2.354  11.350  14.168  0.1403 -0.1524 -0.0159
22461W        W42741   9.536  10.472   4.200  0.2235  0.0063 -0.0957
22462W        W42742  11.787   2.431   0.768  0.1861  0.1725  0.2179
22463W        W42743   6.327   7.912   2.326 -0.1272 -0.0037  0.1106
22464W        W42744   6.211   7.622  12.446  0.0594  0.0398 -0.0748
22465W        W42745  13.442  15.782   3.460 -0.1268  0.1004  0.1146
22466W        W42746   4.002   5.634  12.380  0.0396 -0.1797 -0.2315
22467W        W42747   9.390   4.346  12.168  0.1481  0.0465  0.0718
22468W        W42748   6.234   4.313  14.527 -0.0735 -0.1212  0.2072
22469W        W42749  13.559   0.064   0.214 -0.0706 -0.2115  0.1370
22470W        W42750  13.756  13.861  15.920  0.1810  0.2219 -0.0258
22471W        W42751  16.713   6.382  16.299 -0.0409 -0.0482  0.0467
22472W        W42752  17.509   6.789  14.071  0.2866  0.0911  0.0714
22473W        W42753   7.807  13.299  15.526  0.1771  0.3012 -0.0841
22474W        W42754   0.056   8.647   4.262 -0.0024 -0.2089  0.0941
22475W        W42755   5.433  14.380   3.709 -0.1483 -0.4121 -0.1179
22476W        W42756  10.348  10.195   0.171 -0.3596 -0.0179 -0.1899
22477W        W42757   6.798  16.811  12.814 -0.0315  0.1682  0.0559
22478W        W42758   2.888  10.438  12.980  0.1080 -0.3184  0.0585
22479W        W42759  12.947   5.367  16.680 -0.1205  0.0755  0.2907
22480W        W42760  14.682   3.860  13.601 -0.0101  0.1840 -0.2339
22481W        W42761  10.803   4.252  15.376 -0.2719 -0.0007  0.1936
22482W        W42762   0.521   8.066   2.213  0.5229  0.1664 -0.0928
22483W        W42763  10.833   7.868   1.708  0.0757 -0.1100  0.0325
22484W        W42764   1.095  12.406   1.646 -0.0578  0.0283  0.0098
22485W        W42765  15.620   8.102  16.153 -0.2102 -0.0145  0.1041
22486W        W42766   4.258  11.253  14.685  0.0717 -0.0855  0.1100
22487W        W42767   0.340   8.517   2.280  0.2161  0.0294 -0.0270
22488W        W42768  12.880  17.317   4.210 -0.2354  0.1484  0.0513
22489W        W42769   6.915   3.836  15.828 -0.0216 -0.0944  0.0102
22490W        W42770  12.520  12.315  12.638 -0.3888 -0.1248 -0.0232
22491W        W42771   6.901   5.360   4.622  0.1996  0.0214 -0.1019
22492W        W42772   6.964   4.369  12.564 -0.1188 -0.2768 -0.3602
22493W        W42773  11.176  15.705   3.580 -0.0965 -0.2087 -0.3734
22494W        W42774   3.916   9.252   2.445 -0.1194  0.0174  0.3059
22495W        W42775   5.672   6.175   3.732  0.2349  0.0143  0.1370
22496W        W42776  10.746   8.903   1.623 -0.1169 -0.1268 -0.0257
22497W        W42777  14.187  16.388   3.407 -0.2724  0.5512  0.2644
22498W        W42778   7.923  11.030  15.032  0.2524 -0.1103  0.3569
22499W        W42779   2.007   4.753  15.123  0.0631 -0.0570  0.1915
22500W        W42780  17.502  16.363   4.231 -0.1074  0.0644  0.0787
22501W        W42781  14.902   9.355  14.715 -0.0024  0.1294  0.1543
22502W        W42782   3.568  16.227   3.717  0.0327  0.0727 -0.1347
22503W        W42783  16.377   3.237  12.240  0.4334  0.0271 -0.0981
22504W        W42784   0.317   2.888   1.091  0.1727 -0.1878 -0.0357
22505W        W42785   9.270  10.971  16.035  0.4203  0.3396 -0.0334
22506W        W42786  14.472   8.720   0.962  0.0853 -0.0691 -0.0086
22507W        W42787  15.521   4.728  13.752 -0.0840  0.0506  0.3580
22508W        W42788  14.404   5.048  14.527 -0.1394 -0.0803  0.0273
22509W        W42789   2.240   0.042  13.023  0.2073 -0.3334 -0.2992
22510W        W42790   7.334  13.488   1.955 -0.2315 -0.1031 -0.0861
22511W        W42791  13.061  14.982   5.194 -0.0261  0.0032 -0.0365
22512W        W42792  14.542   1.051  12.015 -0.3223  0.1505  0.1208
22513W        W42793   2.910   6.327  15.481 -0.1370  0.1666 -0.2113
22514W        W42794   1.612   0.226  14.366 -0.2359 -0.0616  0.1376
22515W        W42795  15.623  13.564  15.537  0.1407  0.1791  0.0474
22516W        W42796   6.139  15.677  12.633  0.0567  0.3167 -0.2965
22517W        W42797  16.407  17.793   4.153 -0.1744  0.0505 -0.0081
22518W        W42798   7.795   4.587  14.262  0.2828  0.2971 -0.1060
22519W        W42799  12.251  11.057  14.432 -0.0991  0.1073 -0.0784
22520W        W42800  15.415  12.099   1.615  0.0937  0.1244  0.0659
22521W        W42801  10.356   5.661  15.845  0.4178  0.3694  0.0027
22522W        W42802   9.644   2.920   4.563 -0.2474  0.1104  0.0388
22523W        W42803  16.474  10.174   4.614  0.1013 -0.0783 -0.1482
22524W        W42804  10.472   0.418   1.966  0.1582 -0.1660 -0.1186
22525W        W42805  10.638   6.379   1.219 -0.1171  0.0928  0.0685
22526W        W42806  11.090   0.425   3.704  0.4700 -0.1786 -0.2877
22527W        W42807   5.706   8.111  14.800 -0.0219 -0.0933 -0.1194
22528W        W42808  11.219  10.884  15.998  0.5597  0.1468  0.1742
22529W        W42809   1.177   5.959  14.782  0.0920  0.1708  0.0235
22530W        W42810   6.233   1.707  13.913 -0.1306 -0.2113  0.1718
22531W        W42811  17.609   5.899   4.559 -0.2976  0.1993  0.1413
22532W        W42812  16.338  16.352   4.491  0.1909  0.1593 -0.0058
22533W        W42813   2.938   9.890   6.104  0.1158  0.1122  0.0054
22534W        W42814  12.861  14.485  14.564  0.1563 -0.0972  0.0009
22535W        W42815   2.550   8.286  13.026  0.2603  0.1377  0.1144
22536W        W42816  17.003   1.779  16.689 -0.1760 -0.0170 -0.0954
22537W        W42817  14.216  12.830  13.940 -0.0930 -0.2051  0.0434
22538W        W42818  14.990   9.233   3.661  0.1248 -0.4521 -0.0899
22539W        W42819   1.928   8.872   3.714 -0.2211 -0.2428 -0.0146
22540W        W42820  10.791   8.535   0.429 -0.2482 -0.1899  0.0824
22541W        W42821  14.279   9.916  15.183 -0.1612  0.1895 -0.2347
22542W        W42822   4.087   1.229   1.407 -0.0293  0.5110 -0.1415
22543W        W42823   1.115   4.400  14.023 -0.1736 -0.1512 -0.1917
22544W        W42824  12.003   7.221  16.107  0.0815 -0.1804  0.0633
22545W        W42825   4.753   3.732   3.059 -0.4338 -0.1749  0.1597
22546W        W42826  17.585   8.182  14.714 -0.2858  0.0693  0.2067
22547W        W42827  10.786  17.093   3.211 -0.0626 -0.4826  0.1060
22548W        W42828   5.641  11.366  12.228 -0.3258 -0.1081  0.2201
22549W        W42829   1.404  12.481  13.970  0.2255 -0.2532  0.0715
22550W        W42830  17.457   1.409   1.673  0.0052 -0.2357  0.2273
22551W        W42831   6.845   9.242   4.039  0.0692 -0.0788 -0.5521
22552W        W42832   7.532   0.846   2.324 -0.1757 -0.0653  0.1491
22553W        W42833   1.378   8.601   2.472  0.1735  0.2058 -0.2722
22554W        W42834  17.863  13.492  15.208 -0.1592  0.3573  0.0675
22555W        W42835  14.815   7.742  12.884 -0.0941  0.0163 -0.1670
22556W        W42836   4.374   6.718   3.850 -0.0686 -0.0193 -0.3723
22557W        W42837  15.844  16.904  16.226  0.2990 -0.3130 -0.0476
22558W        W42838  16.752   0.967   1.391 -0.0204 -0.1251 -0.1983
22559W        W42839   6.227   3.751   3.444 -0.0897 -0.1624  0.4943
22560W        W42840   6.058   9.170   5.083 -0.4295 -0.3385 -0.0227
22561W        W42841   9.514  12.295   0.166  0.0877  0.2250  0.0457
22562W        W42842  12.944  14.477   3.023 -0.1488  0.2080  0.0283
22563W        W42843  14.201   6.993   3.377  0.0843 -0.0414  0.1067
22564W        W42844  14.439   4.762  12.402  0.0269 -0.0094  0.1591
22565W        W42845  13.772  11.074  12.549  0.0524  0.3096 -0.1119
22566W        W42846  16.877  16.353   1.783  0.4327 -0.0167 -0.0044
22567W        W42847   1.318   1.671  14.997 -0.0740 -0.1320  0.3303
22568W        W42848  11.164   1.726  15.834 -0.2614 -0.3473  0.1684
22569W        W42849  13.141  15.271   0.786  0.2303  0.1595 -0.0990
22570W        W42850   3.226  13.204   4.403  0.1681 -0.1503  0.0355
22571W        W42851  17.351   0.364   3.836 -0.2364 -0.2302  0.2450
22572W        W42852  11.894  15.448   4.718 -0.2032 -0.1334  0.1134
22573W        W42853   5.758   1.138  15.740 -0.0583  0.1647  0.0871
22574W        W42854   2.388   7.490  13.671  0.2209 -0.2447  0.0946
22575W        W42855  14.283   6.777   5.077  0.0678 -0.2606  0.3492
22576W        W42856  14.311  11.494   4.029  0.0142  0.3382  0.0096
22577W        W42857   8.950  17.848   4.657 -0.1575 -0.0084  0.1643
22578W        W42858   4.675  11.577   4.144 -0.1420  0.0951 -0.1102
22579W        W42859  17.201   5.599  12.149 -0.1279 -0.3066  0.0283
22580W        W42860   9.167   3.519   1.739  0.0497 -0.1151  0.1160
22581W        W42861   5.637  12.288  15.730 -0.1121 -0.0785 -0.1549
22582W        W42862   7.886   8.266  14.611 -0.1040  0.4601  0.1433
22583W        W42863   5.333  17.260  13.117  0.2367  0.0819 -0.1493
22584W        W42864   7.749  15.267   2.306  0.1521  0.0302 -0.2856
22585W        W42865  11.948  16.759  16.439 -0.2163  0.1703  0.0852
22586W        W42866   7.607   9.386  14.037 -0.1811  0.1987  0.1032
22587W        W42867   0.747   5.204   2.440  0.0083 -0.3327 -0.1769
22588W        W42868   0.826   3.264  16.686 -0.2058 -0.3472  0.1428
22589W        W42869  16.273   1.115  15.699 -0.1330 -0.0380 -0.0146
22590W        W42870  13.732  13.547  12.385 -0.3333  0.1547 -0.0632
22591W        W42871   1.810   3.880  16.160 -0.2391 -0.0931 -0.3576
22592W        W42872  12.676   5.775   0.136  0.1692 -0.3376 -0.0110
22593W        W42873  10.782  14.773   3.800 -0.2269  0.1550  0.0929
22594W        W42874   7.610  15.070   3.243  0.1725  0.0724 -0.0741
22595W        W42875   9.812  16.231  15.889 -0.1564 -0.1807 -0.2066
22596W        W42876   6.156  12.795  12.186 -0.2920 -0.1517  0.0737
22597W        W42877  12.772  17.235  16.082  0.1606 -0.2157  0.1506
22598W        W42878   3.573  11.601   2.954  0.1828  0.0362 -0.0854
22599W        W42879   6.115   2.462   4.530  0.1171  0.0480  0.0513
22600W        W42880  10.990  10.459  16.143  0.2060  0.0034  0.0060
22601W        W42881   4.554  11.550  16.057  0.0380 -0.0064  0.0948
22602W        W42882  10.527   5.317   0.511  0.3631 -0.2906 -0.1254
22603W        W42883   3.412  15.014   2.015 -0.0648 -0.1046  0.1710
22604W        W42884   2.319  17.629  13.298 -0.0770 -0.2219  0.0885
22605W        W42885   2.644  16.171   4.423  0.0953  0.0284 -0.2976
22606W        W42886  10.301   2.483  15.829 -0.3001  0.0091  0.1277
22607W        W42887   0.549   4.734   0.339 -0.1249  0.0691 -0.0550
22608W        W42888  12.198   6.970   1.026 -0.0359 -0.0609 -0.2105
22609W        W42889  11.112   2.675  12.914 -0.1769 -0.0780  0.0807
22610W        W42890   5.181   9.371   3.628 -0.0536  0.0464  0.0687
22611W        W42891   4.600  13.288  14.722 -0.2030 -0.2026 -0.0811
22612W        W42892   8.630   5.161   3.491  0.0709  0.0292 -0.0434
22613W        W42893   1.861  10.356   3.120  0.1553  0.0460 -0.1722
22614W        W42894   2.108  14.368   1.587 -0.3161 -0.1562  0.0348
22615W        W42895  10.300   4.715   3.324 -0.1473 -0.3802  0.1767
22616W        W42896   1.520   3.703   3.141  0.2216 -0.3852 -0.0215
22617W        W42897   3.806  14.537   5.223  0.0853 -0.0234  0.1051
22618W        W42898  14.738  16.768   4.572 -0.0877 -0.1060  0.0646
22619W        W42899   9.592  13.635   4.510  0.2138 -0.2331 -0.0954
22620W        W42900  16.508  14.095   3.986  0.0339 -0.0701  0.1453
22621W        W42901  12.966   5.593  10.494 -0.0382  0.3736 -0.0709
22622W        W42902  11.414  15.913   5.599 -0.1626 -0.0413  0.0161
22623W        W42903   0.019   2.596  12.742 -0.0454  0.1349 -0.1281
22624W        W42904   3.594   7.855   1.427 -0.2345 -0.2957  0.0045
22625W        W42905  14.676   6.461  14.308 -0.0176  0.1717  0.0359
22626W        W42906  11.878   5.383   2.742 -0.0036 -0.0030 -0.2392
22627W        W42907  12.546  14.463   5.932 -0.0954  0.0024 -0.0255
22628W        W42908  12.803   2.573  13.531  0.0707  0.0955 -0.1135
22629W        W42909   0.382   7.625   0.410 -0.0249 -0.3257 -0.1050
22630W        W42910  13.007  10.688  14.833 -0.0524  0.2303  0.0291
22631W        W42911  10.974  14.255   2.696  0.1158 -0.3413 -0.0504
22632W        W42912   3.466  16.414  14.554 -0.1795 -0.0963 -0.2525
22633W        W42913   0.019   5.992   0.064 -0.1659 -0.2759 -0.0211
22634W        W42914  11.754   0.062   0.496 -0.2634  0.2357 -0.1619
22635W        W42915   7.900  16.495  16.298 -0.2028 -0.3527  0.1133
22636W        W42916   2.716  12.454   4.766 -0.2063 -0.0005  0.1186
22637W        W42917  10.126   8.126   1.178  0.0669 -0.0804  0.3995
22638W        W42918  16.117  15.749  14.631 -0.0027 -0.0460  0.2265
22639W        W42919  12.610   7.501   1.967 -0.0170 -0.2450  0.0899
22640W        W42920   1.528   5.847   1.951 -0.0153  0.1640 -0.1002
22641W        W42921  12.178  16.095   0.616  0.0146  0.2715  0.1332
22642W        W42922  17.574  14.985  14.380 -0.0199  0.1162 -0.0564
22643W        W42923   7.426  17.125   4.283 -0.2427  0.3415 -0.1909
22644W        W42924   0.215   0.269   3.557  0.1922  0.1022  0.1314
22645W        W42925  10.434   9.023  13.869 -0.0020  0.1532 -0.1388
22646W        W42926  11.232   4.431  14.038  0.2339 -0.0725  0.2619
22647W        W42927   9.564  13.687   0.270  0.4091 -0.1898 -0.0265
22648W        W42928   0.223  17.360   3.307  0.0526 -0.0399 -0.1834
22649W        W42929   0.302   1.445  12.410 -0.0009  0.1974  0.2300
22650W        W42930   5.474   6.107  12.712  0.0769 -0.1622  0.1658
22651W        W42931   5.291  17.143   1.279  0.5054 -0.0959  0.2024
22652W        W42932  13.344  11.133  14.136 -0.0552 -0.2091  0.1272
22653W        W42933   1.990  13.262   2.341 -0.1492  0.5222 -0.1992
22654W        W42934  12.742  16.045  15.304 -0.0259  0.4530 -0.0331
22655W        W42935   5.514   8.191  13.383  0.0135 -0.2566  0.1383
22656W        W42936   3.321  16.622  13.009 -0.0541  0.2493  0.0409
22657W        W42937  16.327   7.442  13.051  0.1500  0.2157 -0.0448
22658W        W42938   1.744   3.799  13.694 -0.2370 -0.1721  0.2070
22659W        W42939   3.887  15.481   3.993 -0.1669  0.0764 -0.0738
22660W        W42940   7.675   4.671   2.165 -0.1632  0.1099  0.3143
22661W        W42941   9.730   3.959  11.767  0.0153  0.1030 -0.1139
22662W        W42942   3.637   4.126  14.693  0.2419 -0.1466 -0.0937
22663W        W42943  17.326   4.626  16.121 -0.1294 -0.2131 -0.2758
22664W        W42944   1.207  15.587  14.917  0.0984  0.1098  0.1052
22665W        W42945  13.489   1.611  15.521  0.0908  0.0835 -0.0267
22666W        W42946   8.849   5.408   1.926 -0.0395 -0.0919  0.3212
22667W        W42947  11.328  16.251  13.180  0.0396 -0.1179 -0.0396
22668W        W42948   7.761  17.106   1.389  0.1356  0.1547  0.3175
22669W        W42949  10.617   8.049   4.696  0.1263 -0.1870 -0.1829
22670W        W42950  17.073  14.631   1.128  0.0862  0.1872 -0.1143
22671W        W42951  17.618   6.892  16.510 -0.1218  0.1425  0.0964
22672W        W42952  12.716  17.939   2.310  0.0121  0.0641 -0.0320
22673W        W42953  14.183  13.156   2.024 -0.2183  0.4103 -0.0435
22674W        W42954   3.130   5.016   0.116 -0.3440  0.0519  0.3726
22675W        W42955   3.486   7.684   2.352 -0.1907 -0.2701  0.0285
22676W        W42956  10.914   0.209  14.567  0.1186 -0.0664  0.0983
22677W        W42957  10.721  12.735  14.753 -0.1496  0.0180  0.1752
22678W        W42958  17.367   5.578   3.798 -0.0158  0.1950 -0.0213
22679W        W42959   9.654   7.552  12.608 -0.1554  0.1399 -0.2919
22680W        W42960   2.106  14.506  13.715 -0.2519  0.0992 -0.0816
22681W        W42961  14.491  10.342  14.865 -0.0491  0.2167 -0.2787
22682W        W42962  10.232  16.732  16.114  0.2623  0.0727  0.2005
22683W        W42963   1.690  12.620  12.607 -0.0214 -0.1077  0.2188
22684W        W42964   2.493   2.950   3.231 -0.0249 -0.1672  0.2146
22685W        W42965   2.377   4.097   2.589 -0.0425  0.1381  0.0238
22686W        W42966  17.380  17.250   2.729 -0.0977  0.0346 -0.0831
22687W        W42967   7.395   7.046  14.828 -0.0753 -0.0673  0.0796
22688W        W42968  10.579   5.514   1.422  0.0985 -0.1314  0.0869
22689W        W42969   8.087   6.821   0.492 -0.0600  0.0018 -0.1075
22690W        W42970   8.899   4.689  13.373 -0.1608  0.0317 -0.1658
22691W        W42971   1.916   3.234   3.434 -0.5135 -0.3072  0.0689
22692W        W42972  12.197  12.327   2.030  0.0903 -0.0715 -0.0712
22693W        W42973   0.516  12.100  16.276 -0.1693 -0.0442 -0.1639
22694W        W42974  10.668  17.854   3.267 -0.1658  0.2422 -0.0420
22695W        W42975  13.070   9.050  16.048 -0.0477 -0.0508 -0.2915
22696W        W42976   6.357   1.895   1.638  0.1788 -0.1193  0.0750
22697W        W42977   6.296   2.836   4.140 -0.1824  0.0411 -0.3283
22698W        W42978   3.166   5.622   0.559 -0.1638 -0.0869 -0.0924
22699W        W42979   8.885  16.604   4.140 -0.1763 -0.3328  0.1481
22700W        W42980   8.378   5.019  12.234 -0.0884  0.2455 -0.1390
22701W        W42981  14.329   3.935  15.988  0.1242  0.2714 -0.1835
22702W        W42982   0.907  13.048   5.201  0.0289 -0.1852 -0.1257
22703W        W42983  12.999   5.844  11.994 -0.2279  0.3413  0.0344
22704W        W42984   4.395   1.004   4.015 -0.1261  0.2059 -0.1917
22705W        W42985  13.180  15.235  16.266  0.1737 -0.0405 -0.4866
22706W        W42986   9.614   1.727  15.111  0.1349 -0.0150 -0.2090
22707W        W42987   2.693  12.246   3.425  0.0788  0.2746 -0.1117
22708W        W42988   7.769   2.958   0.151 -0.0752 -0.1212  0.3093
22709W        W42989  10.950  10.877   1.056 -0.1753 -0.0307  0.2329
22710W        W42990  16.656   7.181  12.443  0.0510 -0.1191 -0.2264
22711W        W42991   2.556   9.129   2.991  0.4331 -0.0019  0.2280
22712W        W42992  17.135  17.345  15.248 -0.2264  0.1132 -0.0466
22713W        W42993   6.367   9.766   3.572 -0.0591  0.2814 -0.1295
22714W        W42994   4.880  13.486   6.106 -0.3748  0.1513 -0.0505
22715W        W42995   9.011  12.787   3.144 -0.0247  0.4132 -0.4279
22716W        W42996   8.153  13.116   0.195  0.4377  0.0936  0.1924
22717W        W42997  14.629   9.490  15.801 -0.2088  0.2666  0.3884
22718W        W42998   2.980   7.127  13.224  0.2792  0.1402  0.1494
22719W        W42999  10.618   2.355  11.775 -0.0744  0.1827 -0.0689
22720W        W43000   1.139  13.658  13.680  0.1581 -0.2029  0.1041
22721W        W43001   3.131  13.342   2.003 -0.0974 -0.1350 -0.2113
22722W        W43002  17.279   5.288   1.728  0.0388  0.1411 -0.2141
22723W        W43003  16.595   8.985  13.823  0.3097  0.2237 -0.1652
22724W        W43004  15.993   5.148   1.107  0.1418 -0.1629  0.1301
22725W        W43005  15.038   8.240   2.868  0.1767  0.1318  0.1752
22726W        W43006   6.283   1.571  12.420 -0.2051  0.3698  0.2865
22727W        W43007  12.032  12.880  15.433  0.2062  0.5064  0.2311
22728W        W43008   4.871  17.376  14.760  0.3133 -0.1236  0.2547
22729W        W43009   0.907   5.886   1.850 -0.1464  0.0324 -0.2786
22730W        W43010   1.461   4.621   1.251  0.2757  0.2078 -0.3939
22731W        W43011  11.873  10.817  13.193  0.0951 -0.2378 -0.1345
22732W        W43012   2.107   7.267  15.740 -0.0322 -0.3343  0.1478
22733W        W43013   3.930  16.330   1.238 -0.1231  0.0614  0.4249
22734W        W43014  11.790  15.711  16.025  0.0090 -0.0378  0.3271
22735W        W43015  10.445  12.283  14.377  0.1004 -0.0252 -0.0099
22736W        W43016  15.028   5.563   1.765  0.2757 -0.1016  0.1674
22737W        W43017   7.838   6.263   1.767 -0.2157  0.0684  0.0961
22738W        W43018  13.447   2.549   3.183  0.3709  0.2288 -0.0355
22739W        W43019   1.350  12.007  11.933 -0.2365 -0.1735  0.4609
22740W        W43020   1.574  14.722   5.183  0.0169  0.0942  0.1364
22741W        W43021  12.261   6.099   3.900 -0.0703  0.1575 -0.0673
22742W        W43022   5.918   6.150  12.984 -0.1458  0.4212  0.1135
22743W        W43023  13.596   7.237  12.407 -0.0614 -0.2840  0.1421
22744W        W43024  11.469  11.172   4.151 -0.0244 -0.1881  0.1643
22745W        W43025  12.283  11.787  14.653 -0.0727  0.0191 -0.1005
22746W        W43026  11.787  16.257  13.358 -0.3632  0.0689 -0.0364
22747W        W43027  15.195  17.959   2.757 -0.0496 -0.0956 -0.1997
22748W        W43028  12.898   6.959  15.050 -0.1487 -0.0604  0.0291
22749W        W43029  16.358   3.494   4.170 -0.1597  0.0325  0.0326
22750W        W43030   5.016  13.900   1.010 -0.1695  0.3801 -0.0587
22751W        W43031  13.974  13.473   0.678 -0.0771 -0.1809 -0.1077
22752W        W43032  14.103  13.690  12.968 -0.1004 -0.1163  0.0556
22753W        W43033  10.156   8.197   4.508  0.0957 -0.0820 -0.1965
22754W        W43034   5.413  15.068  16.309  0.1153  0.0819 -0.3420
22755W        W43035   9.459  13.287   4.147  0.1361  0.2613 -0.0731
22756W        W43036  10.612  15.251  12.754 -0.0321 -0.3835 -0.0007
22757W        W43037  17.872   3.161  12.644  0.2345  0.4711  0.2977
22758W        W43038   7.292   8.866  14.010 -0.2403 -0.1669 -0.2908
22759W        W43039  16.336   4.899  12.925  0.0165  0.0402  0.1189
22760W        W43040  13.327   9.523  12.916  0.5814  0.1877  0.3769
22761W        W43041  11.826   5.830   3.682 -0.2237 -0.0199  0.1493
22762W        W43042   2.659  14.548   3.727  0.4023  0.2676 -0.0939
22763W        W43043  12.325  17.214  14.710  0.0693 -0.0452 -0.0015
22764W        W43044  16.602  15.489  12.697 -0.0336  0.0440 -0.0377
22765W        W43045   0.203   2.359  15.573  0.2339  0.1346  0.2969
22766W        W43046   2.584   3.170   2.159 -0.0756  0.2123  0.1903
22767W        W43047   7.801  17.793   2.721  0.0120  0.0947  0.0970
22768W        W43048   0.939   2.433  12.933  0.0165 -0.2992  0.1608
22769W        W43049   2.225   9.814   3.328  0.1714 -0.1883 -0.4406
22770W        W43050  12.467  14.286  13.473  0.2242  0.3390 -0.0503
22771W        W43051  11.073   3.632  12.986  0.1078  0.3472 -0.0115
22772W        W43052   4.664  10.627  14.081  0.2745  0.0322  0.1094
22773W        W43053   0.472  11.690  12.197 -0.1849 -0.2445 -0.2372
22774W        W43054   2.340   4.942  13.929 -0.2058 -0.1028 -0.2686
22775W        W43055  10.218  11.342  14.632 -0.2150  0.2927 -0.0279
22776W        W43056   8.309  10.486  14.012  0.0194 -0.0064  0.0054
22777W        W43057  12.354  14.133   1.819  0.1843 -0.1529 -0.1405
22778W        W43058  12.156   8.937   2.184 -0.1710  0.2650  0.2244
22779W        W43059   1.105  10.708  12.529 -0.1323  0.1855  0.3813
22780W        W43060  15.971   1.033  12.943  0.0410 -0.1707 -0.1837
22781W        W43061   1.409  11.296  13.165  0.0327 -0.3072  0.1457
22782W        W43062  10.118  14.404   0.498  0.3559 -0.1695 -0.2748
22783W        W43063  14.247  13.058  14.478  0.0191  0.2761  0.3484
22784W        W43064   4.523   4.665   2.628  0.0633  0.0965 -0.1599
22785W        W43065   7.450   3.021   1.301  0.0462 -0.5013  0.0048
22786W        W43066   9.460  13.981  14.851 -0.0938 -0.0729 -0.1265
22787W        W43067  12.630  14.981   2.238  0.0294 -0.0575 -0.2196
22788W        W43068  10.377   5.820   5.351 -0.1433  0.1397  0.2037
22789W        W43069   7.358   0.813  13.085  0.1922 -0.1149  0.1906
22790W        W43070  11.126  14.993   2.328 -0.1393 -0.1472  0.0573
22791W        W43071   1.685  17.452  12.579  0.0079  0.2225 -0.2339
22792W        W43072   2.782  16.158   2.956  0.0403  0.0049  0.3696
22793W        W43073  13.781  11.835   2.316 -0.1574 -0.2505 -0.3148
22794W        W43074  17.828   7.563  12.037  0.2399  0.1823 -0.0769
22795W        W43075  16.702  13.397   0.381  0.1436 -0.2657  0.0598
22796W        W43076   7.374   3.613  11.980 -0.2488  0.2656  0.1479
22797W        W43077  15.498   5.767  14.233  0.3673  0.3987 -0.2499
22798W        W43078  14.022   4.999   3.334  0.0113  0.0486 -0.3363
22799W        W43079   5.064   7.395   4.863 -0.1151 -0.0083  0.2923
22800W        W43080   9.788  16.816   2.869 -0.1254 -0.2035 -0.3263
22801W        W43081  11.543   9.956  15.471 -0.2036  0.3121 -0.0100
22802W        W43082  15.752   7.184  16.267 -0.1971 -0.1930 -0.0710
22803W        W43083  15.407  11.710  14.223 -0.2068  0.2908  0.1776
22804W        W43084  13.804   5.117  11.038  0.0542  0.1770 -0.1564
22805W        W43085   0.591   1.037   0.148  0.0958 -0.2048  0.0001
22806W        W43086   8.569  16.215  11.913  0.3419  0.2253 -0.2621
22807W        W43087  10.725  17.605  12.392  0.0029  0.0050  0.1237
22808W        W43088   7.444  14.468  12.591 -0.0824 -0.2335 -0.2352
22809W        W43089   6.414   4.600   2.671 -0.0151 -0.1465 -0.2363
22810W        W43090  12.018  12.249  13.765  0.1271  0.0935  0.2773
22811W        W43091  16.803   2.312   1.541  0.0679  0.3071  0.0895
22812W        W43092   5.257   6.827  16.637 -0.1001 -0.2050 -0.2168
22813W        W43093   2.091   1.162  11.966 -0.0997  0.0608  0.0470
22814W        W43094  11.630   8.636   0.142 -0.0105 -0.1284  0.0338
22815W        W43095   5.034   5.375   0.932 -0.1330  0.1019 -0.4790
22816W        W43096  13.668   0.344   1.436 -0.1989 -0.3703  0.0039
22817W        W43097  14.601   3.466   5.492  0.3038  0.0101 -0.1087
22818W        W43098   7.330   2.005   3.455  0.2301 -0.0460  0.1195
22819W        W43099  17.706  16.955   1.939  0.0305  0.3379  0.0184
22820W        W43100  12.423   5.699  15.470  0.1868  0.2585  0.0132
22821W        W43101   7.508  12.167  14.110  0.1213  0.2371 -0.1127
22822W        W43102   8.134  11.924  14.519  0.0860 -0.0333 -0.4073
22823W        W43103  15.267   5.209  15.655  0.0602  0.2306  0.1509
22824W        W43104  14.079   8.894   3.223 -0.1780  0.0801  0.1462
22825W        W43105   5.013   4.433   3.823  0.0086  0.0110  0.0925
22826W        W43106  15.722  10.335   1.502 -0.2413 -0.1391 -0.0481
22827W        W43107  12.285   8.827   4.186  0.2563 -0.0771  0.0494
22828W        W43108   1.849  14.103  13.114 -0.0614 -0.2684 -0.0216
22829W        W43109  15.597   1.232   3.089 -0.0216 -0.0139 -0.1257
22830W        W43110   7.487   4.603   3.469 -0.2035 -0.1645  0.0238
22831W        W43111   1.400   1.199   2.838  0.0776 -0.0953  0.4176
22832W        W43112   6.890   8.016   0.145 -0.0091 -0.0457 -0.2769
22833W        W43113   8.019   0.034  15.045  0.1021  0.0546 -0.2844
22834W        W43114   1.959  16.287   2.957 -0.0350  0.4328  0.3046
22835W        W43115   2.589  14.528   0.482 -0.0418 -0.1493 -0.0573
22836W        W43116   8.337  13.119   3.500  0.3378  0.0221 -0.1084
22837W        W43117   6.227  17.604  12.263 -0.0022  0.0593  0.0185
22838W        W43118   8.712  15.415   4.204  0.0648 -0.1173  0.1937
22839W        W43119  11.596  15.304  14.126 -0.3647 -0.3304 -0.0161
22840W        W43120   8.302   5.969   1.803  0.2300 -0.2160 -0.0501
22841W        W43121   1.309   4.876  16.191  0.0033  0.1102  0.2300
22842W        W43122  15.193  12.074   4.232 -0.4508  0.2801  0.1243
22843W        W43123   7.567   9.612   2.477  0.0428  0.3095 -0.1309
22844W        W43124   9.350   8.990   2.741 -0.2103  0.1595  0.1185
22845W        W43125  12.945   1.832   1.129 -0.0351  0.3158 -0.1678
22846W        W43126  16.502   8.331   0.745  0.2118 -0.0375 -0.1685
22847W        W43127  17.652  16.526  14.469 -0.1460  0.0834  0.1215
22848W        W43128  10.413   2.324   4.606 -0.2498 -0.2028  0.0841
22849W        W43129   4.229  11.171  16.357 -0.1672 -0.2330 -0.1787
22850W        W43130   0.250  13.122   3.951  0.0960 -0.2683  0.0238
22851W        W43131   9.214   5.521  16.631 -0.1552 -0.0017 -0.0344
22852W        W43132  16.263   8.332  16.314  0.0740  0.0622  0.0141
22853W        W43133   0.395   2.219  13.673  0.0075 -0.0432 -0.1363
22854W        W43134  15.226   7.613   4.955 -0.5024  0.1001  0.2090
22855W        W43135   9.634  11.177   1.394  0.0856  0.1198  0.0412
22856W        W43136   8.012   7.555   3.284 -0.1377  0.1947  0.0439
22857W        W43137  16.923  12.741   2.831 -0.1432  0.0228 -0.0034
22858W        W43138  11.360   5.330  14.969  0.2119  0.3337 -0.1183
22859W        W43139   8.190   3.753  12.605 -0.1678 -0.1599  0.0458
22860W        W43140  13.764  13.568   3.221  0.0909  0.3364 -0.0698
22861W        W43141   1.184  12.996  13.646 -0.0531  0.0064  0.0353
22862W        W43142  15.169  14.790   3.299  0.0243 -0.1104  0.0332
22863W        W43143   8.181  12.765  12.568  0.0337 -0.1070  0.4691
22864W        W43144   8.675  11.471  13.759 -0.5186 -0.1646 -0.3016
22865W        W43145   2.725   1.134   1.551 -0.1854  0.0026  0.1259
22866W        W43146   4.824  15.218  15.089  0.1564  0.1205  0.1196
22867W        W43147   2.817   2.294  16.471  0.0073  0.1562 -0.0280
22868W        W43148  11.971   5.459  16.276 -0.0674 -0.2015 -0.1002
22869W        W43149   4.941  16.455   4.613 -0.1609 -0.1021 -0.1383
22870W        W43150   7.254  12.829  15.977 -0.4246 -0.0437  0.0536
22871W        W43151   7.854  12.743   1.453  0.3411 -0.1003 -0.1271
22872W        W43152  10.525  12.797  14.239  0.2397 -0.2093 -0.0004
22873W        W43153   8.426   8.114  12.490  0.1162 -0.1033  0.2815
22874W        W43154   4.078   7.354   0.267  0.1131 -0.1165  0.0415
22875W        W43155   9.687   5.429  13.977 -0.1041 -0.0412 -0.1086
22876W        W43156   5.875  13.152  14.045  0.0369  0.1941 -0.2573
22877W        W43157   5.400   3.690  12.667  0.2958 -0.1456 -0.0304
22878W        W43158  17.300   6.367  12.780 -0.0828  0.0802 -0.0040
22879W        W43159  16.083   5.589  13.683  0.0538  0.0470 -0.1001
22880W        W43160  16.308   1.679   0.986  0.0494  0.0351  0.1316
22881W        W43161  12.872  10.042  14.375 -0.1835 -0.1953  0.2527
22882W        W43162   6.870   0.481  13.184  0.0407  0.2156 -0.1223
22883W        W43163   3.490   0.681   3.744 -0.0856  0.0709  0.2052
22884W        W43164   6.972  17.944   3.014 -0.0664 -0.1375  0.2142
22885W        W43165  12.298  16.951  13.188 -0.3088 -0.3004  0.3108
22886W        W43166  15.340   8.199  12.100 -0.0856  0.0689  0.2402
22887W        W43167  10.151  15.949  14.935 -0.0496  0.0752 -0.1097
22888W        W43168  14.567  14.646  11.385  0.1256  0.1041 -0.0777
22889W        W43169   3.029   5.547   3.780  0.0932  0.2892 -0.0403
22890W        W43170  11.714   8.066  13.788 -0.2412 -0.0615  0.0816
22891W        W43171  11.419   9.706   0.086  0.2208 -0.0623 -0.2768
22892W        W43172  15.239   4.142   3.368  0.2606 -0.1540 -0.0857
22893W        W43173   3.664  13.707  16.550  0.0764  0.0582  0.1066
22894W        W43174   0.877  12.192  15.227  0.1513 -0.0288 -0.1257
22895W        W43175   9.607   1.117   2.212  0.0896  0.0082  0.0855
22896W        W43176   3.775   3.083  16.170 -0.1827  0.0998  0.0876
22897W        W43177   1.693   4.118   3.361  0.1049  0.1476  0.0518
22898W        W43178   5.883  16.328   1.099 -0.0580 -0.2029 -0.2040
22899W        W43179   0.474   6.767  12.428 -0.2286 -0.1360  0.2324
22900W        W43180  14.165   5.669   2.272  0.1106  0.1853 -0.3866
22901W        W43181  16.818   5.357  15.700  0.1177 -0.0318  0.0541
22902W        W43182   9.949   7.268   4.318  0.0534  0.2353 -0.0460
22903W        W43183  16.218  14.144   5.817  0.1313 -0.0780 -0.2372
22904W        W43184   6.492   7.252  16.026  0.0964  0.1140 -0.4467
22905W        W43185   6.665  16.548   4.120 -0.1883  0.0415  0.0908
22906W        W43186  13.603  15.493   3.900 -0.0947 -0.2471 -0.0291
22907W        W43187   7.745   6.405   3.754 -0.0041 -0.0802  0.0671
22908W        W43188  17.864  17.165  16.464 -0.1936  0.0850  0.2546
22909W        W43189  16.389   3.885   4.510 -0.0396 -0.0384 -0.2762
22910W        W43190   0.781   1.976   1.916 -0.1595  0.0453  0.0280
22911W        W43191   5.558   5.464   0.838  0.0777  0.0284  0.0481
22912W        W43192   8.944  14.374   3.497 -0.0391  0.1492  0.0124
22913W        W43193  12.403  11.960  13.489 -0.2179  0.1140  0.0773
22914W        W43194   0.991   3.886   4.741 -0.0302  0.3831  0.1940
22915W        W43195   0.629  13.245   1.391  0.3434  0.4948  0.1831
22916W        W43196   9.914   7.352   2.100 -0.1893  0.0640  0.0537
22917W        W43197   4.546  11.441   4.633 -0.0990  0.0201 -0.0461
22918W        W43198   4.003  11.772   1.461  0.0753 -0.1742  0.2419
22919W        W43199   6.214   0.294   2.061 -0.0765  0.3009  0.0351
22920W        W43200  11.279  13.088   1.605 -0.1494  0.1318  0.4423
22921W        W43201   5.579   6.313   2.833  0.0623  0.0176  0.0562
22922W        W43202   4.621  13.487  15.209  0.1535  0.0876 -0.0603
22923W        W43203   9.634  15.107  14.004  0.0317  0.0290  0.0111
22924W        W43204   8.373   5.244  14.019 -0.3022  0.1158 -0.0433
22925W        W43205   5.580   8.670   1.579 -0.0732 -0.0221 -0.1138
22926W        W43206  12.260   4.890   3.353 -0.3477 -0.1215 -0.0628
22927W        W43207  13.720   2.452  16.603  0.0844  0.4288  0.1513
22928W        W43208   1.046   6.242   1.024  0.0346 -0.2807 -0.0263
22929W        W43209   1.743   1.731  13.778  0.1047  0.0181 -0.3415
22930W        W43210  10.959   8.551   0.922  0.3662  0.1555  0.1015
22931W        W43211   2.426   8.597   0.483  0.2855  0.2061  0.0678
22932W        W43212   1.314  10.206   0.350  0.0345  0.1968  0.2316
22933W        W43213   4.620  17.051  12.425  0.0282  0.0225 -0.0580
22934W        W43214  16.943   9.834   0.531 -0.0083  0.0510 -0.0808
22935W        W43215   9.853  16.589  15.298 -0.2153  0.1126 -0.4505
22936W        W43216  17.609  11.537   3.408  0.1355  0.2156 -0.1259
22937W        W43217   4.056   6.098   0.199 -0.1187  0.1655 -0.0035
22938W        W43218  17.991  10.649   0.741  0.0026  0.1496  0.0035
22939W        W43219   8.448   7.819  16.176  0.0148 -0.1467  0.2442
22940W        W43220   6.884   4.133   0.044  0.3770  0.3808  0.3148
22941W        W43221   0.326   9.926  16.570 -0.1012 -0.0640 -0.0106
22942W        W43222   2.729   2.756   4.695  0.2106  0.2174  0.0381
22943W        W43223   4.692  11.077  16.135  0.0582  0.0176 -0.1444
22944W        W43224   1.730   6.975   4.331  0.2156  0.0225  0.1050
22945W        W43225   7.066  14.315   0.936  0.0579 -0.2268 -0.1116
22946W        W43226  15.921   0.550   1.682  0.0250  0.2311 -0.2954
22947W        W43227   0.882  16.698  15.284  0.2059  0.2590  0.0869
22948W        W43228   6.196   2.309   0.636 -0.3643 -0.0056 -0.2237
22949W        W43229   4.051   7.481   2.242  0.0125  0.1993 -0.1903
22950W        W43230   9.204  16.828  12.074  0.1081  0.1012 -0.0256
22951W        W43231  10.919   4.612  14.435 -0.1398 -0.0160 -0.0299
22952W        W43232   8.490  13.307  14.984  0.0507  0.0690 -0.1748
22953W        W43233   2.319  12.786   3.817  0.1028 -0.1684 -0.0072
22954W        W43234   4.526  10.977   5.934 -0.2658 -0.1297  0.2782
22955W        W43235   2.113  11.116   1.624  0.2787 -0.2278  0.1050
22956W        W43236   6.607  11.517   1.017  0.0399  0.0058  0.0352
22957W        W43237  15.450  15.305  15.857  0.0281 -0.3152  0.0610
22958W        W43238  17.901   6.114   0.885 -0.3494  0.0208 -0.5154
22959W        W43239   6.609   1.951  11.955 -0.1678  0.2981  0.0574
22960W        W43240   2.885   7.407  15.712  0.1086 -0.0642 -0.0531
22961W        W43241   0.944   6.568   2.389  0.2304 -0.4612 -0.1319
22962W        W43242  10.221  16.990   1.931  0.5455  0.0848 -0.2561
22963W        W43243   9.247  12.327  15.729  0.1507  0.2468  0.2924
22964W        W43244  17.694   0.028  12.596 -0.1210  0.1221  0.1659
22965W        W43245  11.399  11.757   4.256  0.0728 -0.2045 -0.3656
22966W        W43246  12.122  11.966  14.122 -0.0563 -0.3279 -0.0925
22967W        W43247  14.481   7.557  16.693  0.0282  0.2697  0.0826
22968W        W43248  11.087   1.906  13.049  0.0942  0.0808 -0.0224
22969W        W43249   7.833   3.586   3.455 -0.0835  0.1190  0.1581
22970W        W43250   8.857  14.061   0.996 -0.0288 -0.3067 -0.1002
22971W        W43251  11.793  13.280   3.496 -0.3469  0.1185  0.2953
22972W        W43252   2.147  12.420   4.592 -0.2808  0.0640 -0.0861
22973W        W43253  15.337  12.140   3.025  0.0759 -0.0708 -0.1422
22974W        W43254  13.647  14.363   2.374 -0.0040  0.1402  0.0350
22975W        W43255  15.390   0.114  14.688  0.0142  0.2046 -0.0973
22976W        W43256   9.247   6.694   0.376  0.0268  0.0224  0.2978
22977W        W43257  15.382   5.824  12.025 -0.2540  0.0866 -0.2486
22978W        W43258   1.314   5.357  16.049  0.2169  0.1135  0.0179
22979W        W43259   1.699   6.973  15.562 -0.1936 -0.3188  0.1609
22980W        W43260   7.696  14.763  13.166  0.5306  0.1154  0.1928
22981W        W43261  12.361   7.754   3.887 -0.0264 -0.1562 -0.3217
22982W        W43262  10.916  14.872   4.606  0.1474  0.0051  0.0111
22983W        W43263  10.025   1.205  16.290 -0.2957 -0.1531  0.0058
22984W        W43264   1.699  10.538   1.592  0.1497 -0.3718 -0.1149
22985W        W43265  15.466   6.281  16.249  0.2688  0.1065  0.0849
22986W        W43266   4.958  13.745   4.937 -0.0873  0.1320 -0.0835
22987W        W43267   4.966   7.223  13.937  0.0137 -0.0861  0.3842
22988W        W43268   2.838  14.230  11.901  0.0618  0.3790  0.0670
22989W        W43269   4.926   5.822  14.480  0.2090  0.2215 -0.2361
22990W        W43270  17.671   9.966  13.365  0.1772  0.3047  0.1472
22991W        W43271  16.930   9.882  16.142  0.2196 -0.2706  0.0082
22992W        W43272  13.395   4.095  16.437  0.0941  0.0085  0.0953
22993W        W43273  12.374   1.061   4.620 -0.1020 -0.2972  0.3125
22994W        W43274   5.139  11.928  14.620  0.1473  0.1290 -0.2098
22995W        W43275  14.041   7.957   3.786  0.0092 -0.1808 -0.2579
22996W        W43276   8.672   7.890   4.247  0.0492 -0.1282  0.0306
22997W        W43277  12.464  12.755   2.415 -0.1322  0.1897 -0.0209
22998W        W43278   7.032  13.967   1.857  0.0730  0.0958  0.0036
22999W        W43279  15.799   6.876  12.987  0.0355  0.1516  0.0264
23000W        W43280  14.162  15.110  15.948  0.3993 -0.0599 -0.1304
23001W        W43281   4.584  14.067   0.755 -0.0904  0.0044 -0.2071
23002W        W43282  11.537   6.413  12.850 -0.0940 -0.0697  0.1091
23003W        W43283  11.769   9.776  16.286 -0.2539 -0.1876 -0.1618
23004W        W43284   8.527   0.860  15.942 -0.2033  0.0779 -0.0800
23005W        W43285   7.455   7.198  12.545  0.1455  0.1202 -0.1569
23006W        W43286   1.675  14.447   0.725 -0.0389 -0.1665  0.3088
23007W        W43287  16.864   8.579  14.125  0.1265 -0.0771  0.0592
23008W        W43288   4.787   6.457   4.124 -0.1693  0.0706 -0.1304
23009W        W43289   4.261   4.280   2.538 -0.2194 -0.1655  0.0723
23010W        W43290   4.298  14.753   3.628  0.2021 -0.1275  0.0257
23011W        W43291   4.683  13.565   5.270 -0.0986  0.0709  0.3250
23012W        W43292  17.053  10.211   0.175  0.0988 -0.2562  0.3527
23013W        W43293  12.212   2.105   2.570  0.0388  0.0624 -0.1398
23014W        W43294   8.039   0.335  15.970 -0.0074  0.1236  0.0530
23015W        W43295   5.552   7.722  14.226  0.0617 -0.1528  0.1492
23016W        W43296   3.066   2.741  16.549 -0.1026  0.3087 -0.2824
23017W        W43297   8.381   3.890  16.123 -0.1129 -0.1978  0.0274
23018W        W43298   1.370   6.582  16.509  0.1165 -0.0095  0.0316
23019W        W43299   9.479   3.735   3.666  0.0947 -0.0406 -0.0308
23020W        W43300   7.249   9.662   3.012  0.0138  0.1635 -0.2363
23021W        W43301  15.171  16.586   4.397 -0.3021  0.1845 -0.0913
23022W        W43302   2.734   6.426  14.816 -0.0897  0.2701 -0.1668
23023W        W43303   6.107  13.972   0.314 -0.1362 -0.0446  0.0382
23024W        W43304   8.656   8.273  12.084 -0.1525  0.1604 -0.2166
23025W        W43305  16.982   4.987  12.586 -0.0771 -0.0144 -0.0400
23026W        W43306  17.073   4.653   0.281  0.1007  0.1218 -0.1222
23027W        W43307   1.939   7.638   5.061 -0.0784 -0.0618  0.0542
23028W        W43308   0.335   6.716  15.924  0.1529 -0.0028 -0.0363
23029W        W43309   4.378   9.729  13.823 -0.0729  0.0668 -0.0425
23030W        W43310  10.485  17.578  15.743 -0.1263  0.2379 -0.0480
23031W        W43311  17.481   2.572  10.908 -0.0373 -0.1402 -0.2347
23032W        W43312   6.992  12.365   1.415 -0.0757 -0.0092 -0.0863
23033W        W43313  17.284  12.080   0.569  0.1220  0.0422  0.1283
23034W        W43314  14.861   9.229   0.425 -0.4111  0.3395 -0.3414
23035W        W43315   3.624  14.500   4.668  0.2867  0.2350  0.2215
23036W        W43316  17.116  10.760   2.036  0.0365  0.1756 -0.0283
23037W        W43317   1.725  12.755  15.288 -0.0933 -0.0421 -0.0435
23038W        W43318   3.889  12.094  12.185  0.0503  0.0744  0.1239
23039W        W43319   9.408   4.129  14.577  0.0317  0.1309 -0.0760
23040W        W43320   8.581  12.582   5.007  0.0150 -0.0911 -0.3468
23041W        W43321  11.733   1.228  15.570 -0.2832  0.0012 -0.2101
23042W        W43322  15.066  12.288  15.009  0.0401 -0.2458  0.3841
23043W        W43323  11.420   3.598   0.887  0.1818 -0.0791 -0.0002
23044W        W43324  16.401   4.975  16.541  0.1104  0.0201  0.0524
23045W        W43325  11.501  17.048   3.729  0.1159  0.0449 -0.1424
23046W        W43326   6.569   2.174  13.920 -0.1221 -0.3309 -0.2667
23047W        W43327   8.629   6.211  16.549 -0.0798  0.2683  0.1347
23048W        W43328   6.051   8.858   5.521 -0.0321  0.0100  0.2987
23049W        W43329   0.088   0.313  13.393  0.1144 -0.3957  0.2421
23050W        W43330  17.411   3.833   2.416 -0.2136  0.3629 -0.0332
23051W        W43331   5.054  14.153  15.022 -0.1639  0.0579  0.2859
23052W        W43332   7.831  12.493   2.578  0.1321 -0.1309  0.1279
23053W        W43333   3.057   7.645   4.612 -0.0401 -0.0160 -0.1233
23054W        W43334   2.493   5.586  15.441  0.1073 -0.1895 -0.1396
23055W        W43335   7.884   5.402   4.428  0.2269  0.1086 -0.1214
23056W        W43336   6.017  17.173   1.200  0.2349 -0.2759 -0.0774
23057W        W43337   0.601  13.655   1.151  0.0402  0.1626  0.6174
23058W        W43338   4.751   7.912  15.969  0.2069  0.2003 -0.0611
23059W        W43339   2.046  17.153   4.532 -0.0511  0.2043 -0.0129
23060W        W43340   4.975   5.478  12.478 -0.1102  0.1147 -0.3180
23061W        W43341   1.374  11.733  16.024  0.3066  0.0572  0.0357
23062W        W43342   1.387   2.254  12.726  0.0159  0.2377 -0.0545
23063W        W43343  11.019  14.082  14.067  0.3698 -0.3625 -0.1560
23064W        W43344  10.682   4.017  12.997 -0.1142 -0.1426  0.2747
23065W        W43345   1.622   4.177   1.081  0.0981  0.0584  0.1182
23066W        W43346   8.257   3.236  12.639 -0.4118 -0.0804  0.0365
23067W        W43347   6.251   5.478   3.642  0.0924  0.2803  0.0279
23068W        W43348   0.565  10.137  14.872  0.0494 -0.3040  0.1209
23069W        W43349  12.444   3.021   0.544 -0.0649 -0.0648  0.1110
23070W        W43350  13.628   2.964   0.066  0.2012  0.1339  0.1143
23071W        W43351   7.141   0.824  13.923  0.1454  0.2002  0.0487
23072W        W43352   7.056   1.592   2.076  0.2139 -0.3687  0.0819
23073W        W43353   8.473   4.976  13.325  0.3236  0.0736  0.0688
23074W        W43354   9.056   6.539   2.730  0.1699 -0.0893  0.3514
23075W        W43355  11.101  12.487   3.569  0.1044 -0.5545 -0.0112
23076W        W43356  14.867  17.609   2.860 -0.0345  0.0067  0.1198
23077W        W43357   8.347   3.706   4.171  0.1663 -0.1541  0.1450
23078W        W43358   9.698   4.552  15.672  0.1065 -0.1242 -0.1787
23079W        W43359   9.697  11.687   1.613  0.0598 -0.2880 -0.0509
23080W        W43360   8.586  16.338   3.227  0.3103  0.0991  0.2776
23081W        W43361   2.757  17.044   2.050 -0.5454  0.2180  0.2253
23082W        W43362  16.945   2.055   2.699  0.1598  0.0866  0.2273
23083W        W43363   9.807  13.884   1.343 -0.4194 -0.4569 -0.1278
23084W        W43364   7.406   8.154  12.129  0.2701  0.0679  0.1572
23085W        W43365   9.788  16.426   1.278 -0.1902 -0.2217  0.2123
23086W        W43366  13.990   6.934  15.897 -0.2911 -0.2345  0.0601
23087W        W43367   4.467   4.709  15.587  0.0563 -0.3723 -0.2547
23088W        W43368   4.961  14.732  15.506 -0.3769  0.0642 -0.2662
23089W        W43369  17.521  12.090  12.401 -0.2412 -0.3790  0.3738
23090W        W43370  10.302  16.234   3.178 -0.2311  0.0172  0.1454
23091W        W43371  14.627  11.052   2.770 -0.1205  0.0228  0.0306
23092W        W43372   0.337  13.258   0.979  0.1704  0.0900  0.0022
23093W        W43373   5.681   8.355   2.659  0.2095  0.1232  0.1637
23094W        W43374   9.118  15.591  12.515 -0.1966 -0.1848 -0.0114
23095W        W43375  16.437  10.416  16.061  0.0424  0.2740  0.1670
23096W        W43376  10.498  16.672   3.472 -0.0037 -0.0798 -0.2221
23097W        W43377   5.750  16.027  12.627  0.0874  0.1967 -0.0055
23098W        W43378  11.942  17.534  14.544  0.5766 -0.0218 -0.2342
23099W        W43379   0.464   9.688  13.568  0.1485 -0.1420 -0.1907
23100W        W43380  12.052  15.760   2.799  0.2181 -0.3883  0.2175
23101W        W43381  15.092  13.129   0.721 -0.0077  0.0954 -0.1084
23102W        W43382  17.123  11.272   1.841  0.0281  0.1012 -0.2800
23103W        W43383   5.748  14.925  15.945  0.0359  0.0678 -0.0587
23104W        W43384   4.648  16.010  15.085  0.3850  0.1143  0.1210
23105W        W43385  10.526  14.499   2.662 -0.1614  0.0009  0.2347
23106W        W43386   0.530   1.405  14.641 -0.2180 -0.0469 -0.0275
23107W        W43387   8.341   2.185  13.994  0.0118  0.0735 -0.0051
23108W        W43388  17.100   2.112   3.580  0.2259 -0.1083 -0.0646
23109W        W43389  17.263  13.801   4.107  0.0070  0.1494 -0.1819
23110W        W43390   1.963  12.602   0.734  0.3052  0.0214  0.1618
23111W        W43391   8.445   1.055  12.302  0.1233  0.3599 -0.1668
23112W        W43392   5.420   0.009  15.532  0.2628  0.0579  0.1435
23113W        W43393  17.317   6.855  12.579 -0.0293  0.0504 -0.1051
23114W        W43394   0.481  13.147  14.438  0.0266 -0.2846 -0.1382
23115W        W43395   7.698   3.992  12.830 -0.0650 -0.1778 -0.0891
23116W        W43396  11.716  10.485  14.762 -0.1303 -0.1529 -0.0427
23117W        W43397   7.055  12.084   4.691 -0.0011  0.1971  0.0544
23118W        W43398   6.672   3.347   2.069  0.0108  0.0103  0.1191
23119W        W43399   2.817  10.552  13.498 -0.0540 -0.2379 -0.0251
23120W        W43400   0.945   1.072  14.477 -0.3145 -0.1132 -0.2383
23121W        W43401   2.400   6.544  12.300 -0.0152  0.0267  0.1630
23122W        W43402  12.643   8.252  12.504  0.0443  0.0536  0.2805
23123W        W43403  17.826  11.734   1.730 -0.0369 -0.1550  0.2237
23124W        W43404  12.698   8.669  15.912 -0.1159 -0.0581 -0.4825
23125W        W43405   1.072   5.475   3.393  0.1183 -0.2260 -0.0918
23126W        W43406   7.833  11.080  12.333  0.0659  0.2967  0.1356
23127W        W43407   2.154  14.602   2.897 -0.2363  0.0655  0.0698
23128W        W43408  16.875   4.215  14.260 -0.2154  0.1452  0.0092
23129W        W43409   4.842   7.624  14.710  0.0486  0.1737 -0.1401
23130W        W43410   0.980   5.334   4.686 -0.2489 -0.3809  0.1912
23131W        W43411  16.255   4.163   3.571  0.2750 -0.0300 -0.0038
23132W        W43412   6.729   5.751   5.014  0.1391  0.0553 -0.1309
23133W        W43413  17.423  15.604   3.066  0.0299 -0.1304 -0.0139
23134W        W43414   4.266  17.703  13.416  0.3401  0.0153  0.0642
23135W        W43415   3.364  11.482  15.993 -0.2206  0.1594  0.0178
23136W        W43416  11.527   0.693  15.379  0.2335  0.0117  0.2801
23137W        W43417  17.322   4.848  14.083 -0.1569 -0.4076 -0.0293
23138W        W43418   4.931   7.049  13.083  0.1949 -0.3766  0.1770
23139W        W43419  17.592  17.803  16.138  0.0612 -0.0415  0.1374
23140W        W43420  14.922   6.713  16.381  0.1191  0.4262  0.0572
23141W        W43421   7.737  17.335   2.849  0.3103 -0.0341 -0.0332
23142W        W43422   3.451  15.485   4.345 -0.0481 -0.1879 -0.1581
23143W        W43423  10.843   8.312   3.851 -0.0194  0.1236 -0.1932
23144W        W43424   2.900   9.234  12.623  0.0680  0.1560 -0.0215
23145W        W43425   4.462   8.436  16.130  0.1487  0.0666  0.0188
23146W        W43426   7.479  16.886   3.784  0.0706  0.0108 -0.3251
23147W        W43427   1.826   1.671  15.204  0.1757  0.1582 -0.3346
23148W        W43428  17.873   6.911   3.121 -0.0751  0.0704  0.2296
23149W        W43429   3.842   9.028   2.872  0.1096  0.1728 -0.1188
23150W        W43430  15.287   6.148   4.483 -0.1766 -0.0508 -0.0967
23151W        W43431   1.554   6.335   1.193 -0.0722  0.2547 -0.3895
23152W        W43432  12.768   5.199  14.182 -0.0608  0.0513 -0.0653
23153W        W43433   8.119   6.998  13.469  0.0839  0.2387 -0.1469
23154W        W43434  16.082  10.768  14.245 -0.0300 -0.0847  0.4783
23155W        W43435   6.439  14.059  13.033  0.2729 -0.0133 -0.2971
23156W        W43436   9.155  11.254  12.899  0.2518  0.0169  0.0581
23157W        W43437   7.752   9.010   1.828  0.0312  0.0580 -0.3600
23158W        W43438   7.077   9.571   1.953 -0.1123  0.0348 -0.2388
23159W        W43439  14.023   1.086   2.383 -0.1153 -0.0799 -0.2317
23160W        W43440  11.210   9.397   4.538 -0.0689 -0.1507  0.1146
23161W        W43441   5.429  15.345  15.756 -0.3483 -0.1695 -0.0127
23162W        W43442  10.318   4.828  13.910 -0.0091 -0.0670  0.1721
23163W        W43443  15.805  10.196  16.619 -0.3464 -0.1758 -0.3827
23164W        W43444  15.866   6.816   1.784  0.2984 -0.2729  0.1856
23165W        W43445  10.783   9.859   0.807  0.0566 -0.1634  0.3725
23166W        W43446  16.351  12.648  12.579 -0.1777 -0.0732 -0.0317
23167W        W43447   4.708  11.108   2.991 -0.0526  0.2080  0.3272
23168W        W43448   6.687   9.573  13.845 -0.0573 -0.1641  0.1072
23169W        W43449  12.254  16.418   3.794 -0.1381 -0.0827  0.1573
23170W        W43450   9.650   0.673  14.072  0.1948 -0.2375 -0.0668
23171W        W43451   0.271   7.188   2.889  0.2665 -0.0893 -0.1154
23172W        W43452   5.882   8.468  12.423  0.1878 -0.3158  0.0226
23173W        W43453  17.957   0.675  12.006 -0.2379  0.1726  0.1433
23174W        W43454  15.528   4.810  13.254 -0.2046  0.0392 -0.0542
23175W        W43455   5.823   1.031   1.327 -0.0639 -0.1446  0.1781
23176W        W43456  11.693  16.214  16.065  0.2881  0.1484 -0.2747
23177W        W43457  16.624  13.992  12.847  0.3097 -0.1463 -0.2348
23178W        W43458   4.571  17.930   4.471 -0.1839 -0.0519 -0.3495
23179W        W43459  12.636   0.194   4.182  0.2890  0.6152 -0.2143
23180W        W43460   5.917   8.493   3.540 -0.0500 -0.0947  0.0165
23181W        W43461  11.034  16.181  12.766 -0.1102 -0.1151  0.0035
23182W        W43462  14.306  15.393  14.033  0.1183  0.0521 -0.1019
23183W        W43463  15.484  14.541  13.516  0.0140 -0.1185  0.0456
23184W        W43464  17.814  14.348  15.530 -0.0471 -0.2111 -0.2794
23185W        W43465  12.615   6.425   1.807 -0.1807  0.0250  0.0785
23186W        W43466   1.258  12.952  14.226 -0.1243  0.1377 -0.1269
23187W        W43467  11.331  11.544   0.431  0.1850  0.1556 -0.3700
23188W        W43468   1.692  12.384   4.501 -0.2362 -0.1547 -0.1918
23189W        W43469   6.826  16.126   0.071  0.0060  0.2909  0.1223
23190W        W43470   0.471   0.732   3.604 -0.0074 -0.2973  0.1515
23191W        W43471   4.036   0.338  12.533  0.0308  0.0417 -0.1134
23192W        W43472  16.463  17.415   0.833 -0.0105 -0.0462 -0.1680
23193W        W43473   8.091   2.947   4.406  0.1793 -0.0012  0.1957
23194W        W43474  10.625   7.468  14.847  0.0683  0.2074  0.0982
23195W        W43475  12.221   3.164  11.534 -0.0527  0.0469 -0.2247
23196W        W43476  10.038  17.496   3.871 -0.0519 -0.0365 -0.1142
23197W        W43477  10.855   3.490   1.597  0.2590  0.2212 -0.2726
23198W        W43478  16.981   7.521   0.209  0.0446 -0.0794 -0.1438
23199W        W43479  15.529  12.530   2.819 -0.1915 -0.0663  0.0632
23200W        W43480  13.379   6.202  13.913 -0.0442 -0.0070  0.0037
23201W        W43481   3.051   4.803  12.106  0.0788  0.1519  0.1078
23202W        W43482   5.891  17.966  15.362  0.0169 -0.0266  0.1906
23203W        W43483   1.497   2.893   4.435  0.0811  0.1820 -0.0292
23204W        W43484   0.209  12.634   0.302 -0.3761  0.2756  0.0183
23205W        W43485   2.088   8.306   0.679  0.2886 -0.0395 -0.0612
23206W        W43486  17.719  15.836   0.917 -0.1794  0.1278 -0.0926
23207W        W43487  16.533  11.440  14.531  0.0993 -0.0507  0.2152
23208W        W43488   0.719  16.088  13.783 -0.4023  0.1224  0.3991
23209W        W43489   4.416   9.577   1.616 -0.1763  0.2064 -0.1546
23210W        W43490   5.308   9.385  12.042  0.1051  0.0307 -0.0248
23211W        W43491  13.764   1.511  12.015  0.1655 -0.0948  0.0833
23212W        W43492   3.550   5.704   1.442 -0.1483  0.1580 -0.1147
23213W        W43493  10.114   6.795  11.762 -0.0056 -0.0849 -0.1211
23214W        W43494   0.165   2.990  14.847  0.2428 -0.0463  0.1895
23215W        W43495  15.178   7.921  12.499  0.2058 -0.0223  0.0249
23216W        W43496   5.700   7.569  14.787  0.2427 -0.2544  0.2617
23217W        W43497   0.318  14.385  14.864  0.2576  0.0039 -0.0628
23218W        W43498  15.943   1.304  13.367  0.1395  0.0445 -0.2148
23219W        W43499   0.235  10.130  14.513  0.0864 -0.2502  0.2293
23220W        W43500   2.891   9.130   2.334 -0.0589 -0.0548 -0.0590
23221W        W43501   3.957   0.760   1.621  0.2065  0.1223  0.1148
23222W        W43502   5.596   7.079   0.156 -0.1211  0.0134 -0.0203
23223W        W43503   8.067  11.892  16.071 -0.2378  0.1610 -0.0649
23224W        W43504  11.884  10.149  15.924  0.5579  0.1415 -0.0935
23225W        W43505  16.135   9.310  13.125 -0.0935  0.1743  0.0225
23226W        W43506  10.943  11.968   4.315 -0.4337 -0.3566  0.0393
23227W        W43507   3.578   7.387  16.122 -0.0072 -0.0498 -0.1144
23228W        W43508   0.559  13.581   0.640  0.0117 -0.1423 -0.1073
23229W        W43509   1.746   7.498   0.457 -0.0803 -0.0214  0.0498
23230W        W43510  15.465   3.430  15.011 -0.0952  0.1317 -0.1713
23231W        W43511   4.704  11.775  14.913  0.1435  0.4442  0.2158
23232W        W43512  15.582   6.266  14.171  0.0390 -0.0338  0.2677
23233W        W43513   8.717   9.042   1.405 -0.0907  0.0922 -0.3131
23234W        W43514   7.529  10.492   5.191 -0.0025  0.2094  0.0065
23235W        W43515   5.405   1.072   1.868  0.0013 -0.0816 -0.1645
23236W        W43516   9.982  15.994  12.925 -0.2950  0.0046  0.1330
23237W        W43517   8.084   7.431  13.130 -0.1053  0.1404 -0.1522
23238W        W43518  12.241   4.290  13.557 -0.2340 -0.3460 -0.0792
23239W        W43519   1.299  17.779  14.316 -0.2857  0.0676 -0.0895
23240W        W43520  13.234  10.003   0.189  0.0912  0.0027  0.3022
23241W        W43521  12.688   9.093  13.213  0.2557 -0.1675 -0.1541
23242W        W43522  14.436   7.060   0.224 -0.0565  0.1461  0.1657
23243W        W43523  13.453   7.067  11.409 -0.3952  0.1922 -0.0224
23244W        W43524   6.244   1.324  15.778  0.2710 -0.1779  0.0625
23245W        W43525   1.564   6.329   3.506 -0.2281 -0.1154 -0.1297
23246W        W43526   9.587   6.640   3.930  0.2528 -0.0405 -0.0178
23247W        W43527  17.926   7.391   3.190  0.0173  0.2183 -0.4204
23248W        W43528   8.944  17.868   3.750  0.0187  0.0957 -0.0336
23249W        W43529   4.308  17.867  14.344 -0.1289 -0.2405 -0.1898
23250W        W43530   1.521   2.538  15.482  0.0112 -0.2216 -0.4113
23251W        W43531   3.996  13.145  14.073  0.0008  0.3860 -0.0703
23252W        W43532  15.328   8.616   2.179  0.1391 -0.3464 -0.0936
23253W        W43533  13.024   4.542  11.841 -0.0029  0.0149  0.0504
23254W        W43534  12.379  12.769  15.770  0.4557  0.1182 -0.1133
23255W        W43535   5.167   6.303  13.707 -0.0308 -0.0113  0.4520
23256W        W43536   5.860  16.425  13.862 -0.3387  0.0769 -0.2114
23257W        W43537   9.611   8.882   4.079 -0.2263  0.0236 -0.0169
23258W        W43538   0.244   9.409  16.686 -0.0388 -0.3141  0.1808
23259W        W43539   1.862   7.354  14.404  0.1076  0.0722  0.0743
23260W        W43540  17.439  11.040  13.344 -0.0618 -0.1955  0.0245
23261W        W43541  16.130  13.592   0.695 -0.2097 -0.0533 -0.2560
23262W        W43542  12.621  16.125   3.629 -0.0651 -0.2956 -0.1474
23263W        W43543   7.196  14.081   1.402  0.1165 -0.1325  0.1295
23264W        W43544  16.886   9.160  12.212 -0.0286  0.0578 -0.2385
23265W        W43545   0.438   7.725   3.173 -0.0784 -0.0816  0.3686
23266W        W43546   0.084   5.392  15.165  0.3009  0.1448 -0.2919
23267W        W43547  10.452   7.181  15.965 -0.2600 -0.3208  0.1665
23268W        W43548   2.949   8.483  11.534  0.0091  0.0244 -0.1092
23269W        W43549   3.574  16.591  15.310 -0.2019  0.1490  0.0212
23270W        W43550   2.127   2.075  13.589  0.0059  0.3919 -0.0876
23271W        W43551  13.398   5.268   0.597 -0.6926  0.1050 -0.0455
23272W        W43552  12.575   4.693   5.025  0.0191  0.0261  0.0215
23273W        W43553   0.759   6.375  14.016 -0.1451  0.0881  0.0766
23274W        W43554   6.292  11.858  14.454 -0.0443 -0.0701  0.1629
23275W        W43555  13.128  12.174  16.430  0.0159 -0.3497  0.1108
23276W        W43556   3.069   0.143  13.382  0.1050  0.0984 -0.0356
23277W        W43557  16.785   1.585  13.669  0.0454 -0.1949 -0.1854
23278W        W43558   2.263  11.759   0.864 -0.0371  0.0892 -0.1538
23279W        W43559  11.592  16.590  12.178  0.1810  0.1876 -0.0487
23280W        W43560  11.437   5.454  16.453 -0.1169  0.0208  0.1715
23281W        W43561   7.458   3.668   1.950 -0.3328 -0.0097  0.1941
23282W        W43562  15.194  16.641  12.421 -0.1935  0.5928  0.2232
23283W        W43563   5.776   3.590   0.166 -0.1681  0.0305 -0.1134
23284W        W43564   9.142   2.128   1.935  0.1211 -0.1542 -0.3934
23285W        W43565   0.725   5.340   2.933  0.0997 -0.0571 -0.1107
23286W        W43566  10.855  10.995  13.619 -0.0761  0.0546  0.0173
23287W        W43567  11.458   4.193   1.382 -0.1221  0.0111 -0.0942
23288W        W43568   4.435   3.719  16.578 -0.0250 -0.0293  0.0679
23289W        W43569  13.155  14.909  14.706  0.0623  0.1015 -0.0402
23290W        W43570   7.907   2.813   1.277  0.1030 -0.0972 -0.2052
23291W        W43571  12.549   5.361  13.194  0.1175 -0.2065 -0.0605
23292W        W43572   2.983  16.259   1.495  0.3027 -0.1088  0.1952
23293W        W43573  16.477  16.246   3.119  0.1091 -0.0682  0.1502
23294W        W43574   0.331   6.771   3.156 -0.0986 -0.0190  0.5551
23295W        W43575  10.786   6.306  16.190  0.0878  0.0140 -0.2703
23296W        W43576  10.173   3.686  13.527  0.0087 -0.2167 -0.1312
23297W        W43577   3.118   4.518   0.005 -0.1596 -0.2395  0.4118
23298W        W43578   3.447   9.680  14.074 -0.2096  0.0823 -0.1265
23299W        W43579  15.375  11.288   3.931  0.0799 -0.2171  0.1557
23300W        W43580   9.827   6.363  14.626 -0.2492 -0.1885 -0.0882
23301W        W43581   1.673   2.222   0.129  0.1987 -0.1035  0.0381
23302W        W43582  13.424   6.600   2.792 -0.0023 -0.1137 -0.1109
23303W        W43583  16.881   9.841   3.890  0.1777  0.3403  0.1326
23304W        W43584   6.050   6.233   0.318  0.1482  0.1395 -0.0473
23305W        W43585   9.933  15.646   1.442 -0.1628  0.3122 -0.0426
23306W        W43586   8.635   7.990  15.639 -0.0017 -0.1917  0.2433
23307W        W43587   2.609   1.705   0.644  0.1801  0.0451  0.0339
23308W        W43588  11.484  12.666  14.089 -0.2873  0.1901  0.0571
23309W        W43589   9.517  10.404   0.051  0.1486 -0.1241  0.1596
23310W        W43590  10.218  12.446   2.916  0.0306 -0.0411 -0.3497
23311W        W43591   0.547   7.005   3.788 -0.0676  0.0548  0.1411
23312W        W43592  13.659   1.570  14.616 -0.1107 -0.1631  0.0861
23313W        W43593   0.493  12.261  12.095  0.2317 -0.3046 -0.1279
23314W        W43594  16.962   0.014   4.200  0.2270 -0.1246  0.2256
23315W        W43595  10.499   2.744  14.045  0.0346  0.3292 -0.0408
23316W        W43596  16.208   0.672  12.074  0.0465  0.5295  0.0445
23317W        W43597  13.803   5.702   1.882 -0.2656  0.0072  0.1170
23318W        W43598   4.683  15.222   0.907  0.1001  0.0670  0.0668
23319W        W43599  16.811   5.934   4.789 -0.1194 -0.2806 -0.0959
23320W        W43600   4.166   3.210  12.828 -0.2153  0.3249 -0.2049
23321W        W43601  17.386  12.421   1.187  0.2689 -0.0294  0.0872
23322W        W43602  13.983   4.793  14.391  0.1046  0.1895 -0.0661
23323W        W43603   5.629  15.314   4.655  0.1408 -0.2468  0.0815
23324W        W43604  15.532  11.354  15.442  0.0485  0.0132  0.1076
23325W        W43605   3.269  11.910  14.001 -0.0680 -0.1210  0.0198
23326W        W43606   6.653   7.261  13.378  0.1356  0.1129 -0.2107
23327W        W43607   5.051   5.708   2.105 -0.2066 -0.1084 -0.2466
23328W        W43608  16.275  12.512   1.493 -0.3392  0.1342  0.0026
23329W        W43609   0.742   4.728   2.321  0.0898 -0.0822  0.0363
23330W        W43610   5.079  15.992   1.209  0.0964 -0.4263 -0.0127
23331W        W43611   6.520   2.012  16.565 -0.1092  0.0245 -0.0365
23332W        W43612  16.240  11.465   0.283  0.0423 -0.0543 -0.2051
23333W        W43613   7.897  15.629   1.968  0.0549 -0.2407  0.1863
23334W        W43614  15.831  12.732   3.729 -0.0744  0.0967 -0.2320
23335W        W43615  13.435  12.045  11.914 -0.0348 -0.0276 -0.3043
23336W        W43616   4.097  10.834  12.805  0.0725 -0.3586  0.0092
23337W        W43617   1.037   9.791  15.807 -0.0152 -0.0169  0.2289
23338W        W43618   1.714  15.956   0.420  0.0765 -0.1025 -0.0221
23339W        W43619   8.112   2.997   2.910 -0.0309  0.1217  0.1217
23340W        W43620  10.666  10.486   0.646 -0.3907  0.0055  0.2037
23341W        W43621  14.609   4.099  11.603  0.4013  0.0313 -0.0968
23342W        W43622   4.976   2.761   3.700 -0.3017 -0.0115 -0.2294
23343W        W43623   9.314  16.432  16.034 -0.1375 -0.2899 -0.1707
23344W        W43624   4.118   5.033  14.867 -0.1449 -0.2344  0.2479
23345W        W43625  13.601   5.906  13.365  0.2618 -0.1585 -0.2438
23346W        W43626   6.983  13.382   4.157 -0.0764  0.0319  0.0155
23347W        W43627   6.351   0.576  14.277 -0.1624 -0.0528 -0.0421
23348W        W43628  10.598   0.553  13.599  0.1530 -0.0780 -0.3036
23349W        W43629   5.002  14.164   2.462 -0.0835  0.0156  0.1362
23350W        W43630  10.686  16.433   2.564  0.0098  0.1220  0.0003
23351W        W43631  12.177  13.158  16.056  0.0121 -0.0527  0.0900
23352W        W43632  12.636   9.746  15.722 -0.1197  0.2775  0.0651
23353W        W43633  10.338  17.680  16.254  0.2480 -0.2437  0.1467
23354W        W43634   9.958  10.093  14.702 -0.2995 -0.1062  0.1385
23355W        W43635   3.806   4.183   1.039  0.0541  0.0399  0.3324
23356W        W43636  10.062   5.676   3.949  0.0884  0.2275  0.2999
23357W        W43637   4.432   4.449  13.901 -0.3236  0.1486 -0.0454
23358W        W43638   4.796   0.758   4.164 -0.1282  0.0297  0.1509
23359W        W43639   4.779  17.143  16.547  0.0030 -0.0822  0.1001
23360W        W43640   8.904  15.158   2.760  0.0127  0.0118  0.4019
23361W        W43641  11.822  14.215   3.976  0.1062 -0.0091  0.3732
23362W        W43642   3.201  12.202  15.279 -0.2440  0.0142 -0.0562
23363W        W43643   6.863  16.821   1.590  0.1783 -0.0014  0.0689
23364W        W43644   0.425  10.542   1.011 -0.2303  0.1993  0.1690
23365W        W43645  13.362   8.280  13.941  0.3085 -0.1168  0.3729
23366W        W43646   4.400  14.019  12.819 -0.0391  0.5738 -0.2886
23367W        W43647   6.703  15.876  15.394  0.1535 -0.0571 -0.0389
23368W        W43648  12.703   2.329  11.315 -0.1929  0.3440  0.1366
23369W        W43649   3.594   7.281   3.878 -0.0323 -0.0649  0.3238
23370W        W43650   8.616   0.261   0.479 -0.0259  0.1903  0.0871
23371W        W43651  13.556   8.335  12.964 -0.0090 -0.1073  0.1334
23372W        W43652  12.988   7.003  14.536  0.0470 -0.1375  0.0546
23373W        W43653   5.928  16.456   0.602  0.2675 -0.3938 -0.0732
23374W        W43654   8.340  17.306   4.142 -0.0921  0.0996 -0.3023
23375W        W43655  15.563  11.875   5.445  0.0653  0.0273 -0.1303
23376W        W43656  14.068  15.796   2.588  0.1574  0.0534 -0.2561
23377W        W43657  16.638   8.334  11.888 -0.3447 -0.1331  0.1964
23378W        W43658  16.391   8.629   3.384  0.0566 -0.3968  0.0972
23379W        W43659  13.559  15.793  13.251  0.1229 -0.1187 -0.1098
23380W        W43660  12.228   6.752  16.252 -0.1597  0.0024 -0.3059
23381W        W43661   3.632  16.101  15.477  0.0334 -0.0718  0.1456
23382W        W43662   3.247   2.272   2.449  0.2276  0.0191 -0.0435
23383W        W43663  16.277   2.559   3.420  0.0487  0.0673  0.0264
23384W        W43664   4.986  13.144  16.035 -0.0668 -0.0223 -0.4310
23385W        W43665   1.696   7.181  15.984  0.1846  0.2137  0.2598
23386W        W43666   9.882   7.003  15.359  0.0019  0.1544  0.0981
23387W        W43667   0.773  14.466  15.150 -0.3314  0.2083 -0.1332
23388W        W43668   4.391  17.118   3.883  0.3045  0.0313  0.1302
23389W        W43669   5.934  12.393   2.386  0.1090  0.4892  0.1545
23390W        W43670  14.307  12.965   3.975  0.0507  0.3512 -0.1341
23391W        W43671   3.013   6.240   2.215 -0.2263  0.1390 -0.0842
23392W        W43672   0.095   7.028  16.692 -0.3154 -0.0510 -0.1358
23393W        W43673   8.978   0.995  15.221 -0.2430  0.2415  0.3164
23394W        W43674   9.640   3.094  13.682  0.1407  0.1498  0.1089
23395W        W43675   3.876  14.784   1.231  0.1835  0.0572 -0.1292
23396W        W43676   2.813   6.149   0.034 -0.1313  0.1655 -0.2163
23397W        W43677   3.825  14.716   3.390 -0.0782  0.3205 -0.0495
23398W        W43678  11.235   5.058   4.317  0.2632  0.1169  0.0312
23399W        W43679   0.307   5.529  14.007  0.1424  0.0450  0.0840
23400W        W43680   3.586  11.998   0.622  0.2494 -0.0755 -0.1962
23401W        W43681  10.596   3.613  14.442 -0.2880 -0.0902 -0.4392
23402W        W43682  12.138   9.791  13.316 -0.1201 -0.1763  0.1379
23403W        W43683  11.131   4.949   3.828  0.0492 -0.1359  0.0232
23404W        W43684   5.807  15.170  15.471 -0.2646 -0.2251  0.1233
23405W        W43685   2.875   5.277  15.340  0.2785  0.2267 -0.2829
23406W        W43686  10.322  14.647  14.508 -0.1016  0.0235  0.1487
23407W        W43687   0.818   1.250   1.073 -0.0503  0.3071 -0.0204
23408W        W43688   1.602   6.826  12.326 -0.1733 -0.4029 -0.0302
23409W        W43689   3.049  14.504  13.069  0.1336 -0.0776  0.1382
23410W        W43690   4.256  14.316  12.061  0.3045 -0.0903  0.0073
23411W        W43691   0.583   3.774  15.895  0.1539 -0.1940 -0.2241
23412W        W43692  12.172  14.988  15.643 -0.0255  0.2367  0.0747
23413W        W43693  11.349   9.112   4.136 -0.0633  0.0570  0.1532
23414W        W43694  16.452   5.785  13.437 -0.0591  0.3805  0.1011
23415W        W43695  16.215   6.934  13.239 -0.2502 -0.0960  0.2726
23416W        W43696  10.799  14.407  13.248  0.0783 -0.1471 -0.1584
23417W        W43697  16.409   6.836  14.778 -0.0736 -0.1296 -0.0775
23418W        W43698  15.619   0.741  12.734 -0.1365  0.1520  0.0994
23419W        W43699  17.236  17.544   0.773  0.1103  0.1776 -0.1913
23420W        W43700   0.156   7.388  14.848  0.0180  0.0952  0.0914
23421W        W43701  14.310   9.527  12.254 -0.0839  0.1437  0.3440
23422W        W43702  13.176  16.380   3.648  0.0377 -0.1112 -0.1146
23423W        W43703  11.357   1.778  16.343  0.0050  0.1233  0.1091
23424W        W43704  12.675  11.054   2.291 -0.1609  0.0140  0.1851
23425W        W43705  12.945  13.097  15.142  0.0506  0.2210 -0.0657
23426W        W43706  12.114  16.692  12.234  0.0002  0.1467 -0.0267
23427W        W43707  10.970   2.013  11.791  0.1427  0.2062 -0.0658
23428W        W43708  15.071  15.047   2.833  0.1616  0.0817  0.0398
23429W        W43709  16.890  13.644  12.606 -0.0957 -0.1251 -0.3010
23430W        W43710  13.443  12.075   4.399  0.1473  0.0742  0.2294
23431W        W43711   7.045  11.811  16.233 -0.2421  0.1433 -0.0759
23432W        W43712   8.475   1.523   0.668  0.4314  0.0496 -0.2999
23433W        W43713   9.140  12.967   5.691 -0.2822 -0.0659 -0.1681
23434W        W43714  16.342  15.612  14.172  0.0427 -0.0843 -0.0042
23435W        W43715   6.617   6.710   4.689  0.2562  0.0942 -0.0362
23436W        W43716  12.204   2.304   3.447  0.0518  0.1196  0.1315
23437W        W43717  16.698  17.196  12.949 -0.2601 -0.0683 -0.0253
23438W        W43718  12.317   2.545   3.826  0.1833 -0.2392  0.1090
23439W        W43719   4.117  10.251   3.809  0.2720  0.0780 -0.1337
23440W        W43720   5.700   7.873  15.318  0.2162  0.4293 -0.0729
23441W        W43721   5.702   1.463   1.646  0.2230 -0.0641  0.4089
23442W        W43722   8.895  11.715  12.856 -0.0286  0.0469  0.2662
23443W        W43723  12.787  11.392   2.629  0.0980  0.2655 -0.0087
23444W        W43724  17.821   6.265   2.606  0.3487  0.0599 -0.2609
23445W        W43725  16.531   4.788  13.704  0.2827  0.3354 -0.1266
23446W        W43726  10.799  10.244  15.209  0.0590 -0.1725 -0.0795
23447W        W43727   3.801   5.866   4.063 -0.0214 -0.3196  0.1040
23448W        W43728   5.859  11.847   3.522 -0.3648  0.1614 -0.2048
23449W        W43729  15.060   7.393  12.651 -0.0056 -0.2752  0.4127
23450W        W43730   9.879   6.660   0.490 -0.0753 -0.1355  0.2372
23451W        W43731   2.868   0.751   1.170 -0.1785  0.1087 -0.0230
23452W        W43732  16.242   6.230  10.858  0.0419  0.0564  0.0208
23453W        W43733  12.278   7.440  15.743  0.0920 -0.1450 -0.0996
23454W        W43734  12.980  15.938   3.279 -0.1679 -0.0652  0.1862
23455W        W43735  10.750  12.001  16.128  0.0674 -0.3714  0.1120
23456W        W43736  17.072   3.366  13.780 -0.1372  0.0400 -0.1021
23457W        W43737  10.428   5.678  13.614 -0.0599 -0.0350  0.3018
23458W        W43738  17.824   9.561  16.076  0.0189  0.0098  0.1000
23459W        W43739  10.677   7.711   3.778 -0.0023 -0.0878  0.0532
23460W        W43740   7.940  15.105  13.970 -0.4714 -0.0127  0.2061
23461W        W43741  10.405   3.166   1.207  0.0412 -0.0900  0.2116
23462W        W43742  14.208  11.435   3.439 -0.0918 -0.3069  0.1983
23463W        W43743   7.511  11.268   3.271  0.1209 -0.2361  0.1002
23464W        W43744   4.181  11.066  15.184  0.0819  0.0026 -0.0753
23465W        W43745   0.365   7.606  12.999  0.1600 -0.0531 -0.0854
23466W        W43746  17.787   8.810   1.292 -0.1238  0.0823 -0.0481
23467W        W43747  11.817  16.738  15.105  0.0032  0.1632  0.1651
23468W        W43748   5.665  11.003  14.490  0.0209 -0.1462  0.0875
23469W        W43749   0.260  15.185  13.845  0.0606 -0.1714  0.0290
23470W        W43750   7.628   0.015   2.289  0.1721  0.1561 -0.2334
23471W        W43751  15.389   8.836   2.633  0.0002  0.1502  0.1289
23472W        W43752  16.539   6.306  13.423 -0.0074  0.1605  0.1550
23473W        W43753  13.336   6.125   4.914 -0.0189 -0.1250  0.2009
23474W        W43754   5.803   4.716  14.158 -0.1550 -0.1539  0.0494
23475W        W43755   7.909  14.372   2.604  0.0249  0.0504 -0.0802
23476W        W43756   2.551  10.083   5.781 -0.3839 -0.1992  0.0728
23477W        W43757  16.591   7.732   3.115 -0.2245  0.1294  0.0721
23478W        W43758   9.749   0.521  15.900 -0.1599 -0.2109 -0.0316
23479W        W43759  17.272   6.791  15.972  0.1550 -0.1369 -0.1577
23480W        W43760   5.362  11.891   4.505 -0.1773  0.0791  0.0689
23481W        W43761   0.795   1.367   4.661  0.2404 -0.3207  0.0486
23482W        W43762   5.274  17.037   3.559  0.3570  0.4704  0.0089
23483W        W43763  17.715   4.744  12.576 -0.2157 -0.0133 -0.0973
23484W        W43764   5.304   5.729  15.903 -0.2666  0.2198 -0.0788
23485W        W43765  16.400   1.943   3.249  0.2215 -0.1961 -0.0598
23486W        W43766  11.986   9.771   4.355  0.2801 -0.3403 -0.2908
23487W        W43767  15.597  17.244   4.576 -0.1489 -0.3035 -0.0538
23488W        W43768  12.661   3.388   4.730 -0.1686  0.1087 -0.1211
23489W        W43769   5.513   0.467  12.137 -0.0428 -0.1443 -0.1419
23490W        W43770  12.122   7.242   4.693  0.3576 -0.2395  0.0303
23491W        W43771   4.170   2.990   4.723  0.0191 -0.3332 -0.1110
23492W        W43772  10.516   2.846   2.907 -0.1572  0.1191 -0.2868
23493W        W43773   4.069  13.966   2.173 -0.0535 -0.2333 -0.6014
23494W        W43774   6.146   1.355   0.567 -0.2216 -0.0664  0.2124
23495W        W43775  17.541   8.632   3.349 -0.2482 -0.1815  0.2253
23496W        W43776   4.303  15.233   4.111 -0.1442 -0.0661  0.2146
23497W        W43777   7.517  13.956   1.749 -0.0475  0.1586  0.3553
23498W        W43778  12.497  10.231   3.384 -0.0112 -0.4762  0.0915
23499W        W43779   3.143   2.479  15.687 -0.2045 -0.0018  0.1066
23500W        W43780  13.125  17.068  13.883  0.0133  0.1253 -0.0174
23501W        W43781   3.551  11.949   5.478 -0.1382 -0.0447  0.1179
23502W        W43782   7.019  11.217  12.518  0.0465 -0.0844 -0.0127
23503W        W43783   1.744   0.397   3.953  0.0608  0.0434  0.4323
23504W        W43784   4.336  10.884   2.768 -0.2846  0.1245  0.0761
23505W        W43785  10.150   9.613  14.891  0.3589  0.1550  0.0185
23506W        W43786  13.285   3.435  15.606 -0.1588  0.1566  0.1762
23507W        W43787  13.341  16.382   2.075  0.0281  0.1885  0.0316
23508W        W43788  16.633   9.411  15.898 -0.1686 -0.5662  0.2479
23509W        W43789   1.099  15.315   3.684 -0.2197  0.0295  0.0378
23510W        W43790   6.669  13.106   0.194 -0.2427 -0.1400  0.3098
23511W        W43791  11.427  14.975   2.973 -0.0994  0.2774 -0.0551
23512W        W43792  16.268   3.365  15.697 -0.3277 -0.1563  0.1025
23513W        W43793   8.133   2.903  14.478  0.0338 -0.3365  0.1193
23514W        W43794   8.113  15.772  12.775 -0.0472 -0.2447  0.1019
23515W        W43795  12.147   5.538  12.485  0.2726  0.0958 -0.0106
23516W        W43796  15.687  13.572   0.185 -0.2289 -0.0734 -0.2501
23517W        W43797   7.242  16.111   4.631  0.3807  0.2583  0.0473
23518W        W43798   1.437   2.650   2.047  0.3508  0.1589  0.0658
23519W        W43799  16.385   1.437  16.260  0.0351 -0.1651 -0.0051
23520W        W43800   4.117   2.526   4.916  0.2265  0.1704 -0.0137
23521W        W43801   2.926   7.022   0.220 -0.3592  0.0208 -0.2929
23522W        W43802   9.122  16.725  14.740  0.0335 -0.2251  0.3770
23523W        W43803   3.849   2.088  15.211 -0.1682 -0.1569 -0.0498
23524W        W43804   1.519   1.769  16.047 -0.0348  0.2506 -0.4119
23525W        W43805   5.288   6.737  13.291 -0.0611  0.2133  0.1221
23526W        W43806  12.415   9.273  12.705  0.1354  0.0254 -0.2550
23527W        W43807   5.203   4.188  12.074  0.0130 -0.0184  0.0792
23528W        W43808   6.443   5.929   1.404 -0.0578 -0.0435  0.0395
23529W        W43809   8.440  10.577  11.036  0.3684  0.0797  0.0256
23530W        W43810  11.884   0.808  13.351  0.2780 -0.1400  0.0475
23531W        W43811   6.412   5.381  15.294  0.2576 -0.2057 -0.0038
23532W        W43812  10.507  16.360  12.590  0.2196 -0.1709  0.1241
23533W        W43813  15.526   3.857  13.272  0.1515  0.1792 -0.0662
23534W        W43814  13.633   1.011  11.892 -0.2061 -0.3088 -0.1844
23535W        W43815   8.470   7.223   4.894  0.0184 -0.1455 -0.4569
23536W        W43816  15.853   1.535   2.073  0.2748 -0.0989  0.2477
23537W        W43817   9.343  11.346  14.890 -0.2758  0.1026  0.1269
23538W        W43818   2.062   7.863  15.535  0.1189 -0.0536  0.0444
23539W        W43819   4.353   9.888  14.519 -0.0018  0.0510  0.0276
23540W        W43820   3.988  15.243   1.645 -0.1110 -0.4182 -0.2463
23541W        W43821   0.197   6.009   2.343 -0.0740 -0.4595 -0.0135
23542W        W43822   1.365   8.933  12.566  0.2514  0.4383  0.2809
23543W        W43823  14.022  11.489   0.702 -0.0487  0.3146  0.0148
23544W        W43824  11.610  10.465  12.957 -0.1259  0.0906  0.3072
23545W        W43825   1.829   2.129  16.238  0.2685  0.2834 -0.2564
23546W        W43826  15.935   7.380  13.371  0.0332  0.2573 -0.2093
23547W        W43827   1.003  10.465   3.489 -0.1629 -0.0001 -0.1215
23548W        W43828   9.373   8.392  14.569  0.3032 -0.3032  0.0181
23549W        W43829  12.874  10.102   4.805  0.1248 -0.1338  0.2686
23550W        W43830  12.560  16.989   4.441  0.1449 -0.0236 -0.0348
23551W        W43831  13.113   3.965  11.950 -0.1706 -0.2785 -0.2363
23552W        W43832  10.203  13.675   4.420  0.1761 -0.0080 -0.0083
23553W        W43833   2.831   5.730   5.822 -0.1844  0.1018  0.0907
23554W        W43834  12.922  17.660  11.744  0.0272 -0.0204  0.1170
23555W        W43835   0.245  10.166   4.582  0.0399 -0.0496 -0.1871
23556W        W43836  17.464  12.929  13.412 -0.1879  0.1701  0.3684
23557W        W43837   8.918   0.489  16.454  0.1369 -0.1564  0.1925
23558W        W43838   7.351   6.260   2.096  0.4023  0.2200 -0.1842
23559W        W43839  13.370  14.542  13.751  0.2557  0.0095  0.2583
23560W        W43840   8.847   9.935   4.378 -0.0109  0.1852 -0.0008
23561W        W43841   0.488   4.317   3.165  0.3327 -0.0070 -0.2528
23562W        W43842  11.107  12.399   2.556  0.1385 -0.1441  0.1522
23563W        W43843   7.903   5.564  13.199 -0.0121  0.0448 -0.0767
23564W        W43844   6.278  12.280   4.412 -0.3133  0.2372  0.1585
23565W        W43845  12.762  16.827   0.375  0.2049 -0.0999 -0.1231
23566W        W43846   9.931  12.136  14.450 -0.1807  0.0252 -0.0759
23567W        W43847   7.288   3.494   4.365 -0.0423  0.1131  0.0812
23568W        W43848  12.096   4.131   1.295  0.2282  0.1438  0.0227
23569W        W43849   1.027   8.104   3.857 -0.0694 -0.0566  0.0108
23570W        W43850   6.650   2.960  14.126  0.0141 -0.0112 -0.2992
23571W        W43851  11.912   3.560  11.601  0.1079 -0.1824  0.1001
23572W        W43852   8.987   4.115   1.947 -0.1913  0.0503 -0.1479
23573W        W43853   8.606  12.320   4.621 -0.5383  0.0310 -0.0604
23574W        W43854   9.647   0.061   2.439  0.1821  0.0951 -0.1951
23575W        W43855   6.597   3.672  15.046 -0.2817 -0.4321 -0.0408
23576W        W43856  15.247   3.055   4.640 -0.1166  0.7012 -0.0935
23577W        W43857  11.388   7.752  13.489 -0.0882 -0.0194  0.0868
23578W        W43858   2.981   6.215  14.356  0.0003 -0.1720 -0.1285
23579W        W43859   2.514  15.609   2.045  0.0169 -0.1120 -0.0358
23580W        W43860  16.759   1.442   0.887  0.0141  0.0494  0.2288
23581W        W43861  15.132  12.658  14.629 -0.0124  0.1157  0.2626
23582W        W43862   9.382   4.742  11.887  0.0252 -0.3306  0.1280
23583W        W43863   5.609   6.962  15.091  0.2128  0.0651 -0.1891
23584W        W43864  15.052   3.122   3.858  0.3955 -0.1855 -0.2347
23585W        W43865   6.227  11.280   1.297 -0.2419  0.0366  0.3293
23586W        W43866   3.014  12.251  15.726  0.0145 -0.4551 -0.3067
23587W        W43867  14.599   4.521  13.037  0.1200 -0.0482  0.0835
23588W        W43868   7.357   9.392   1.545  0.0841  0.3484  0.2143
23589W        W43869  10.041   1.489   4.546  0.0190  0.0039 -0.0079
23590W        W43870  17.534   3.382  15.514 -0.1055 -0.2045  0.2053
23591W        W43871   6.343  11.762   1.344  0.0505 -0.4009 -0.0573
23592W        W43872  14.976   7.132   0.864  0.0659  0.0254  0.1656
23593W        W43873   6.895  13.948  12.587 -0.1054  0.0721 -0.1752
23594W        W43874   4.510   0.745  15.911 -0.0918 -0.1719  0.2362
23595W        W43875   3.454   9.492  15.479  0.2408  0.0610 -0.0974
23596W        W43876  11.176  16.740   5.266 -0.4433  0.0236 -0.0708
23597W        W43877  17.036   2.630   4.911  0.0806 -0.2734 -0.2251
23598W        W43878   5.474   1.848   1.398 -0.3218  0.0209  0.0575
23599W        W43879   5.553   7.257   3.074  0.0510  0.1098 -0.1492
23600W        W43880  11.774  16.017   0.890 -0.1098  0.1112 -0.0379
23601W        W43881  17.320   3.038  15.821 -0.1373 -0.0281 -0.1582
23602W        W43882  17.087   0.187  16.281  0.0251 -0.0136  0.0488
23603W        W43883   9.145  14.499  12.975 -0.3553  0.1098 -0.0189
23604W        W43884  10.812   7.133   0.292  0.0951 -0.0273  0.3759
23605W        W43885  13.906  16.054   2.157  0.1403 -0.2536 -0.0717
23606W        W43886   1.026   5.692  15.191 -0.0798  0.1724 -0.0661
23607W        W43887  12.742   2.244   0.794 -0.0167 -0.2407  0.0642
23608W        W43888   6.521  16.282  14.124 -0.0471 -0.2101  0.0159
23609W        W43889   5.179   0.199  12.890 -0.1533 -0.0085  0.0725
23610W        W43890  15.142  17.398  15.125  0.2291 -0.0835  0.0489
23611W        W43891  13.061  11.016  16.074  0.2090 -0.0159 -0.0538
23612W        W43892   5.578   9.731  12.930  0.0919  0.2460  0.2343
23613W        W43893  17.012   2.065  12.234  0.0898 -0.6566  0.1316
23614W        W43894  16.860   3.793  16.242 -0.0440  0.0194  0.4043
23615W        W43895  14.558   3.189   1.394 -0.1073  0.2247  0.0755
23616W        W43896  10.274  17.711  12.937 -0.0354 -0.1388  0.0029
23617W        W43897   6.785   1.983   1.423 -0.1071 -0.0423  0.2066
23618W        W43898   3.360   4.639   3.631 -0.2937  0.0265  0.3085
23619W        W43899   2.594  11.133   5.623 -0.3319 -0.0920  0.2398
23620W        W43900   5.428  10.748   4.097 -0.2345  0.0597 -0.0281
23621W        W43901   7.409   2.650   4.120  0.2295  0.1448  0.0276
23622W        W43902   3.253   5.066   3.871  0.0782 -0.1501  0.0688
23623W        W43903   9.374   3.049  16.090 -0.2614 -0.0606  0.2272
23624W        W43904   5.233   9.101   2.445  0.0821  0.1569  0.3141
23625W        W43905  11.389  14.417  15.510  0.1233 -0.1072  0.0202
23626W        W43906   6.384   7.679  14.216 -0.0384  0.0262 -0.0392
23627W        W43907  10.317   8.669  13.501  0.2721 -0.0478  0.0220
23628W        W43908  14.103   3.693  15.591 -0.0652  0.2828  0.1010
23629W        W43909   7.468  13.652  13.801  0.1099 -0.0408  0.0860
23630W        W43910  11.020   3.284  15.049  0.0505  0.1177  0.1349
23631W        W43911   2.267   1.633   4.215  0.0475 -0.1341  0.0792
23632W        W43912   4.003   8.725   0.880 -0.2531 -0.1473  0.2759
23633W        W43913   6.973  16.577  14.348  0.1508  0.1812 -0.0508
23634W        W43914   8.280  14.469  12.493 -0.0921 -0.2438  0.1718
23635W        W43915   9.625   8.168   4.698  0.2062 -0.1023 -0.1944
23636W        W43916  12.190  10.577  14.560 -0.0978  0.1239  0.1214
23637W        W43917   6.798   7.813  15.450  0.1208 -0.1144 -0.0102
23638W        W43918   0.115  15.800   4.574  0.0882  0.1042 -0.0134
23639W        W43919  16.262  17.331  15.481 -0.0885  0.0909  0.0651
23640W        W43920   0.941  11.097  12.217  0.1964 -0.1254  0.2215
23641W        W43921   6.422  17.753   0.158 -0.2029  0.2154  0.1855
23642W        W43922   1.195  12.518  16.112  0.0300  0.1512  0.1878
23643W        W43923   9.262   2.213   3.127 -0.0220 -0.0049  0.3796
23644W        W43924   7.936  14.763  13.579  0.1322 -0.2118 -0.1200
23645W        W43925  13.752   9.857  16.110  0.0205  0.2063  0.0253
23646W        W43926  16.852  11.653  12.891  0.1831  0.0670 -0.3255
23647W        W43927   6.674  16.197  14.622  0.3840 -0.0361  0.1532
23648W        W43928   2.716  13.110   2.239  0.3376 -0.1036  0.0707
23649W        W43929   6.119   2.637   1.032  0.1080  0.0661 -0.0038
23650W        W43930   1.190  15.236   0.527  0.2534 -0.1113 -0.1073
23651W        W43931   7.896  10.747  12.757  0.0035 -0.1226  0.1857
23652W        W43932   2.586   7.585  16.346 -0.3135 -0.1092 -0.1909
23653W        W43933  13.579  15.765  15.117  0.0289 -0.1072 -0.2530
23654W        W43934  12.408  11.165  13.321 -0.0340 -0.0549 -0.0994
23655W        W43935  11.677  11.047  14.660  0.1036 -0.0411 -0.2437
23656W        W43936  12.352  15.205   0.739  0.0774 -0.2773 -0.0378
23657W        W43937   0.062   4.584  12.085 -0.0996  0.1233 -0.0338
23658W        W43938  10.455  11.152  15.193  0.0042 -0.2804  0.2130
23659W        W43939  17.742   1.390  15.185  0.0467 -0.1377 -0.3958
23660W        W43940  15.939   1.870   3.453  0.3853 -0.1569 -0.5019
23661W        W43941   6.422   6.234  14.225  0.0765 -0.1635 -0.2172
23662W        W43942  12.796  11.173   3.071  0.3384  0.1747 -0.2037
23663W        W43943   5.319   4.584  14.382  0.1854  0.0123  0.1733
23664W        W43944   4.882   6.356  11.882  0.2250  0.0424 -0.0085
23665W        W43945  17.070   0.202  13.837  0.2846 -0.3968  0.0746
23666W        W43946  13.449   3.602   3.276 -0.3030  0.0564 -0.0553
23667W        W43947   1.271  14.822   4.318 -0.1416  0.2448  0.0107
23668W        W43948  12.609   5.292   2.933  0.2789 -0.0813 -0.0646
23669W        W43949   6.678  17.817   3.368  0.0328  0.0221  0.1190
23670W        W43950   4.933  15.666  15.925  0.0483  0.1033 -0.2379
23671W        W43951  13.868   6.731   2.548  0.2372 -0.0489  0.0047
23672W        W43952  14.864   2.682   0.378 -0.1105 -0.0509 -0.1634
23673W        W43953   9.787  15.920   1.057 -0.2265 -0.1704 -0.1395
23674W        W43954  16.497   9.663  12.988 -0.1779 -0.1176  0.0594
23675W        W43955   6.690   0.499   2.066 -0.0118  0.1297 -0.0362
23676W        W43956   5.275   7.909  16.137  0.1045  0.1391 -0.1762
23677W        W43957  15.458   2.176   2.573  0.1006 -0.1875  0.1638
23678W        W43958   7.436  16.257  14.013  0.1158  0.1404 -0.1154
23679W        W43959   3.719   2.376   3.996  0.1721  0.1561  0.1887
23680W        W43960   2.648  11.983  12.378  0.2742  0.1540 -0.0798
23681W        W43961   7.151   4.433  14.127 -0.2241 -0.3524 -0.4002
23682W        W43962  11.832  10.580   1.559 -0.0321  0.1871  0.0910
23683W        W43963   9.450   8.065   0.647 -0.0022 -0.3261 -0.3129
23684W        W43964  15.554  17.698  15.185  0.0881  0.1398 -0.2216
23685W        W43965   3.937   2.081   4.813 -0.1906  0.0417  0.1883
23686W        W43966  16.815   1.573  11.885 -0.2330 -0.0333  0.0620
23687W        W43967   8.688   6.867   2.648  0.3064  0.1219  0.0762
23688W        W43968  13.451  10.423  13.205 -0.0924 -0.3103 -0.1470
23689W        W43969   9.821  15.159   4.881  0.2915  0.1423  0.0622
23690W        W43970  15.204   0.338   0.447 -0.0707  0.0593  0.1072
23691W        W43971  14.619   4.706  15.132 -0.1157  0.0600  0.2945
23692W        W43972   4.026  14.141   2.778  0.1027 -0.1849 -0.0446
23693W        W43973   3.282   2.357  15.256 -0.0385  0.1204  0.1110
23694W        W43974  11.778  13.711   0.199  0.1427  0.2572  0.1969
23695W        W43975   9.437   9.509  15.221 -0.5042  0.3083  0.0624
23696W        W43976   5.752   5.950   0.957  0.2347 -0.4306  0.2273
23697W        W43977  12.571   2.012   3.427  0.1085 -0.0578 -0.1680
23698W        W43978  12.087  12.037  15.021 -0.0249 -0.2248  0.2533
23699W        W43979  17.965   4.322  12.632 -0.0579 -0.0531  0.0455
23700W        W43980   5.242   3.799  14.475 -0.2871 -0.0484  0.0978
23701W        W43981  12.906   9.629   3.912 -0.0296 -0.2875 -0.3880
23702W        W43982  10.757   3.070  12.567 -0.3318 -0.1441  0.0825
23703W        W43983  13.508   0.898  13.737 -0.2904 -0.2698 -0.0272
23704W        W43984   3.342  12.538  13.476 -0.0743 -0.2557  0.0170
23705W        W43985   6.093   4.504  12.161  0.2283  0.0697  0.2171
23706W        W43986   4.787  15.142   0.117  0.0126 -0.0993 -0.0247
23707W        W43987   7.823  12.484  12.790 -0.2141  0.3839 -0.1351
23708W        W43988   9.396  17.609  12.051  0.1705 -0.0086  0.5304
23709W        W43989  13.687  16.061   4.435 -0.0510  0.0395 -0.2339
23710W        W43990  12.812   7.234  12.887  0.2072  0.2602 -0.4656
23711W        W43991   6.340  15.092   5.131  0.0744 -0.0445 -0.2031
23712W        W43992   6.917   2.794  11.842  0.1394  0.0781  0.0551
23713W        W43993  15.784  10.358  15.393 -0.2861 -0.5843 -0.2812
23714W        W43994   2.509   6.409   3.185 -0.3052  0.3101 -0.1020
23715W        W43995   6.343   6.903   5.626  0.0281  0.3009  0.1595
23716W        W43996  15.449  14.896  15.456 -0.0596 -0.0819 -0.1353
23717W        W43997   2.496   2.578  14.176 -0.1220 -0.0768  0.4508
23718W        W43998   2.138  12.219   0.531 -0.3713 -0.1078  0.0861
23719W        W43999  17.716  16.007  13.638  0.1164  0.1493 -0.0992
23720W        W44000  11.658  11.697  14.068  0.2154  0.1661  0.0490
23721W        W44001   8.706   4.191  15.503  0.2597 -0.0642 -0.1903
23722W        W44002  13.361  11.798  12.348 -0.1657 -0.2314  0.0029
23723W        W44003  10.825   5.458  15.583  0.2347 -0.2089  0.0861
23724W        W44004  13.761   4.393   2.927  0.0335  0.2362  0.1410
23725W        W44005  17.135   3.834   2.917 -0.2446  0.0558  0.0540
23726W        W44006  10.501   0.133  14.890  0.0814 -0.1424 -0.2292
23727W        W44007  16.253  13.364   3.349  0.0590  0.0342 -0.1334
23728W        W44008   6.314   0.537   0.505  0.2457  0.2497  0.1255
23729W        W44009  17.340  11.132   3.554 -0.0659 -0.2447 -0.2393
23730W        W44010  13.866   3.589  14.724  0.2165 -0.1436 -0.1541
23731W        W44011  15.466  12.980  13.455 -0.1565  0.2246 -0.1301
23732W        W44012   5.876  14.005   4.671 -0.0705 -0.1358 -0.0657
23733W        W44013  13.124   8.442   3.598 -0.2785  0.0773 -0.1483
23734W        W44014   5.689   9.457  12.409  0.0686 -0.0580 -0.0521
23735W        W44015   9.663   8.205   1.102 -0.0631  0.2291 -0.0269
23736W        W44016  10.291   6.327   2.140  0.1280 -0.2152 -0.2543
23737W        W44017   6.128   7.234  15.143 -0.0183 -0.1263 -0.1751
23738W        W44018   6.492   4.493   4.087 -0.2737  0.0096  0.0379
23739W        W44019   5.767  10.744  14.900 -0.2049  0.0130 -0.2393
23740W        W44020  17.858   7.923   3.036  0.0521 -0.1769  0.0509
23741W        W44021   1.496  15.995  15.680  0.1817 -0.0441  0.0569
23742W        W44022  15.186   5.700   4.272  0.0601  0.2917 -0.3391
23743W        W44023   0.061   4.981   4.416 -0.0318 -0.3086 -0.1494
23744W        W44024   2.177   6.927  14.412 -0.1597  0.1961  0.2590
23745W        W44025   1.448  12.292   4.918 -0.2645 -0.0679 -0.2952
23746W        W44026  16.258   9.016  15.972 -0.1833  0.2480 -0.3034
23747W        W44027   5.754  17.498  15.270  0.0985  0.1270  0.1416
23748W        W44028  14.398   3.264   4.519 -0.0396  0.3409 -0.0618
23749W        W44029  15.006   9.531   2.844 -0.1460 -0.2651  0.0968
23750W        W44030  17.310   0.460   4.710  0.3005 -0.2262  0.2747
23751W        W44031   1.691   1.116   3.259 -0.0682  0.1360  0.0038
23752W        W44032   2.244   7.524  12.248 -0.1076 -0.1621 -0.2706
23753W        W44033   9.925   0.064  12.090  0.2775  0.4232 -0.1989
23754W        W44034  15.188   4.337  15.930  0.2929  0.0778  0.1368
23755W        W44035   6.923   0.881  12.720 -0.1773 -0.0956  0.1060
23756W        W44036  15.646   3.545  11.821  0.0479  0.3471  0.3242
23757W        W44037   4.267   9.151  12.552  0.0827  0.1129 -0.0423
23758W        W44038   6.652  14.143  15.097  0.0729 -0.1734 -0.4225
23759W        W44039   3.319  13.300  14.706  0.1628 -0.0208  0.3123
23760W        W44040  11.850  14.256   2.502 -0.1375 -0.0526  0.3571
23761W        W44041  12.792   1.723  14.465 -0.2264 -0.2523 -0.3219
23762W        W44042  10.903  10.240   1.690 -0.0812  0.2127  0.2771
23763W        W44043  15.313  15.386   1.516  0.2398 -0.2655  0.2229
23764W        W44044   8.204   8.927  14.053 -0.0291 -0.2896  0.2417
23765W        W44045  16.316   5.463   1.568 -0.2358 -0.2334 -0.1356
23766W        W44046  10.968   1.631   0.014 -0.3036  0.1046  0.3375
23767W        W44047   4.311   3.023   2.827 -0.3427  0.2280 -0.2091
23768W        W44048   0.338   4.308  14.811 -0.1485 -0.1029  0.2641
23769W        W44049  11.494  11.627   2.235 -0.1342  0.0063  0.1374
23770W        W44050   6.652   6.505  12.616 -0.1348 -0.2284 -0.2531
23771W        W44051   5.833   0.400   0.296  0.0234 -0.0622  0.1910
23772W        W44052  16.469   9.176   1.963 -0.0670  0.1245 -0.1362
23773W        W44053  12.715  11.560   2.165  0.1778 -0.0405  0.0984
23774W        W44054  16.216   7.492  11.783 -0.1229  0.2888 -0.0648
23775W        W44055   9.584   3.192  11.301  0.0077 -0.1357 -0.0885
23776W        W44056   1.807   5.645   4.073 -0.0497 -0.2277  0.2856
23777W        W44057   8.004   7.523  15.449  0.2050  0.1793 -0.0001
23778W        W44058   7.372   2.656  16.626  0.4525  0.1641  0.0182
23779W        W44059  16.312   4.683  16.049  0.2470 -0.2875  0.0645
23780W        W44060  15.566   6.903   4.393 -0.1374  0.2989 -0.3673
23781W        W44061   5.180  13.378  15.305 -0.0385  0.1663 -0.0169
23782W        W44062   9.321   3.984  15.012  0.1076 -0.3868  0.1724
23783W        W44063  13.062   3.554  10.913  0.2504  0.2105 -0.1571
23784W        W44064   2.777   4.392  15.155  0.2320  0.0328 -0.0220
23785W        W44065  10.215   0.386  11.793  0.0869 -0.0362  0.1309
23786W        W44066  16.097  14.276  14.055  0.1181 -0.1161  0.1633
23787W        W44067  17.372   6.616  15.161  0.0424 -0.0917  0.1689
23788W        W44068   5.548   7.530  16.363 -0.5648  0.2940  0.2619
23789W        W44069  11.339   5.566   2.548 -0.0699 -0.2448 -0.2280
23790W        W44070   7.232   8.353   0.564  0.0690 -0.1254 -0.3775
23791W        W44071  10.426  17.773   3.802  0.2505 -0.1360  0.0303
23792W        W44072   6.145  11.016  14.643 -0.1269 -0.1201  0.0560
23793W        W44073  15.479   7.219  13.197 -0.1672  0.1493 -0.0530
23794W        W44074  17.608   4.935   1.555  0.0208  0.3794 -0.1486
23795W        W44075   2.119  12.279  16.366  0.1878  0.1967  0.0693
23796W        W44076  12.375  14.971  11.961  0.1313 -0.1560  0.0356
23797W        W44077   6.438   2.526  12.508 -0.0621  0.1096 -0.1079
23798W        W44078   0.623   0.807  13.145  0.0401  0.0917 -0.0544
23799W        W44079   6.023   8.576   1.309  0.0353  0.0743 -0.2387
23800W        W44080   4.481  16.580   3.799  0.2346  0.4116  0.1667
23801W        W44081   9.461  16.235  12.861 -0.2058  0.0038 -0.0684
23802W        W44082   4.579  17.785   1.028 -0.0578  0.4836 -0.1886
23803W        W44083  17.722  17.462  15.562  0.0811  0.1156 -0.2974
23804W        W44084  11.590  10.012   1.152  0.3053 -0.2448  0.0039
23805W        W44085   2.414  16.584   2.836  0.0432  0.0903  0.0418
23806W        W44086   6.971   7.133  14.523  0.2650  0.1686 -0.0668
23807W        W44087  17.138   3.107   3.808 -0.0140 -0.0723  0.2728
23808W        W44088   3.992  10.190  11.477 -0.1800 -0.0012 -0.0284
23809W        W44089   3.856   2.073   0.610 -0.1056  0.3483 -0.0632
23810W        W44090  13.611  13.181   0.969  0.1803  0.1511  0.5102
23811W        W44091  12.517  17.046  16.664 -0.3785 -0.0906  0.1632
23812W        W44092  14.787  12.674  15.000 -0.0814 -0.0504  0.0262
23813W        W44093  16.102   3.752   2.215  0.0358  0.1851  0.2093
23814W        W44094  17.247  13.051  12.549 -0.1796 -0.3724 -0.3619
23815W        W44095   4.126   4.432  12.185 -0.1659 -0.0899 -0.0331
23816W        W44096   1.732   5.634   2.700 -0.0158  0.0031  0.1486
23817W        W44097  10.620  12.623   1.710 -0.1587 -0.2658  0.1255
23818W        W44098  16.963   0.444  12.646 -0.0174 -0.2035 -0.1103
23819W        W44099  17.987   0.460  15.409  0.0117  0.1398 -0.0600
23820W        W44100   7.307  17.363   2.384  0.0234 -0.3751  0.0974
23821W        W44101  12.952   4.149  16.076  0.0347 -0.1989  0.0424
23822W        W44102   6.191  11.266  12.179 -0.1461 -0.4928 -0.0484
23823W        W44103   7.961  10.836  13.980  0.0729 -0.2458 -0.1622
23824W        W44104   3.291  16.933  13.720  0.0978 -0.3056 -0.0775
23825W        W44105  10.777   1.688  12.681 -0.1270 -0.1849  0.0960
23826W        W44106   4.288  10.262   0.503  0.0070  0.0140 -0.1699
23827W        W44107  13.097   6.568   0.654  0.0713  0.0589  0.1261
23828W        W44108   0.134   8.308   3.912  0.0010 -0.3095  0.0379
23829W        W44109  13.855   2.374  16.073 -0.2877  0.3034  0.0406
23830W        W44110   6.827  10.649  14.827  0.3060  0.1777 -0.0158
23831W        W44111   4.796   9.008  14.270  0.1005  0.1572  0.0109
23832W        W44112  15.857  12.301  14.340 -0.0924  0.0638 -0.1885
23833W        W44113  12.902   2.552  15.544  0.1598 -0.1529  0.2807
23834W        W44114   1.202  15.147  15.243  0.1347 -0.1309  0.2480
23835W        W44115  17.380  13.273   3.502  0.1042 -0.1686 -0.1007
23836W        W44116  10.172  14.929   4.602  0.1577  0.1643 -0.0570
23837W        W44117   5.058  13.853   2.957 -0.1125 -0.0314  0.1010
23838W        W44118   8.426  15.720  14.810 -0.0241 -0.0992 -0.2342
23839W        W44119   2.058  14.278   4.087 -0.0175 -0.1978 -0.1199
23840W        W44120  10.403   9.595  12.124  0.3731 -0.0069 -0.0265
23841W        W44121  16.956   6.089   1.668 -0.0884 -0.0315 -0.2091
23842W        W44122   9.352   7.694   4.695 -0.0223  0.0811 -0.3171
23843W        W44123  16.467  10.870   3.074  0.1149  0.3962 -0.1834
23844W        W44124   0.481  12.219  14.868  0.3414  0.0466 -0.0046
23845W        W44125  15.569   9.772  15.754 -0.0529 -0.1217  0.1236
23846W        W44126   8.268  11.302  12.124  0.2652  0.2709  0.2088
23847W        W44127   1.310  14.736  13.049  0.1747 -0.0754 -0.1405
23848W        W44128  10.828   7.081  15.691  0.1134  0.1616  0.3039
23849W        W44129   8.434  14.015   1.403  0.0242  0.2238  0.3033
23850W        W44130  17.809  14.784  16.619 -0.2873 -0.0249 -0.1063
23851W        W44131   9.396  13.352  14.029 -0.3315  0.2021  0.0455
23852W        W44132  11.820   4.081  16.179  0.0620  0.0744 -0.0157
23853W        W44133  10.338   4.851   4.448 -0.0696  0.2821 -0.1304
23854W        W44134   3.640   6.888  14.910 -0.2845  0.0962  0.0222
23855W        W44135  11.958  17.110   4.539 -0.0553  0.1863 -0.3262
23856W        W44136  14.356   3.748  12.575  0.2046 -0.2548  0.2610
23857W        W44137   9.919   7.475   3.829  0.0047 -0.0899 -0.1491
23858W        W44138   5.852   3.866  15.135 -0.0887  0.1688 -0.0499
23859W        W44139   8.774  12.281   3.445 -0.0376 -0.0171 -0.1974
23860W        W44140  13.121  16.954  15.845 -0.0646  0.0262 -0.0725
23861W        W44141  12.600   3.797   3.282 -0.2155  0.5208 -0.1902
23862W        W44142  11.504   4.299  15.789  0.0573 -0.1795  0.2018
23863W        W44143   0.636  12.387  13.475 -0.1512 -0.1207 -0.1268
23864W        W44144   5.127   7.319   2.807 -0.0459  0.2558 -0.0073
23865W        W44145   0.430   1.118  14.074  0.2646 -0.4245  0.1824
23866W        W44146   3.220  16.922  16.673  0.2330 -0.1614 -0.0962
23867W        W44147  15.360  13.445  12.185  0.0599  0.1880 -0.1309
23868W        W44148   7.442   8.647  15.308 -0.3469  0.0960 -0.0985
23869W        W44149   9.733   4.798  14.081 -0.0458 -0.1739 -0.0850
23870W        W44150   7.348  10.160  15.014  0.0991  0.0103 -0.3467
23871W        W44151   6.914   9.444  12.843 -0.3127  0.1441 -0.0538
23872W        W44152   9.646   3.278   1.852 -0.0485 -0.3330  0.0226
23873W        W44153  17.350  15.678  14.988  0.1676  0.2180 -0.1538
23874W        W44154   6.989  12.606   1.903 -0.0600 -0.0899  0.0374
23875W        W44155  14.126  11.524  12.737  0.4423  0.0641  0.1273
23876W        W44156   4.851   1.849   3.353 -0.0372  0.1294 -0.0252
23877W        W44157   7.326   9.138  15.093 -0.2456 -0.0286 -0.0665
23878W        W44158  10.490  10.499   1.516 -0.0229 -0.2679 -0.1400
23879W        W44159  10.145   2.104   3.089 -0.0570 -0.0771 -0.1042
23880W        W44160  10.083   7.792  12.989  0.0082 -0.0277 -0.2282
23881W        W44161  11.776   6.049  13.204  0.0806 -0.0442  0.1440
23882W        W44162  11.877   1.671  13.637  0.1724 -0.1475 -0.1244
23883W        W44163   3.931   1.302  12.808 -0.3934  0.3364  0.0354
23884W        W44164  12.329   7.145   2.338 -0.1522 -0.1813  0.0481
23885W        W44165  14.423   0.402  12.983  0.2251  0.0351 -0.0273
23886W        W44166   7.772   8.232   0.853 -0.0229  0.0983 -0.1155
23887W        W44167   8.407  14.505  13.544 -0.0781  0.0266 -0.1364
23888W        W44168  10.563   8.347   2.367 -0.0632 -0.1311 -0.1177
23889W        W44169   0.683  13.236   4.824 -0.0419  0.0017  0.0612
23890W        W44170  14.641  11.660  13.696  0.2066  0.1159  0.1535
23891W        W44171   5.157   6.742   3.790  0.0830  0.0911  0.1428
23892W        W44172   0.138  11.987  12.400 -0.1467 -0.0087 -0.2917
23893W        W44173   4.462   5.278  13.307  0.1155 -0.0724 -0.0447
23894W        W44174   9.736   3.112  13.135  0.1607  0.1463  0.2192
23895W        W44175   7.421   0.991   4.706 -0.3089 -0.0430  0.2697
23896W        W44176  17.472  11.098  15.371 -0.3371  0.2403 -0.2678
23897W        W44177  14.404   1.904   4.562 -0.0425  0.0622 -0.2923
23898W        W44178   9.634  14.115  16.637  0.0048  0.2362 -0.2146
23899W        W44179   0.092  16.863   4.700  0.0735 -0.0437 -0.0675
23900W        W44180  11.167   9.767  15.051  0.0497 -0.1657  0.3013
23901W        W44181  11.101   5.596   1.526 -0.1420  0.2881  0.2657
23902W        W44182   6.777   1.149  13.801 -0.0658 -0.1613 -0.4342
23903W        W44183   0.502  11.310   1.354 -0.0397  0.2218  0.2109
23904W        W44184  12.439   9.784   4.135  0.2810 -0.3764  0.2427
23905W        W44185   8.797   3.819  13.815 -0.2421 -0.0836 -0.3974
23906W        W44186   3.334  13.067  12.774 -0.2087 -0.1829  0.0384
23907W        W44187   7.330   4.217  13.242  0.0475 -0.0789 -0.1062
23908W        W44188   8.158  10.329   3.455 -0.1540 -0.2288 -0.0522
23909W        W44189  10.838  10.722  14.447  0.1080 -0.4771 -0.0873
23910W        W44190  13.467   8.289  12.456 -0.1593  0.0119  0.1435
23911W        W44191  16.502  10.455   0.372  0.0676 -0.2950  0.2551
23912W        W44192   8.916   6.632  13.992  0.0035  0.3214  0.0025
23913W        W44193   9.664  10.435   4.765 -0.2792 -0.2950 -0.0803
23914W        W44194   0.549   3.530   0.482 -0.1896 -0.1051  0.0069
23915W        W44195  15.106   4.204  13.621 -0.0373 -0.1025 -0.1907
23916W        W44196  12.171  13.837   2.265 -0.2526 -0.0510 -0.0086
23917W        W44197   1.407  14.944   2.295 -0.2301  0.3107  0.0933
23918W        W44198  16.932  16.808   1.441 -0.1880 -0.1362 -0.2024
23919W        W44199   2.000  13.410   4.345  0.2120 -0.0864  0.1988
23920W        W44200   1.161  11.319   2.504 -0.1218  0.0999 -0.2267
23921W        W44201  14.952   1.087  11.760  0.1790  0.3904  0.0630
23922W        W44202  13.811   6.064   0.860  0.0482  0.0779 -0.0282
23923W        W44203   1.306   8.518   1.337  0.1061  0.1404  0.3177
23924W        W44204   8.481  12.191   3.896  0.2328 -0.0327  0.2415
23925W        W44205   2.736   4.887  13.626  0.4670  0.0298  0.2390
23926W        W44206   6.715  17.989  15.729 -0.0176 -0.0185  0.2502
23927W        W44207  10.090  13.190  15.788 -0.1046  0.0879  0.1889
23928W        W44208   3.743  10.581  15.745  0.3374  0.1235  0.2269
23929W        W44209   9.411   1.766  16.253  0.0134  0.0886  0.1221
23930W        W44210   2.238   2.196  16.675 -0.2313 -0.0408  0.1681
23931W        W44211   2.218   6.979   1.968  0.0120  0.1138 -0.0565
23932W        W44212   5.961   8.890  13.353 -0.2101  0.1922  0.3546
23933W        W44213   0.166   4.961  15.569 -0.0251  0.0109 -0.0392
23934W        W44214   4.579  12.796  14.781  0.1471 -0.1474 -0.0154
23935W        W44215   2.855  11.679  14.149  0.1018  0.1204 -0.1904
23936W        W44216   4.555   4.583  16.156 -0.0707  0.1808  0.0448
23937W        W44217   5.202   4.113   4.170 -0.2316  0.2523  0.0738
23938W        W44218  12.503   3.032  13.310 -0.4338  0.0905  0.1324
23939W        W44219   4.055  11.920  13.268  0.3512  0.0060 -0.0607
23940W        W44220  17.125   2.706   1.132  0.0841  0.0632 -0.0633
23941W        W44221   8.584   6.021   2.280 -0.2024  0.0924  0.0560
23942W        W44222   2.460   0.912   3.855  0.1085  0.0418  0.4994
23943W        W44223   8.886  17.988  13.568 -0.0374 -0.2984  0.2505
23944W        W44224  11.051  17.099  13.115 -0.0824  0.1357  0.2015
23945W        W44225  14.870   7.456   1.203  0.1772  0.1719  0.0279
23946W        W44226  16.595   4.635   3.180 -0.0693  0.0885  0.2449
23947W        W44227   9.367   0.854  15.669 -0.1775 -0.0610  0.2923
23948W        W44228  16.544   8.728  15.142  0.0254  0.1839 -0.1226
23949W        W44229   0.187   9.718  12.449 -0.0435  0.1389 -0.0372
23950W        W44230   6.771  10.271  13.338  0.3778 -0.1644 -0.3019
23951W        W44231   8.890   2.844  16.410  0.0772  0.1465 -0.0939
23952W        W44232   8.961   8.364  14.179  0.0520 -0.0676 -0.2352
23953W        W44233  14.668   2.785  12.458  0.1496  0.2241 -0.3065
23954W        W44234   8.218   8.791  14.518  0.1192 -0.0449  0.1033
23955W        W44235  17.565  12.022   2.516  0.4862  0.0807  0.0918
23956W        W44236   7.378   3.774  12.525  0.2307 -0.1192  0.0584
23957W        W44237  14.116  11.965  12.193  0.0103 -0.1161  0.0128
23958W        W44238  12.098  15.481  14.074 -0.2101 -0.3583 -0.1928
23959W        W44239   1.429  12.375  16.558 -0.0013 -0.0710 -0.2836
23960W        W44240   4.240  15.491  12.287  0.2716 -0.1242 -0.2579
23961W        W44241  15.860  16.803   0.450  0.1423  0.0500 -0.2565
23962W        W44242   9.104   6.248   1.997  0.0273 -0.1209 -0.1649
23963W        W44243   8.840  14.398   1.903 -0.2118  0.0112 -0.2745
23964W        W44244   7.589   6.726  12.030 -0.0236  0.0669  0.0979
23965W        W44245   6.671  17.516   3.849  0.0070  0.0046  0.2260
23966W        W44246   6.051  16.366   4.061 -0.1250  0.2262 -0.1985
23967W        W44247  17.432  10.082   3.464 -0.0948  0.1236  0.1971
23968W        W44248   3.157   6.176  14.939 -0.1969 -0.1566 -0.0818
23969W        W44249  16.256  15.731   3.209 -0.3416 -0.3191 -0.0136
23970W        W44250   1.690  15.290   1.100 -0.1820 -0.2369 -0.1620
23971W        W44251   0.802  16.312  13.289  0.0805  0.1680 -0.0400
23972W        W44252  10.728  12.729   3.786 -0.0014 -0.0074 -0.2847
23973W        W44253   6.632   9.784  12.610 -0.1285  0.1388 -0.2549
23974W        W44254   1.771   5.250  14.978 -0.0810 -0.0840 -0.0731
23975W        W44255   1.189   5.614   2.872 -0.1076  0.1233  0.2281
23976W        W44256  14.686   3.596   4.315 -0.2885  0.2759 -0.2025
23977W        W44257   9.162   6.282  12.933 -0.0093 -0.0029  0.1857
23978W        W44258   9.137   4.000   4.435  0.2059 -0.2168 -0.2869
23979W        W44259  12.864   7.542  13.327 -0.1123 -0.1632  0.0981
23980W        W44260  13.968   6.891  12.177 -0.1292 -0.0922  0.1602
23981W        W44261   1.250   9.060  13.062  0.4674  0.1017  0.0943
23982W        W44262   3.082   3.279   1.747 -0.1914  0.2802  0.1851
23983W        W44263   7.595   0.923   1.262  0.0976  0.0535  0.0712
23984W        W44264  16.040  11.666   3.229  0.0027 -0.2599 -0.2645
23985W        W44265  16.819  15.967   2.316 -0.0758  0.0088 -0.3148
23986W        W44266   8.525   0.358  13.436 -0.3065 -0.1354 -0.0093
23987W        W44267  11.380  13.700  14.346 -0.0645 -0.2097 -0.0382
23988W        W44268   1.930   4.496   1.441 -0.1834  0.0647 -0.0448
23989W        W44269   3.227  13.495  15.616  0.1556  0.0549  0.3147
23990W        W44270   1.825  17.402   2.829  0.2891 -0.2050 -0.1388
23991W        W44271   0.309  10.267  15.418 -0.0899  0.0791 -0.0638
23992W        W44272  12.674   6.686  14.334 -0.0687 -0.2765  0.4160
23993W        W44273   4.078  13.307   1.085  0.1584  0.1418 -0.0095
23994W        W44274   7.005  11.008  13.531  0.0020  0.1778 -0.0323
23995W        W44275  11.686  13.219   2.917 -0.1099  0.1842  0.0406
23996W        W44276   8.273  12.051  15.046 -0.2464  0.0255  0.2600
23997W        W44277   0.512  13.471  15.232 -0.0364  0.1289 -0.1832
23998W        W44278  15.311   9.613   3.666  0.0467  0.3130  0.2343
23999W        W44279   9.871  11.353  15.672  0.1776 -0.2637 -0.0553
24000W        W44280  17.548  14.898  12.830 -0.3060 -0.0610 -0.1044
24001W        W44281   5.142   9.143  16.171 -0.0747  0.0329 -0.0280
24002W        W44282   8.618   3.196  16.690  0.2319 -0.0743 -0.1261
24003W        W44283   9.624   8.854  13.267 -0.3596  0.0023  0.1397
24004W        W44284   4.752   7.364  15.758  0.0565  0.2629 -0.1179
24005W        W44285   8.863   6.675   3.147  0.0023 -0.1062 -0.1824
24006W        W44286   3.904   4.489  13.700 -0.0025 -0.0320 -0.1090
24007W        W44287  14.684  15.738  13.991 -0.2148  0.1175 -0.0165
24008W        W44288   0.389   8.588  14.966  0.1595 -0.2126 -0.2166
24009W        W44289   2.431   3.644  14.503 -0.3775 -0.2876 -0.1848
24010W        W44290  14.796   9.360   1.764 -0.0875  0.1199 -0.1000
24011W        W44291   6.116  10.361  13.379  0.0392 -0.1719 -0.1093
24012W        W44292  14.617  12.005   0.044 -0.1161  0.0792 -0.0952
24013W        W44293  16.987  13.418  16.581 -0.2106  0.1563 -0.2787
24014W        W44294  15.683  13.540   1.117 -0.2697  0.2930  0.1477
24015W        W44295   0.112   5.743   1.759 -0.0208 -0.2128 -0.0810
24016W        W44296  14.171  12.751  15.366 -0.0241  0.0347 -0.0562
24017W        W44297   9.249  14.787   2.843  0.1609 -0.1452  0.0621
24018W        W44298   5.835   8.892   3.864  0.1134 -0.1031 -0.0728
24019W        W44299   5.053   1.673   4.113 -0.2351  0.0569  0.0438
24020W        W44300   7.796  15.482  12.421 -0.0530  0.3027  0.0473
24021W        W44301   4.573   4.202  16.505  0.0278  0.1602  0.2810
24022W        W44302  12.028   5.222  14.706  0.1742  0.2881 -0.0278
24023W        W44303  15.100  11.143   2.498 -0.1313 -0.0390  0.0828
24024W        W44304  10.901  17.772   2.583 -0.0280  0.1543  0.0615
24025W        W44305   3.081  14.267  16.365 -0.0050 -0.2090 -0.0601
24026W        W44306  16.532   5.543  16.602  0.1782  0.0635 -0.0994
24027W        W44307   5.462   4.426  13.845  0.0339 -0.4422 -0.0255
24028W        W44308  13.459   0.977   3.926 -0.0244 -0.0523  0.1538
24029W        W44309   6.958  13.656   1.445  0.3170  0.1462 -0.2595
24030W        W44310   5.267   3.821   0.419 -0.2052 -0.0168  0.0195
24031W        W44311   8.055  13.024  13.577 -0.2585  0.0095  0.2261
24032W        W44312   7.520   7.829   2.132 -0.1865  0.1484 -0.1596
24033W        W44313   7.421   3.940   1.089 -0.0004  0.3778 -0.1709
24034W        W44314   5.910  10.910   5.070  0.1467 -0.0084 -0.1290
24035W        W44315  16.947  15.042   0.679 -0.0721  0.1292  0.0140
24036W        W44316   2.411   3.668   4.872  0.2058 -0.0210 -0.0647
24037W        W44317  12.289   2.952  15.110  0.0052  0.2726  0.0764
24038W        W44318   2.797   9.737   1.662 -0.2897 -0.0165  0.1447
24039W        W44319  15.527   0.026  12.210  0.0513  0.1625 -0.2197
24040W        W44320  14.687  10.624   0.756  0.2009  0.0322 -0.1721
24041W        W44321   5.944  10.489  12.443  0.0403 -0.0095 -0.1047
24042W        W44322  17.070   8.672   1.806  0.0177  0.0174  0.1113
24043W        W44323   9.893   9.408  11.832 -0.0266  0.0456 -0.1884
24044W        W44324  10.922   0.751   4.026 -0.2309  0.1881  0.0779
24045W        W44325  12.900  11.769   3.079  0.3436  0.2273 -0.0282
24046W        W44326  10.690  14.863  15.434  0.2210  0.0073  0.0385
24047W        W44327  12.215   1.564  12.946  0.1244 -0.0071 -0.3189
24048W        W44328   5.444   8.077   3.428 -0.0202  0.1696  0.3227
24049W        W44329  15.399   3.843  12.227 -0.1550 -0.0595 -0.0004
24050W        W44330  11.028  10.660   3.311  0.2036 -0.0924  0.0594
24051W        W44331   7.106  13.506  14.074  0.0309 -0.0524  0.0182
24052W        W44332   7.499   5.577  16.238  0.0134  0.0312  0.2444
24053W        W44333  17.085   3.868  14.711  0.3314 -0.0929 -0.0724
24054W        W44334   4.157   8.648   4.883 -0.0057  0.3331 -0.0137
24055W        W44335  11.711   8.873   4.375  0.1141 -0.0138 -0.0282
24056W        W44336  14.077   6.796   0.757 -0.0733  0.0172  0.2505
24057W        W44337   2.835   6.912  12.329 -0.0136  0.0041  0.0801
24058W        W44338  15.538   3.801   5.190 -0.1078  0.1566  0.1581
24059W        W44339  13.695  10.240   1.338  0.2478 -0.1393  0.3049
24060W        W44340  10.064   0.638   2.387 -0.2471 -0.3662 -0.0247
24061W        W44341   5.215   7.294  14.908  0.0396 -0.0762 -0.0064
24062W        W44342   4.779  15.925  12.989  0.2840 -0.3152 -0.2497
24063W        W44343   1.010   8.854   1.634  0.3664  0.0548  0.1756
24064W        W44344  13.761  16.160   3.571 -0.3217  0.0832  0.1330
24065W        W44345   2.871  11.390  16.098 -0.0730 -0.0869  0.1553
24066W        W44346  11.777  14.112  12.273  0.0051  0.2869 -0.1395
24067W        W44347  13.673   2.886  13.488  0.1873 -0.3239 -0.0167
24068W        W44348  14.815  11.555   1.302  0.2121  0.0461  0.0090
24069W        W44349  11.260   0.097  15.332  0.2534  0.0858  0.1473
24070W        W44350   3.872   3.242  12.440  0.1283 -0.1308 -0.1594
24071W        W44351   9.116  10.967  14.034  0.0046  0.3596  0.3336
24072W        W44352  12.181   8.484  15.402  0.0301  0.0422 -0.1213
24073W        W44353   6.318   6.069  12.493  0.1435  0.0347 -0.0681
24074W        W44354   5.944  10.603  14.406 -0.0080 -0.0585 -0.0149
24075W        W44355   9.706   9.464  13.502 -0.2445  0.0327  0.1994
24076W        W44356   8.974   7.391  15.123 -0.0490 -0.0829 -0.1645
24077W        W44357   0.388   8.554   0.319  0.1892  0.0003  0.5398
24078W        W44358  10.138   3.567  15.210  0.1427  0.0227 -0.0675
24079W        W44359   6.629   9.846   1.520 -0.1973 -0.1289  0.2957
24080W        W44360  15.776  10.848  12.335 -0.1586  0.2158 -0.2843
24081W        W44361  16.913  14.411  12.315 -0.1198  0.0948  0.1516
24082W        W44362   6.409  14.241   2.891 -0.1209  0.0030  0.2569
24083W        W44363   8.289  17.837   0.295 -0.0493 -0.2749  0.1531
24084W        W44364   9.225  13.761   1.162 -0.0672  0.0954  0.0749
24085W        W44365  11.647   6.872   1.847  0.0863 -0.1294  0.0891
24086W        W44366   6.511   5.772   3.987  0.0623 -0.1548  0.0284
24087W        W44367  15.890  13.222   1.432 -0.0793  0.2278  0.2144
24088W        W44368  12.866   2.865  16.338 -0.2390  0.1189 -0.1021
24089W        W44369   5.854   2.990   2.466 -0.1105  0.0298  0.1171
24090W        W44370   4.604   4.267   2.999  0.2188  0.3870  0.1123
24091W        W44371   6.068  12.623   3.916 -0.0856  0.0097 -0.2635
24092W        W44372   6.814  11.826  14.234 -0.0884 -0.1166  0.2561
24093W        W44373   3.345   7.319   4.778  0.2790  0.3558  0.1127
24094W        W44374   8.985   3.472  14.212 -0.4571 -0.3068  0.1298
24095W        W44375  10.682   6.105  11.287  0.3249  0.1843 -0.2583
24096W        W44376   0.912  16.524  13.716  0.1217 -0.1872  0.1321
24097W        W44377  11.317   5.901   0.599  0.0929 -0.1933  0.4509
24098W        W44378   8.316  10.274   1.890  0.1463 -0.1250  0.0336
24099W        W44379  15.324   7.202  12.120 -0.0223  0.3899 -0.0551
24100W        W44380   2.684   1.988   4.107 -0.0230 -0.0124  0.0822
24101W        W44381   2.337  14.664  16.006  0.4762 -0.0677 -0.2468
24102W        W44382  10.940   3.049  13.913 -0.3257  0.1543 -0.3778
24103W        W44383   0.907  14.039   2.761 -0.0053 -0.1137  0.0060
24104W        W44384   7.220   1.278   1.503 -0.0093 -0.1968 -0.0786
24105W        W44385   0.515   5.562   2.046 -0.1085  0.0818  0.0891
24106W        W44386   7.641  16.567   1.057 -0.2652 -0.0092 -0.0292
24107W        W44387   4.296   6.779  13.270 -0.1463 -0.1730 -0.0375
24108W        W44388   0.924  10.589  12.031  0.1571 -0.3355 -0.0985
24109W        W44389   2.668  13.061   4.128 -0.0839  0.1523 -0.0859
24110W        W44390  17.329   7.611  15.136  0.0910 -0.1747  0.4196
24111W        W44391   8.776   4.664  15.747  0.1254 -0.0547 -0.2193
24112W        W44392   9.723  10.399  15.511 -0.0791 -0.0616  0.1248
24113W        W44393  12.379  13.416   4.457 -0.2570 -0.0271 -0.0942
24114W        W44394  16.418   5.341   1.067 -0.0803  0.2117  0.3128
24115W        W44395   1.905   1.100   2.748  0.1565 -0.0783  0.1738
24116W        W44396   6.424  17.003   1.580 -0.0611 -0.5566  0.3003
24117W        W44397  16.537   5.382  12.915  0.2820  0.1128 -0.1019
24118W        W44398   9.362   6.206  14.274 -0.0575 -0.0810 -0.2146
24119W        W44399  11.753  13.026   1.464 -0.1155  0.1051 -0.1355
24120W        W44400   5.115  11.519  14.985  0.0164 -0.3735 -0.0401
24121W        W44401   4.639  13.839  14.562 -0.1310 -0.1539  0.1860
24122W        W44402   9.067   7.561  13.261 -0.0838 -0.1484 -0.0405
24123W        W44403   2.674   3.732  16.694 -0.0551 -0.2608 -0.1869
24124W        W44404  10.495   7.191   2.714 -0.0422  0.1310  0.0063
24125W        W44405   0.198  14.345  13.925 -0.2117 -0.1710  0.2059
24126W        W44406   4.786  12.811   0.632  0.1756 -0.0053 -0.1704
24127W        W44407   7.466  17.208   3.274  0.0869  0.0752  0.1043
24128W        W44408   6.615   2.439   0.908  0.0913  0.1418  0.0184
24129W        W44409   4.243   7.812  13.867 -0.0606 -0.1842 -0.0531
24130W        W44410   1.602   2.264  13.791 -0.3508 -0.2455  0.0268
24131W        W44411  14.933  11.998  14.138  0.3406 -0.0864  0.1681
24132W        W44412  10.591   0.841   1.733 -0.0860  0.0755 -0.2649
24133W        W44413   8.143  12.406  16.205  0.1502 -0.0076 -0.1303
24134W        W44414   1.902  17.670   1.150  0.1436  0.0867 -0.2579
24135W        W44415   5.029  17.341  16.125 -0.1967  0.0192 -0.2221
24136W        W44416  13.910   5.903  14.299  0.1346  0.1121  0.4521
24137W        W44417   4.411   1.209  12.617  0.0344  0.0310 -0.3406
24138W        W44418   0.689  17.899   1.730 -0.1949 -0.0866  0.1825
24139W        W44419   5.128   7.845  13.345 -0.1304  0.0744  0.2002
24140W        W44420   4.019   4.483  14.668 -0.1757 -0.0157 -0.0713
24141W        W44421   5.337   4.666   0.438  0.1025  0.0968  0.1710
24142W        W44422  12.131   2.981  13.741 -0.1022  0.0968  0.1688
24143W        W44423  13.533   2.857  14.225  0.0192  0.1007  0.0267
24144W        W44424  11.606   6.625  13.362  0.0573  0.1408  0.1946
24145W        W44425  14.243   1.634   1.749 -0.0986 -0.1853  0.0859
24146W        W44426  12.934   3.797  12.856  0.5409  0.0262  0.0014
24147W        W44427  16.591   8.735  13.357 -0.1876  0.0847 -0.0905
24148W        W44428   8.218  14.546  14.104  0.2267 -0.1635  0.1695
24149W        W44429  13.266   5.849   1.805  0.1138 -0.1755 -0.0901
24150W        W44430  16.214   1.370  14.286 -0.3672  0.0709  0.0248
24151W        W44431   1.427   5.502   4.550  0.0246  0.0318  0.0957
24152W        W44432  17.699   6.879   0.387 -0.2197 -0.1526  0.0540
24153W        W44433  11.338   0.643   3.172  0.2646 -0.0454 -0.2260
24154W        W44434   4.956   8.520  15.261 -0.3030 -0.0268  0.0954
24155W        W44435   0.314  17.222  14.229  0.1764 -0.1733  0.0440
24156W        W44436   1.479   8.216  12.102  0.0318  0.1188 -0.0192
24157W        W44437  17.706   7.843  14.343 -0.1623 -0.2510  0.0080
24158W        W44438   3.924  13.312   1.565 -0.1380 -0.1315  0.1235
24159W        W44439  11.480   4.428   2.000 -0.5151  0.2607  0.1395
24160W        W44440   7.768   9.267  13.447 -0.1062  0.1111 -0.0538
24161W        W44441   3.456   8.462  15.852 -0.2751 -0.3174  0.2780
24162W        W44442  11.906  12.854  12.946 -0.1805  0.0979  0.1362
24163W        W44443  16.390  16.135  13.584 -0.0141 -0.1099  0.0048
24164W        W44444   9.643   9.488  14.720  0.1202  0.0623  0.1724
24165W        W44445   5.230  14.209   5.104 -0.0922 -0.1156  0.1143
24166W        W44446  16.524  10.901  14.409 -0.1577  0.0450  0.0904
24167W        W44447   9.153   5.871  16.167  0.0768  0.2318  0.1701
24168W        W44448  14.148  10.982   1.492 -0.0921 -0.3162 -0.0215
24169W        W44449   5.298   0.467  15.439 -0.0739 -0.2283 -0.0913
24170W        W44450   2.346   9.894   0.126 -0.0554  0.2761 -0.0216
24171W        W44451  17.565   1.425  12.415  0.2160 -0.0134  0.0381
24172W        W44452   3.077   8.773  15.995  0.0682 -0.3476 -0.0693
24173W        W44453  17.418  16.978  15.452 -0.1282 -0.1245 -0.2266
24174W        W44454  17.532   7.534   1.240 -0.1798 -0.2012 -0.1931
24175W        W44455   8.513  10.248  14.443  0.0182 -0.1920  0.0948
24176W        W44456  11.085  17.679   2.092 -0.2492 -0.1787 -0.1794
24177W        W44457  15.369  13.202   0.260 -0.1281 -0.0615 -0.1314
24178W        W44458  14.064   9.907   1.248 -0.0349  0.1856 -0.0466
24179W        W44459  14.031   1.222  11.139  0.1352  0.3310  0.0901
24180W        W44460   7.872   2.210   0.785  0.0901  0.1980  0.1163
24181W        W44461  17.600  15.095  13.767 -0.0768 -0.0409 -0.4100
24182W        W44462   5.348   3.740  15.519  0.1152 -0.0612  0.3075
24183W        W44463   1.366   2.541   0.997  0.0485  0.1192  0.1007
24184W        W44464  11.624   5.238  15.390 -0.0246 -0.5076  0.2275
24185W        W44465  17.474  11.660   2.120 -0.2686 -0.1660  0.1570
24186W        W44466   9.779   2.156  12.820  0.0081  0.0755  0.0243
24187W        W44467   7.112   0.222  16.485 -0.1190  0.1429 -0.0863
24188W        W44468   5.414  16.922   4.030  0.3746 -0.0250 -0.2125
24189W        W44469  16.274  16.653   0.119 -0.2411 -0.1596  0.1252
24190W        W44470  16.215   7.827  14.689  0.0800  0.1627  0.0136
24191W        W44471  10.679  13.654   1.979 -0.1303 -0.2320  0.0358
24192W        W44472  12.127  17.435   3.697  0.1151 -0.0287 -0.0908
24193W        W44473   7.286  13.065  14.816  0.2423  0.2043 -0.2169
24194W        W44474  14.132   4.000   4.270  0.2794  0.1296  0.0436
24195W        W44475   5.000  13.569  15.717 -0.0565  0.1265 -0.2843
24196W        W44476   4.835   5.248   4.460  0.3086  0.1937 -0.2182
24197W        W44477   1.146   4.485   1.904  0.4482  0.0729  0.2809
24198W        W44478   6.176  10.667  15.624 -0.7236  0.3954 -0.0775
24199W        W44479  14.547   3.206  16.294  0.0654  0.1361  0.0592
24200W        W44480   3.155   1.492   4.812 -0.1274 -0.1518 -0.0759
24201W        W44481   3.721   9.051  12.302 -0.0515 -0.3598  0.3347
24202W        W44482   6.802  16.249   1.482  0.1080 -0.1518  0.2687
24203W        W44483  16.771  13.417   4.739 -0.2424 -0.0929 -0.2547
24204W        W44484  10.126  15.969   0.299  0.0362  0.0632 -0.0271
24205W        W44485   9.581   9.847  16.675  0.2227  0.4465  0.0928
24206W        W44486  11.954  15.217   2.429  0.0700  0.2442  0.1477
24207W        W44487  16.126  11.410   2.382 -0.0005  0.3050  0.0663
24208W        W44488  16.431   9.897   1.348 -0.2883  0.1989 -0.0338
24209W        W44489  13.784   5.963   2.346  0.0832 -0.2891 -0.0504
24210W        W44490  15.974   3.067   5.655  0.3188  0.4617  0.1746
24211W        W44491  14.858  14.306   3.389  0.0837  0.1202  0.0914
24212W        W44492   4.043  15.222  16.613 -0.0222 -0.0762  0.0645
24213W        W44493  17.675   4.288   2.259  0.0129  0.0585 -0.4345
24214W        W44494   0.849  16.583  12.326 -0.3474  0.4905 -0.0967
24215W        W44495  11.285   9.893   0.712 -0.3300 -0.2831  0.0436
24216W        W44496   1.506  16.818  14.753  0.1031 -0.0421 -0.1054
24217W        W44497   2.745  14.259   0.884  0.0549 -0.1529 -0.0522
24218W        W44498  14.363  15.369  11.897 -0.0423 -0.0482  0.0490
24219W        W44499  13.436   4.329   1.952 -0.1464 -0.0348  0.1595
24220W        W44500   8.799   6.979  14.877 -0.1580 -0.1656  0.4458
24221W        W44501  11.214  16.295  14.625 -0.1784 -0.1887  0.0811
24222W        W44502  17.961  12.561   3.486 -0.0806  0.1878 -0.1468
24223W        W44503   2.477  12.174  12.804  0.1612  0.0165 -0.0457
24224W        W44504   0.793   0.413   1.422  0.2745  0.0196 -0.2424
24225W        W44505  16.260  13.571  11.488  0.1902  0.0376  0.2361
24226W        W44506  16.165  15.959   3.952 -0.2160 -0.0395  0.1950
24227W        W44507   3.628   1.463   0.136 -0.1300  0.3234 -0.1349
24228W        W44508   6.949  11.909   3.736 -0.1860  0.2649  0.2687
24229W        W44509   7.956   2.140  14.882 -0.0855 -0.0951  0.0455
24230W        W44510   1.297  14.281  14.993  0.0191 -0.2747 -0.3479
24231W        W44511   7.511   3.470  14.215  0.2031  0.0714  0.5551
24232W        W44512  12.667  15.108  15.926 -0.3150 -0.2573  0.1335
24233W        W44513   7.555   0.040  15.196  0.0966  0.2052 -0.2035
24234W        W44514  15.030   1.589   1.060 -0.0244 -0.0862 -0.0726
24235W        W44515  15.902   9.962   2.127 -0.3848  0.0105  0.0527
24236W        W44516  12.889   4.433  16.564 -0.1769 -0.2673  0.1125
24237W        W44517  12.826   4.155   0.800  0.0261 -0.0607 -0.0094
24238W        W44518  17.154   1.260  13.710 -0.2919  0.1047 -0.1582
24239W        W44519   6.975   8.925   2.679 -0.0391  0.2175  0.2522
24240W        W44520  13.616  13.147   4.620 -0.3959  0.4331 -0.0919
24241W        W44521   7.714  11.857   1.061  0.0500 -0.4412 -0.1573
24242W        W44522   8.464  13.505   0.070  0.1731 -0.0570  0.0175
24243W        W44523  10.205  12.279   0.817  0.2785  0.0202 -0.1323
24244W        W44524   5.717  14.595   3.087 -0.1344 -0.1044 -0.1352
24245W        W44525  15.346   4.926   4.872  0.0458 -0.0345  0.1331
24246W        W44526  17.229   4.799   1.133 -0.1932  0.2459 -0.1956
24247W        W44527  17.160   6.269   4.583  0.0657  0.0006 -0.2306
24248W        W44528   2.553   1.036   2.863  0.0055  0.0827  0.1532
24249W        W44529   0.033  16.456   0.583  0.0197  0.0641 -0.0908
24250W        W44530   5.161   9.049  14.835  0.1757 -0.0678 -0.0751
24251W        W44531   3.932   3.982   3.114  0.3502 -0.0555  0.1793
24252W        W44532  14.725  17.888   2.043  0.2678 -0.0112  0.1008
24253W        W44533  13.286  17.187  11.902 -0.0445  0.0229  0.2562
24254W        W44534  17.673   8.555  15.979 -0.0733  0.0985 -0.1196
24255W        W44535  11.903   7.387   0.243 -0.1275  0.1114  0.0085
24256W        W44536  12.812   4.875   3.900 -0.1847  0.0371  0.2746
24257W        W44537   5.964   5.928   3.381 -0.1108 -0.0679 -0.0265
24258W        W44538  11.825   8.319  12.789 -0.0532  0.0486  0.1348
24259W        W44539   5.548  10.952   1.723  0.0245  0.1750 -0.2058
24260W        W44540   4.704   8.029   2.877 -0.2402 -0.0533  0.0819
24261W        W44541   5.211  15.586   1.569 -0.1391  0.0324 -0.2646
24262W        W44542   6.409   0.618   4.622 -0.1948 -0.0709  0.0589
24263W        W44543   1.353   0.036  14.806 -0.4214 -0.3722  0.1615
24264W        W44544   6.587   2.000   2.835  0.2781  0.0354  0.0703
24265W        W44545  12.128  13.985  13.199  0.0784 -0.2414 -0.0999
24266W        W44546   4.761  16.060   4.348  0.1212  0.0130 -0.1656
24267W        W44547   4.754   7.510  13.019 -0.1782 -0.0730 -0.0109
24268W        W44548  12.113   9.089   1.576 -0.2467 -0.0721 -0.1219
24269W        W44549   2.141   5.729  13.548 -0.1457  0.1140 -0.1315
24270W        W44550  10.947  10.739  15.389 -0.0516 -0.2086  0.1592
24271W        W44551   9.110  12.086   3.086  0.1756  0.2571  0.0031
24272W        W44552  11.917   3.222   1.311 -0.2064  0.1135 -0.1132
24273W        W44553   1.647  16.429   4.104  0.1236 -0.1624 -0.2646
24274W        W44554  16.333  11.893  12.968 -0.1523  0.1481 -0.2582
24275W        W44555  10.557  11.428   0.588 -0.1881  0.0197  0.2384
24276W        W44556   0.000   0.026   4.261 -0.3970  0.3487  0.0409
24277W        W44557   6.394   9.325   4.345  0.0742 -0.2299 -0.2026
24278W        W44558   6.480   9.089  13.960 -0.0989 -0.2441  0.3155
24279W        W44559  15.419   4.179   1.413 -0.0491 -0.0380 -0.1606
24280W        W44560   1.334  12.085   2.477 -0.1871  0.1906 -0.2618
24281W        W44561  14.051   2.325   3.832  0.0576 -0.2211 -0.0297
24282W        W44562  14.094   4.672  15.428  0.0399 -0.0734 -0.1954
24283W        W44563   5.598   5.672   2.312 -0.2243 -0.0988  0.0163
24284W        W44564   7.168   1.797   4.204 -0.1673 -0.1176  0.0419
24285W        W44565  13.222   8.398   2.210 -0.1368 -0.1040 -0.1656
24286W        W44566   8.788   7.737   1.309 -0.0182 -0.1259  0.1659
24287W        W44567   1.618  14.753  14.991 -0.2229  0.0789  0.0390
24288W        W44568   8.011   2.651  14.877  0.0655 -0.0526  0.0179
24289W        W44569   6.137   8.758  13.865  0.1830 -0.1212 -0.1218
24290W        W44570   6.168   3.516  15.322  0.2885 -0.2163  0.6791
24291W        W44571   6.915   3.984  14.723  0.3719 -0.0593 -0.2091
24292W        W44572   0.550  14.523  15.987  0.0148 -0.4006 -0.0630
24293W        W44573  11.009  14.026   0.585  0.2626  0.0078 -0.3107
24294W        W44574  10.154  17.466   3.382 -0.6011 -0.1295 -0.2364
24295W        W44575   1.676   8.258   2.836 -0.2339  0.1228  0.0451
24296W        W44576  16.952  10.960  11.101  0.1066  0.3153 -0.2445
24297W        W44577   9.872   6.617  13.664  0.0648  0.1218  0.3618
24298W        W44578   7.224  14.994  14.094 -0.1093 -0.4086  0.2207
24299W        W44579  10.172  16.262  12.106 -0.2492  0.2194 -0.0555
24300W        W44580  17.167   7.175  14.201 -0.0097 -0.1003 -0.2334
24301W        W44581  11.635  12.892   4.360 -0.0119  0.0626  0.0711
24302W        W44582  10.190   3.985  12.109  0.0181 -0.2255 -0.1792
24303W        W44583  17.435  17.298  13.939  0.1494  0.0387 -0.0117
24304W        W44584   4.592  10.003  13.108 -0.1490 -0.1416 -0.0960
24305W        W44585   6.365   8.986   1.427  0.2263  0.0177  0.0923
24306W        W44586  14.146   7.361  13.712  0.1785  0.0580 -0.2814
24307W        W44587  11.445   9.874   2.519  0.1856  0.0735  0.0157
24308W        W44588   1.444   0.879   1.390  0.0304  0.1374 -0.0369
24309W        W44589   1.867  10.781   3.436  0.0651 -0.4133 -0.0774
24310W        W44590  12.937  14.335  13.676  0.0643  0.3630 -0.2200
24311W        W44591  10.791  15.703  12.684 -0.1439  0.0452 -0.1320
24312W        W44592   3.261  13.617  14.385 -0.1337 -0.4520  0.0313
24313W        W44593   7.390  11.037   2.808  0.2482  0.0866 -0.2410
24314W        W44594  17.194  14.179  16.266  0.0004 -0.2928 -0.2291
24315W        W44595   1.991   4.947   3.727 -0.1879 -0.1930 -0.1925
24316W        W44596   4.165   3.370   0.761 -0.1496 -0.0623  0.4400
24317W        W44597   1.342  15.931   3.974  0.0870 -0.4837  0.3854
24318W        W44598  16.967  16.822   0.333 -0.0165 -0.0802  0.1931
24319W        W44599   1.480   0.039  12.585 -0.0807 -0.2259 -0.0812
24320W        W44600   7.878  12.219  15.755 -0.2814 -0.2104 -0.2426
24321W        W44601   2.273   6.173  15.944  0.2645  0.2783 -0.2528
24322W        W44602   7.416   9.207   2.833 -0.0323 -0.0774 -0.1097
24323W        W44603   0.118  11.737   3.670 -0.0197  0.2009 -0.1238
24324W        W44604   5.368   3.877   1.283 -0.3016 -0.4117 -0.3034
24325W        W44605  17.752   0.791  14.451  0.4380 -0.0700  0.0078
24326W        W44606   8.628   4.303  13.359 -0.1952  0.1983 -0.1213
24327W        W44607   7.718  14.925   4.742 -0.0501 -0.1887 -0.3648
24328W        W44608   6.884  17.620  15.974 -0.2123 -0.0426 -0.3207
24329W        W44609  16.898  10.310  15.775 -0.2488  0.0802 -0.0568
24330W        W44610  16.099  14.445   1.244  0.1129 -0.2044  0.0233
24331W        W44611   3.694   0.189  15.022 -0.1154  0.0446  0.1827
24332W        W44612   5.410   2.841  16.583 -0.0969  0.0433 -0.2609
24333W        W44613  14.103   7.974  15.433  0.2554  0.1440 -0.0996
24334W        W44614  16.570  16.706   2.979 -0.2812 -0.0602  0.0571
24335W        W44615  16.335   2.360  12.491 -0.0310  0.2083 -0.2587
24336W        W44616  10.385  16.380  15.144  0.1587  0.3094 -0.3117
24337W        W44617   1.700  13.528   3.957 -0.0205 -0.3572  0.3528
24338W        W44618  12.148  15.801   4.427 -0.1091  0.1799  0.0313
24339W        W44619  15.182   8.959  13.913 -0.2324  0.1731  0.1940
24340W        W44620  16.592   5.980   2.693 -0.0129  0.1848  0.0918
24341W        W44621  13.308  13.216   4.180 -0.1445  0.0446 -0.0007
24342W        W44622  13.422   4.748   0.548 -0.3201 -0.2215 -0.4702
24343W        W44623   9.363   0.735   1.895 -0.0337 -0.1010 -0.1530
24344W        W44624   4.652   8.742   3.097 -0.1667 -0.1681 -0.2198
24345W        W44625  12.893   8.202   3.166  0.0614  0.0161 -0.2644
24346W        W44626   5.671   4.345   4.368 -0.0580  0.1808  0.0584
24347W        W44627   3.784  10.671   2.392 -0.0797  0.0130 -0.3708
24348W        W44628   5.456  10.350  12.552 -0.2930  0.1421  0.1296
24349W        W44629   2.056  15.292   3.537  0.0399 -0.0741  0.3595
24350W        W44630   9.192   0.299   2.787 -0.2476 -0.3820  0.0375
24351W        W44631   3.365   8.775   2.920 -0.3820 -0.1222 -0.0144
24352W        W44632  15.239  12.229  13.178  0.0220 -0.3405  0.0315
24353W        W44633   4.901  15.678   2.457  0.1046  0.0205  0.1566
24354W        W44634   9.307   5.134  16.310  0.4323  0.3463 -0.0225
24355W        W44635   1.549   5.689  15.090 -0.2759  0.3086  0.0249
24356W        W44636   8.408   4.889   0.250  0.1876 -0.1430 -0.2909
24357W        W44637   3.824  10.141  12.846 -0.0754 -0.1380 -0.0867
24358W        W44638   7.239  16.772  16.508 -0.0721 -0.3908  0.2738
24359W        W44639  16.145  14.136   4.831  0.2775 -0.1616 -0.1807
24360W        W44640   6.601  14.324  16.345  0.1066  0.0821 -0.2423
24361W        W44641  10.015   5.023   1.709 -0.0850  0.1868 -0.0645
24362W        W44642  16.121  14.961   2.081  0.0313 -0.1445 -0.1594
24363W        W44643  11.641   9.544   3.989  0.1772 -0.2179  0.2950
24364W        W44644   4.324   4.777   3.371  0.0797  0.1249 -0.0600
24365W        W44645  12.576   2.073   0.358 -0.0604 -0.1020  0.0707
24366W        W44646   7.200  15.318  12.547 -0.1285 -0.2721  0.0654
24367W        W44647  10.689   8.202   2.897  0.0513  0.0841  0.1148
24368W        W44648   0.961  14.371  16.290 -0.6549 -0.0074  0.1606
24369W        W44649  14.632   3.881   2.061  0.0371 -0.2752  0.0350
24370W        W44650   9.801   8.441  14.339 -0.0685  0.0734  0.5671
24371W        W44651   2.659   8.272   1.854  0.0016 -0.0714 -0.1112
24372W        W44652   7.641  13.156  13.719 -0.4093  0.3669 -0.1641
24373W        W44653  15.617   8.220   4.252 -0.1503 -0.3062  0.3791
24374W        W44654   8.709   9.153  14.416  0.2799  0.3774  0.2829
24375W        W44655   1.741  16.814  16.395 -0.2439  0.0244  0.0449
24376W        W44656  11.257  17.663   1.178 -0.0837 -0.3347 -0.3561
24377W        W44657  15.666  11.522  13.718  0.3920  0.0577  0.0749
24378W        W44658   2.773   4.223   1.127 -0.2144 -0.0589 -0.0172
24379W        W44659   1.904   1.411   1.909  0.0526  0.2907  0.0987
24380W        W44660   1.777   0.304  12.968  0.1792 -0.1913 -0.0077
24381W        W44661   4.246   8.408   1.238  0.0065 -0.1182 -0.0046
24382W        W44662  16.690  10.832  15.966  0.2012  0.2624 -0.0624
24383W        W44663  12.702  15.415   2.491 -0.2377 -0.2595 -0.0951
24384W        W44664   4.000   3.341   2.465 -0.0175  0.2489 -0.1565
24385W        W44665  12.812   2.115  16.236 -0.0843  0.0901  0.0710
24386W        W44666   9.859   6.226   2.460 -0.0192 -0.0146 -0.0231
24387W        W44667  14.231  11.313  15.484 -0.0661 -0.0266  0.0072
24388W        W44668  16.104   9.444  15.792  0.0246  0.0136  0.1470
24389W        W44669  15.425  14.364  12.996 -0.0270 -0.0435  0.2653
24390W        W44670   5.136  14.921  12.278  0.3696 -0.0164 -0.2829
24391W        W44671  16.784  10.540  13.904  0.0706  0.1330 -0.0690
24392W        W44672   6.152  16.533  14.858 -0.0746  0.0428  0.2546
24393W        W44673  17.090   9.351  14.637 -0.1085 -0.1495  0.1240
24394W        W44674  14.928   4.649  12.299 -0.0038  0.2346  0.2720
24395W        W44675  16.917   7.980   4.784  0.0739  0.2408 -0.0944
24396W        W44676  11.674   5.893  16.435  0.1780 -0.0203  0.0069
24397W        W44677   9.726  11.594  14.641  0.0452 -0.0430 -0.1652
24398W        W44678   9.691  15.158  13.057 -0.0778  0.0284  0.1331
24399W        W44679   9.062  14.348  13.481 -0.3340  0.0881  0.0773
24400W        W44680   2.567   5.655   1.237 -0.1503  0.1011  0.2521
24401W        W44681   6.316   8.351   5.450 -0.0285 -0.1208  0.2752
24402W        W44682  11.720  16.911  13.927  0.1168  0.0068 -0.1183
24403W        W44683   4.116  14.336  15.909  0.1995  0.0279 -0.0105
24404W        W44684  11.056   3.896   1.333 -0.0894  0.2388 -0.0728
24405W        W44685   4.226  16.651   1.545  0.1894  0.0625  0.2453
24406W        W44686  16.221  16.054  12.656  0.0598 -0.0970  0.1941
24407W        W44687  10.616  13.483   4.890  0.1002  0.0783 -0.2437
24408W        W44688  10.204  14.481  14.986 -0.2867  0.2656  0.2616
24409W        W44689   4.583   5.223  16.485 -0.0769 -0.0998 -0.0626
24410W        W44690   3.909   1.118   3.985 -0.5551 -0.1195  0.0268
24411W        W44691   2.487   3.646   3.966 -0.0393 -0.2262 -0.2552
24412W        W44692   5.804  10.248   2.529  0.0901 -0.2151 -0.2479
24413W        W44693  12.116  10.756  13.627 -0.1766 -0.1466 -0.0942
24414W        W44694   2.198   1.706  12.119  0.1906  0.1177  0.0401
24415W        W44695   9.497   5.035  12.737 -0.0362  0.2870 -0.2844
24416W        W44696   4.728   3.093  14.944 -0.0681  0.0800 -0.1009
24417W        W44697   2.208  12.283  13.214 -0.3494  0.3717 -0.1813
24418W        W44698  10.415  11.954  15.676 -0.0137  0.0488 -0.0273
24419W        W44699  14.742  14.242  12.997 -0.3383  0.0657  0.1297
24420W        W44700   6.433  15.945   2.246  0.1435  0.0720 -0.0708
24421W        W44701   5.815  15.432   1.552  0.3990  0.0978  0.1673
24422W        W44702   7.499   5.398   2.257  0.1843 -0.0620  0.3535
24423W        W44703   6.446  17.693  12.790  0.1308  0.4311  0.3654
24424W        W44704  16.884   8.470  15.526 -0.1006 -0.3270  0.0450
24425W        W44705   0.395  17.872   4.635  0.1016 -0.0968 -0.0927
24426W        W44706  11.979   0.607  13.821 -0.0313 -0.0367  0.1301
24427W        W44707   2.917  14.109   3.655 -0.2286  0.0173 -0.1052
24428W        W44708   4.435   4.923  12.838  0.1250  0.1120 -0.2668
24429W        W44709   2.588   2.625  12.454 -0.1616 -0.0387 -0.1648
24430W        W44710   8.358  11.933   1.723 -0.0887  0.0569  0.0859
24431W        W44711  17.028   9.293  15.526  0.2062 -0.0045  0.0277
24432W        W44712   5.838  11.395  13.368 -0.1949  0.0635  0.0304
24433W        W44713   4.875   3.233   1.091 -0.2100 -0.1926 -0.0525
24434W        W44714   6.414   3.686  13.425 -0.2072 -0.0172  0.3326
24435W        W44715  17.532   1.564  14.370 -0.0860 -0.0821 -0.0608
24436W        W44716  15.702   7.395   1.626 -0.2826 -0.0358 -0.1159
24437W        W44717  15.019  14.628  16.554 -0.2815  0.0102  0.1341
24438W        W44718   6.257  16.039  15.440  0.0552 -0.3271 -0.4376
24439W        W44719  17.095   2.813  13.735 -0.1989 -0.1178  0.0186
24440W        W44720   5.889  17.426  16.623  0.1755 -0.1519 -0.1611
24441W        W44721   3.698  15.548   0.618  0.1217 -0.3523 -0.4150
24442W        W44722  16.584   0.331   0.535  0.2441  0.0323 -0.0684
24443W        W44723  16.710   8.790   0.600  0.1851  0.3111  0.1107
24444W        W44724  12.799   1.373   0.927  0.0765  0.0280 -0.0402
24445W        W44725  10.758  15.112   1.165  0.1630 -0.3247  0.1477
24446W        W44726  16.837   7.468  14.811 -0.2456  0.0958  0.0173
24447W        W44727   7.511  10.749  15.191 -0.0288 -0.0476 -0.0343
24448W        W44728  16.771   9.636   1.649 -0.0665  0.0524 -0.0529
24449W        W44729   6.746  11.561   4.096  0.2367  0.2081  0.1609
24450W        W44730   9.140  17.393   0.466 -0.1781 -0.0640  0.1187
24451W        W44731   8.197  15.398  16.493 -0.2676 -0.3111 -0.0083
24452W        W44732  16.949  15.089  16.358 -0.1515 -0.1015 -0.2006
24453W        W44733   2.177   5.512  12.495  0.1324 -0.2275  0.1194
24454W        W44734  17.261  11.030   0.903  0.0377  0.1091  0.0538
24455W        W44735   6.357   7.429   2.409  0.3570  0.1027 -0.3043
24456W        W44736  15.060  17.948   0.064 -0.1853 -0.1341 -0.0933
24457W        W44737  14.643  17.173  15.215 -0.2194 -0.0871 -0.1754
24458W        W44738   1.097  16.749  14.459 -0.0447  0.0602 -0.2643
24459W        W44739   8.603  13.651  12.847  0.1948  0.0601 -0.1325
24460W        W44740  11.153   6.750   0.823  0.0482  0.0389  0.2278
24461W        W44741  16.830   9.415  16.341 -0.0009  0.1229 -0.1140
24462W        W44742  10.738   7.551  12.307  0.2770  0.1175 -0.1692
24463W        W44743  15.742  11.652   4.126  0.0206 -0.3232 -0.0493
24464W        W44744   6.152   1.308  13.643 -0.1744 -0.0560  0.2207
24465W        W44745  11.974   3.345  16.234 -0.2125  0.0209 -0.0497
24466W        W44746  11.465   1.872  13.807 -0.2212 -0.0140  0.0901
24467W        W44747  13.661  16.161   1.699  0.1874 -0.0729 -0.0753
24468W        W44748   6.804  14.469  12.817  0.2357  0.1513  0.1716
24469W        W44749   0.984   7.879   4.333 -0.1248 -0.1652  0.3762
24470W        W44750  17.017   6.734  15.513  0.3380  0.3435 -0.0376
24471W        W44751   5.307   1.416  15.928 -0.1820 -0.1478 -0.1038
24472W        W44752  13.793  13.167   4.118 -0.0098  0.0392  0.1175
24473W        W44753   8.230  11.008   2.346  0.0744 -0.0573 -0.0543
24474W        W44754  11.623   3.653   3.567  0.1277 -0.0836 -0.1255
24475W        W44755  10.871  16.766  11.876 -0.1059  0.0699  0.0801
24476W        W44756  14.302   7.079   3.896  0.0819  0.3202 -0.1520
24477W        W44757  13.221   1.860  12.742  0.1075  0.0497 -0.0246
24478W        W44758   6.176  12.514  16.049 -0.1534  0.1391 -0.0811
24479W        W44759  10.658   7.810   4.281  0.4115  0.1921  0.0599
24480W        W44760   7.430   6.185   0.987 -0.2172 -0.2471 -0.2327
24481W        W44761  11.522  17.325  13.022 -0.3780  0.1354  0.3070
24482W        W44762   8.474   1.567   2.775 -0.2006 -0.3806  0.1609
24483W        W44763   6.723   8.416   2.993 -0.1212  0.0812  0.0046
24484W        W44764  11.289   3.325  11.140 -0.0641  0.0945  0.1153
24485W        W44765   7.428  12.929   2.879  0.3545 -0.0069 -0.0170
24486W        W44766   9.439  13.689   3.077  0.0202 -0.0664 -0.0916
24487W        W44767   3.098   7.531  16.147  0.1263  0.3488  0.1095
24488W        W44768  11.256   3.589  12.031 -0.1230  0.0940  0.0490
24489W        W44769  10.180   4.421  12.913  0.2133  0.0615 -0.1400
24490W        W44770   0.902   7.134  13.547  0.1228 -0.3304  0.0957
24491W        W44771  14.935   2.083   4.650 -0.2082  0.1633  0.3727
24492W        W44772   9.859  12.107   1.863 -0.0731  0.0105  0.5017
24493W        W44773  11.284   1.322   4.617 -0.1824 -0.0364  0.2627
24494W        W44774   1.185   0.137  16.692  0.0620 -0.1113  0.3165
24495W        W44775   7.230   4.771  13.755 -0.1771 -0.0571  0.0249
24496W        W44776   1.257   7.621   3.986 -0.0861  0.0647  0.1042
24497W        W44777   0.657  17.385   3.569 -0.0736  0.1402 -0.1441
24498W        W44778   4.095   9.126  14.575 -0.0968  0.0190  0.0283
24499W        W44779   1.794  12.255   0.171  0.3569  0.0830  0.0751
24500W        W44780  15.522  11.795   3.346  0.0718  0.2532  0.1390
24501W        W44781   5.948   0.930   0.376  0.1873  0.2770 -0.0106
24502W        W44782  11.068  14.384   3.585  0.2113  0.3650 -0.0776
24503W        W44783   3.726   4.712  16.411 -0.1627 -0.0676 -0.1043
24504W        W44784  13.059  17.764   1.259 -0.0786 -0.0525  0.0945
24505W        W44785   4.159  17.390   2.900  0.0726  0.3009 -0.1002
24506W        W44786  14.270   5.241  13.649  0.2039  0.4223  0.0825
24507W        W44787  14.333   7.335  14.209 -0.2750 -0.3154 -0.0375
24508W        W44788  13.456  17.391   1.044  0.6199 -0.1194 -0.0845
24509W        W44789   3.122  14.453   3.896  0.1857  0.1855 -0.0070
24510W        W44790   7.207  11.649  15.108 -0.1948 -0.2060  0.2069
24511W        W44791   9.937   1.879   5.217  0.1819  0.0036  0.2583
24512W        W44792  10.990   2.212  16.089  0.0753  0.1342  0.0664
24513W        W44793   4.884   3.657   1.916 -0.0753  0.1652 -0.0077
24514W        W44794  10.453   3.654   3.354  0.1459  0.2453  0.0913
24515W        W44795   5.538   8.355   0.806  0.0931  0.0433  0.1577
24516W        W44796  12.440  17.635  12.689 -0.1912 -0.2063  0.1060
24517W        W44797   9.583   4.433  11.429 -0.2206 -0.2570  0.2134
24518W        W44798   1.196   9.364  12.448 -0.1918  0.0327 -0.1530
24519W        W44799  16.486   0.976   4.138  0.5718 -0.0623  0.1461
24520W        W44800  10.474  12.283  14.883  0.0203  0.0886  0.1231
24521W        W44801  15.009  13.232   1.610  0.1486  0.1509  0.0887
24522W        W44802  12.056   7.296  14.672  0.0910  0.0129 -0.2146
24523W        W44803   2.877   2.216  12.488 -0.3146 -0.2840  0.0989
24524W        W44804   2.455  12.473   5.762 -0.2199  0.1632  0.2146
24525W        W44805   7.199   1.969  15.265  0.2144  0.0532  0.1171
24526W        W44806  10.284   8.516   3.027 -0.1693  0.0330 -0.3772
24527W        W44807  11.142   0.577  12.184 -0.1765  0.2460 -0.1063
24528W        W44808   0.797   2.673   1.197 -0.1817 -0.1808 -0.0156
24529W        W44809   9.289  11.919   0.800 -0.3133  0.3046 -0.0059
24530W        W44810  11.249   0.223  14.126 -0.0406 -0.1858  0.2587
24531W        W44811  14.377   0.280   4.154  0.0240  0.0043  0.2892
24532W        W44812  12.731   2.912  12.474  0.1362  0.0833 -0.1298
24533W        W44813   0.294   6.384   0.975 -0.1535  0.1223  0.0168
24534W        W44814   4.001  14.365   3.801  0.3355  0.0154  0.1474
24535W        W44815   7.633   7.479  14.623 -0.2466  0.2271  0.3923
24536W        W44816  12.421   5.207   3.795  0.0926  0.1081 -0.0065
24537W        W44817   7.598   1.095  11.979  0.3196 -0.0259  0.0813
24538W        W44818   8.520   0.776  16.610  0.1700  0.1156 -0.1304
24539W        W44819   1.670   2.350   3.789  0.1891 -0.1172  0.0469
24540W        W44820   0.765   8.018   1.824 -0.0035 -0.1064 -0.0217
24541W        W44821   5.562  14.706  15.550  0.3077 -0.0424  0.0854
24542W        W44822  10.448   5.342  14.115  0.3851 -0.0061  0.2261
24543W        W44823   8.066   2.452   3.862 -0.1043  0.3209  0.1050
24544W        W44824   6.596   5.618  12.822 -0.0855 -0.4044  0.1035
24545W        W44825  13.866  13.201   1.695 -0.1024 -0.0695  0.0324
24546W        W44826  16.742   4.684  14.200  0.1803 -0.0162  0.1882
24547W        W44827   1.034  17.845  16.289  0.3001  0.0817 -0.2219
24548W        W44828   0.218  17.383   3.868 -0.0572  0.1911  0.2390
24549W        W44829  14.294   9.109  15.584 -0.2769 -0.0341  0.0507
24550W        W44830  14.055  16.875   0.723 -0.1002  0.3971  0.1124
24551W        W44831   6.225  17.670   3.594 -0.1352  0.0695  0.1661
24552W        W44832   9.625   3.318   2.863  0.0168  0.1045 -0.1673
24553W        W44833   8.809   2.517   0.066 -0.2692  0.0096  0.2593
24554W        W44834   5.029  10.757  12.347  0.1406  0.1274  0.0753
24555W        W44835   2.447   1.397  16.107  0.0012  0.1458 -0.0047
24556W        W44836   3.978   9.904   3.424  0.3058  0.2763  0.0596
24557W        W44837  15.303   0.159  15.269 -0.1352 -0.3208 -0.2728
24558W        W44838   0.156   5.452  13.094  0.2968 -0.2178 -0.2069
24559W        W44839  11.136   7.229  12.731  0.0716 -0.0325 -0.0934
24560W        W44840  13.371   7.850  14.486 -0.0289  0.0736 -0.1253
24561W        W44841  12.137  11.264  15.812 -0.0581  0.1737 -0.3662
24562W        W44842  16.554  16.097  14.897 -0.4064  0.2164  0.0889
24563W        W44843  11.492   6.748  14.851  0.1933 -0.0126  0.3326
24564W        W44844  17.977   9.619   2.497  0.2432 -0.0128 -0.1037
24565W        W44845   0.055   3.518   2.262 -0.0745 -0.3927  0.0117
24566W        W44846   4.385   8.836  15.124  0.2246 -0.0842  0.1128
24567W        W44847   2.134  15.473  15.289 -0.1631 -0.0894 -0.0079
24568W        W44848  11.457   9.984  12.212 -0.0760  0.0370  0.1320
24569W        W44849  11.851   5.552  14.142 -0.0060  0.1418  0.0749
24570W        W44850   4.958   8.456  12.436 -0.0753 -0.4099 -0.1827
24571W        W44851   2.922  10.309   1.038 -0.1976 -0.0038 -0.1418
24572W        W44852  10.895  10.176  13.752  0.1524  0.1367 -0.2150
24573W        W44853   4.267  15.143  12.656 -0.0177  0.1479 -0.0187
24574W        W44854  15.767  11.335  14.230  0.3055 -0.0838  0.1751
24575W        W44855   4.217   7.732   5.047 -0.0006  0.1365 -0.0627
24576W        W44856   7.728   6.913   1.242 -0.0050  0.1490  0.1059
24577W        W44857  13.067  16.358   0.893 -0.0093 -0.1098 -0.0056
24578W        W44858  17.159   8.289   3.659  0.0218  0.0168 -0.1430
24579W        W44859   4.722   7.402   4.159  0.1503  0.2708  0.1503
24580W        W44860  10.402   2.031   1.601 -0.1078 -0.0412 -0.1765
24581W        W44861  11.945  12.999   0.651  0.2173  0.1479  0.3534
24582W        W44862   7.704  15.199  13.381  0.3159  0.1348  0.1038
24583W        W44863   7.219   8.810   0.237  0.0155  0.1945  0.1960
24584W        W44864   7.821   6.389   1.271 -0.0674 -0.1676 -0.1077
24585W        W44865   5.173   1.548   3.106 -0.7003  0.1410  0.2963
24586W        W44866   0.219  15.391   1.475  0.1475  0.4133  0.0828
24587W        W44867   7.747  17.414  16.306  0.2155 -0.0300 -0.0440
24588W        W44868   3.510  11.233   3.837  0.0375 -0.0598  0.3594
24589W        W44869  17.151  11.778  15.182 -0.3095  0.1066  0.1727
24590W        W44870  13.496   5.120  15.513  0.2423 -0.3832  0.1161
24591W        W44871  17.863   1.175  14.774  0.0360 -0.2389  0.1268
24592W        W44872  16.441   7.606  13.906  0.2058  0.2363 -0.1190
24593W        W44873   1.737   4.407  15.370 -0.0299  0.1437 -0.2325
24594W        W44874  16.308  17.781   1.199 -0.5551  0.0361 -0.0065
24595W        W44875  13.231   8.702  14.973  0.0372  0.2317 -0.1919
24596W        W44876  13.975   4.140  15.620 -0.4097  0.2271 -0.5997
24597W        W44877   1.120   8.810  16.158  0.2166 -0.3302 -0.1064
24598W        W44878   2.143   0.155   0.483  0.0112 -0.1340  0.0107
24599W        W44879   9.650   6.070  12.722  0.0882  0.0013 -0.0000
24600W        W44880  13.330   7.776  15.238 -0.0099  0.0980 -0.0182
24601W        W44881   0.304   1.442  11.903 -0.3940 -0.2770 -0.1260
24602W        W44882  14.473   3.129   0.910  0.2691 -0.0835 -0.0156
24603W        W44883   5.964   7.228  16.053  0.1496  0.2978  0.2058
24604W        W44884  10.567   5.905  15.431 -0.0547  0.2887 -0.0358
24605W        W44885  17.808  11.095   0.868  0.2092  0.1935  0.0749
24606W        W44886  14.807   5.702   2.924 -0.2671  0.1146 -0.1763
24607W        W44887   5.340   1.010  15.497  0.0526  0.0732  0.0766
24608W        W44888   8.083   8.021   3.561  0.0108  0.2718 -0.1103
24609W        W44889   5.681   1.323  13.329  0.0510  0.1525 -0.0263
24610W        W44890  17.944  10.589   4.627 -0.1088 -0.1398  0.0369
24611W        W44891   3.307  17.100   3.657 -0.3788 -0.1798 -0.1012
24612W        W44892   9.640  13.787  12.847  0.1811  0.3671 -0.2691
24613W        W44893   9.752   3.683  13.269 -0.2644 -0.0485 -0.1492
24614W        W44894   6.866   7.959  14.963  0.0356  0.0590 -0.2652
24615W        W44895  16.227  11.873  14.522  0.4153 -0.2053  0.0984
24616W        W44896   0.724   0.155   4.974 -0.0797 -0.3177 -0.5178
24617W        W44897   3.694   4.786   4.046 -0.0223 -0.2220 -0.1069
24618W        W44898   2.725  17.345  15.523  0.0674  0.1493  0.2537
24619W        W44899  10.228   4.834   3.840 -0.3222  0.2720  0.1528
24620W        W44900   0.468  14.025   1.565  0.0405 -0.0608 -0.2070
24621W        W44901  10.740   0.701  10.435 -0.0085  0.1615  0.0898
24622W        W44902  12.020  17.068   0.195  0.1980  0.0675  0.0362
24623W        W44903  10.324   7.006  13.314 -0.3108  0.2090  0.1344
24624W        W44904   4.925   1.567   2.141 -0.1202  0.0958 -0.2392
24625W        W44905   6.770   0.932  12.109  0.0554 -0.0484 -0.0623
24626W        W44906  12.403  13.993  15.910 -0.0910  0.1063  0.0517
24627W        W44907  17.684   2.249   3.385 -0.0821  0.0394  0.1598
24628W        W44908   1.208   0.887  14.949  0.0051 -0.0732  0.0783
24629W        W44909   5.767   1.121   3.345 -0.1312 -0.0385 -0.1928
24630W        W44910  15.483   9.350  13.664 -0.1458  0.3587  0.0409
24631W        W44911   1.510   3.473  16.048 -0.2315  0.3817 -0.1493
24632W        W44912  16.084  17.940  11.107  0.2702  0.1751  0.4302
24633W        W44913  10.480   4.355  16.328 -0.0538 -0.1879 -0.1539
24634W        W44914   7.720   3.234  12.275  0.1620  0.2129 -0.0873
24635W        W44915   5.802  12.235   4.273 -0.2519  0.1202  0.0703
24636W        W44916   6.990  14.195  16.027  0.1041  0.1074  0.0982
24637W        W44917  10.796   0.613  16.539  0.3005 -0.0939 -0.0722
24638W        W44918   7.256   9.041   1.189 -0.2549 -0.1004  0.3901
24639W        W44919   8.198  11.005   1.855 -0.1863 -0.1296 -0.0353
24640W        W44920   7.513  17.026   2.115 -0.4310 -0.0224 -0.1802
24641W        W44921   7.425   7.101   4.554 -0.2838  0.0069  0.0337
24642W        W44922   2.734   3.790  15.299  0.1118 -0.1640  0.1274
24643W        W44923   4.383   0.601  15.455 -0.0588  0.0689  0.0307
24644W        W44924  14.567   7.386   3.530 -0.1982  0.1344  0.2746
24645W        W44925   7.837  10.893   0.994  0.1609  0.0266  0.2159
24646W        W44926  12.216  17.165  12.385 -0.0460  0.3268  0.0555
24647W        W44927   1.898  13.125  12.671 -0.1777 -0.0009  0.2705
24648W        W44928  15.298   4.786  15.137  0.2718 -0.0705  0.1858
24649W        W44929  16.820  15.507   2.237  0.2693 -0.0697 -0.1144
24650W        W44930   9.327   5.263   1.742 -0.3021 -0.3741  0.1381
24651W        W44931   6.802   5.471   1.122  0.0166 -0.0485  0.1106
24652W        W44932  16.503   8.632  14.624 -0.4623 -0.1045  0.0079
24653W        W44933   3.115   1.403  13.559 -0.2969  0.1914  0.2504
24654W        W44934   3.263  17.315   0.859  0.1156 -0.3935 -0.1850
24655W        W44935   5.588   5.216   2.591 -0.4162 -0.1478  0.0301
24656W        W44936  12.270   7.228  12.751  0.2792  0.0801 -0.0892
24657W        W44937  13.310  17.736  13.095 -0.2486  0.0247 -0.0949
24658W        W44938   3.835   6.473  11.768  0.0381  0.1426 -0.0411
24659W        W44939  11.190  10.305   2.497  0.3349 -0.1600  0.1284
24660W        W44940  10.776  15.180   4.085 -0.0855  0.2389 -0.0668
24661W        W44941  13.936   5.748   4.311  0.2215  0.1499  0.0425
24662W        W44942   9.702   5.367   3.842 -0.1930 -0.3585  0.1243
24663W        W44943   2.274  10.350   0.397 -0.0748  0.4773 -0.1236
24664W        W44944  10.853  16.328  11.562 -0.0083 -0.2061 -0.0343
24665W        W44945  13.395   8.325  15.257  0.4422  0.1628  0.0925
24666W        W44946  12.919  11.475  14.147 -0.1722 -0.0005  0.0551
24667W        W44947   7.933  13.245   4.438  0.1817  0.1731 -0.2612
24668W        W44948   9.711   3.226   1.285  0.2659  0.0309  0.1568
24669W        W44949   3.645  14.918  11.930 -0.0366 -0.1386  0.0727
24670W        W44950   9.179  17.432   4.291 -0.2276 -0.0042  0.0502
24671W        W44951  15.751   4.490   0.475  0.2035  0.1511  0.0982
24672W        W44952  11.134   0.575   0.828 -0.0227  0.2552  0.4169
24673W        W44953   5.867   5.860  13.470  0.0059 -0.0199 -0.1323
24674W        W44954  10.964  13.301  14.775  0.2122 -0.0091  0.2679
24675W        W44955  10.928  16.525   1.182 -0.1149  0.3803  0.0224
24676W        W44956   8.961   8.144   1.656 -0.1937 -0.1595  0.3163
24677W        W44957   1.892  13.638   2.041  0.0458  0.2950  0.0969
24678W        W44958  16.673  14.578   4.117 -0.1723  0.1090 -0.3374
24679W        W44959  17.862  13.123   4.281  0.0414  0.0907 -0.0975
24680W        W44960   5.678   9.006  12.185  0.2083 -0.0918  0.0736
24681W        W44961  16.052  16.043  15.806 -0.1756  0.1690  0.0162
24682W        W44962  17.772  14.303  11.987  0.1265  0.3514  0.2428
24683W        W44963  10.388  10.873   4.375  0.0724 -0.2221  0.2894
24684W        W44964  17.619  10.380   2.664  0.0445 -0.0478  0.0995
24685W        W44965  15.814   7.922  12.053 -0.1724  0.0363 -0.0566
24686W        W44966   1.512   5.883   3.730 -0.0263 -0.3530 -0.0407
24687W        W44967  13.171   5.992  12.491  0.0255  0.2041 -0.3235
24688W        W44968  13.876   1.127   3.300  0.1435 -0.0652 -0.1600
24689W        W44969   2.919   7.354   0.773 -0.4594 -0.0651 -0.2421
24690W        W44970   9.617   7.672   4.191 -0.1626  0.1101 -0.1426
24691W        W44971   4.238  11.367   4.177 -0.0761  0.0669  0.2981
24692W        W44972   1.363   9.121   2.419  0.0445 -0.1273  0.2564
24693W        W44973  11.335   8.316  12.544 -0.0906  0.0747 -0.1105
24694W        W44974  13.899   7.683   2.110 -0.3031 -0.2590 -0.0651
24695W        W44975   1.681  10.127  16.162  0.1721  0.0877 -0.2556
24696W        W44976  14.533   0.935   2.359  0.0766  0.1059  0.1838
24697W        W44977   5.797  16.931  14.032 -0.2616  0.0462 -0.2361
24698W        W44978  10.501   2.157   3.397 -0.0914 -0.0336 -0.1570
24699W        W44979  10.946   0.361   4.368 -0.5468 -0.0735  0.2514
24700W        W44980  17.757   4.064   1.107 -0.1087  0.3053 -0.0701
24701W        W44981  16.443  14.339  14.766  0.0436 -0.1933 -0.2070
24702W        W44982   9.217  13.782   3.572  0.1257 -0.0020  0.0737
24703W        W44983  13.122  11.497  12.708 -0.0925 -0.0660  0.3189
24704W        W44984  17.225   7.237   0.605 -0.0818  0.1863 -0.0481
24705W        W44985   9.640   1.845   2.857 -0.1990  0.0838  0.0475
24706W        W44986   2.755  12.071   4.302 -0.2042 -0.1734 -0.0447
24707W        W44987  16.054   2.301   3.814 -0.0180  0.1009  0.1771
24708W        W44988   8.766   4.203  12.680  0.1391 -0.1107  0.2691
24709W        W44989  16.696   0.360   3.048  0.0879 -0.2522  0.1414
24710W        W44990   9.180  15.558   3.415 -0.3906 -0.2967 -0.1026
24711W        W44991  15.786   5.374   2.086  0.0914 -0.2321  0.0369
24712W        W44992   5.050  12.163   5.241  0.2042 -0.2019 -0.2387
24713W        W44993  14.618  15.606  13.046  0.1201 -0.0392  0.0964
24714W        W44994  10.728  17.917  13.165 -0.0914 -0.1730  0.0359
24715W        W44995   0.662   7.772  14.373  0.1639 -0.2521  0.3031
24716W        W44996  15.752  10.693   4.241 -0.1131  0.0816  0.0288
24717W        W44997  11.113  11.003   3.681 -0.2078 -0.5555  0.0446
24718W        W44998   1.289   0.628  12.236 -0.0330  0.0046 -0.1071
24719W        W44999   0.356   3.789  14.511  0.2830 -0.2585  0.1594
24720W        W45000   0.164  10.041   3.279 -0.0983  0.0939 -0.1699
24721W        W45001   4.689   0.051  13.030  0.1514  0.1011 -0.3545
24722W        W45002   4.471   2.352  16.074 -0.2356 -0.1029  0.0892
24723W        W45003  10.192  12.921  12.887  0.2876  0.1883 -0.0934
24724W        W45004   2.798   7.686   3.134 -0.1736  0.0437 -0.0024
24725W        W45005   3.013   7.752   1.615  0.1493  0.1829  0.2073
24726W        W45006  15.421  10.576  16.359  0.1846  0.1324  0.0236
24727W        W45007  11.803   3.188  11.959 -0.0397  0.0456  0.0104
24728W        W45008  17.152   6.127   2.193  0.3121  0.2002  0.1040
24729W        W45009  12.568   9.303   5.415 -0.1632  0.1220 -0.2394
24730W        W45010  15.271  16.546  14.134 -0.1536 -0.0358 -0.4000
24731W        W45011   7.163  13.732   2.767 -0.0253  0.0584 -0.1659
24732W        W45012  11.563   8.003  16.348 -0.2122  0.2294  0.1871
24733W        W45013  13.613   4.633  15.737  0.5288 -0.0662 -0.1581
24734W        W45014   0.136   6.066   4.315 -0.1589 -0.0787 -0.3065
24735W        W45015   1.758  11.314   2.499 -0.0657  0.0338  0.2211
24736W        W45016   5.331   5.757   3.692  0.1125 -0.4234  0.0048
24737W        W45017  10.717  14.079  16.331  0.1679  0.0249 -0.1755
24738W        W45018  14.388   9.462  13.287 -0.0341 -0.1231 -0.0219
24739W        W45019   9.065   4.088  14.184  0.1205 -0.0372 -0.0512
24740W        W45020   0.618   0.365   3.242 -0.0327 -0.3051 -0.0738
24741W        W45021   7.518   4.697  16.600  0.2207 -0.1799 -0.0758
24742W        W45022   5.713  15.927  16.058  0.1677 -0.1322 -0.0235
24743W        W45023  13.013   3.962  14.295  0.0555  0.2441  0.2045
24744W        W45024   5.976   7.293  16.561 -0.0289 -0.1341  0.0308
24745W        W45025  15.795   7.654   0.548  0.0949  0.0087 -0.1275
24746W        W45026  16.390   6.652  12.425  0.2090 -0.0293  0.0482
24747W        W45027   9.852   9.528   4.673  0.2154 -0.1533  0.3353
24748W        W45028  16.474   0.593  15.675  0.0728 -0.0138  0.0757
24749W        W45029  12.644  17.212   2.878 -0.1599  0.2895  0.1201
24750W        W45030   9.383  10.299   2.958  0.0520 -0.1413  0.0971
24751W        W45031  10.272  15.030  14.033  0.1000  0.1223  0.0404
24752W        W45032  10.324   9.110  13.001  0.2810 -0.0382 -0.0725
24753W        W45033   2.474   1.562   2.892  0.3930  0.2500 -0.1446
24754W        W45034   7.340  15.213  13.021  0.0052 -0.0726  0.3674
24755W        W45035   3.913   2.505   0.192  0.1003 -0.2919 -0.2406
24756W        W45036   7.659  16.474  12.296  0.2183 -0.0434 -0.2096
24757W        W45037   8.426  17.302   3.209 -0.0574  0.0636  0.0456
24758W        W45038   9.190  15.722   2.555 -0.0425  0.2205  0.1493
24759W        W45039   4.991   3.233  12.136  0.0115 -0.5339  0.0718
24760W        W45040   4.801   7.012   2.591  0.2560 -0.0880 -0.2376
24761W        W45041  11.362   9.031  15.680  0.0829  0.0309  0.1519
24762W        W45042   0.435   0.923   1.097  0.2512  0.1176 -0.4204
24763W        W45043  15.587   9.471  12.999 -0.0008  0.0155  0.0017
24764W        W45044  14.121  13.866  12.432 -0.1970  0.2372  0.2391
24765W        W45045   9.963  14.772  13.707  0.3706 -0.1038  0.0040
24766W        W45046  14.934  11.447  14.222  0.0600 -0.0024 -0.4835
24767W        W45047   4.668   5.386   2.193 -0.0319  0.4508 -0.0524
24768W        W45048   1.603   3.059   2.339 -0.1423 -0.0886 -0.0668
24769W        W45049   6.422  13.556   0.371  0.2582 -0.0734  0.0740
24770W        W45050   9.192   3.325   3.768  0.0236  0.1690 -0.3177
24771W        W45051   4.791   9.027  12.690  0.1248  0.0750 -0.1867
24772W        W45052   3.394   5.112  16.352 -0.0184 -0.1437  0.0366
24773W        W45053  10.247  10.539  16.274  0.2277  0.1584 -0.1754
24774W        W45054  17.041  17.687  12.242 -0.0048  0.0014  0.2564
24775W        W45055   9.755   8.333  12.871  0.3129  0.3358  0.3550
24776W        W45056   5.502   3.181  12.210  0.0726 -0.1193 -0.1524
24777W        W45057  10.213   3.494  15.713  0.1832 -0.3545 -0.0876
24778W        W45058   2.162   7.779   0.413  0.2163 -0.0236  0.2950
24779W        W45059   9.858   1.964  15.571 -0.3426  0.0073  0.3416
24780W        W45060   2.512  15.564   0.258  0.0181 -0.1839  0.0616
24781W        W45061   4.450  17.538   4.099  0.0941 -0.0338  0.2202
24782W        W45062  11.492   1.391  13.991 -0.1217 -0.0238 -0.1097
24783W        W45063   1.918   9.397  16.341  0.0345 -0.0407 -0.2247
24784W        W45064  13.069   6.020  14.909 -0.1844 -0.3320 -0.2158
24785W        W45065   9.678  16.913   1.532 -0.2489  0.1163  0.2712
24786W        W45066   8.412  13.183   2.497  0.0337  0.2962  0.2294
24787W        W45067   5.521  12.208   2.764 -0.0032 -0.0515 -0.0465
24788W        W45068   0.242  17.464  11.186  0.0674  0.2882  0.1523
24789W        W45069   2.583  15.872  14.468  0.0960  0.1706  0.0096
24790W        W45070  14.499   4.198   1.614 -0.0198  0.1466 -0.3803
24791W        W45071   2.449   6.072  12.589  0.0074 -0.1820 -0.0575
24792W        W45072   5.493  16.291   0.399  0.0209  0.2389  0.2278
24793W        W45073   6.370   0.820   3.239 -0.1465 -0.2703  0.2056
24794W        W45074   6.558   5.114  16.411 -0.0414  0.2079 -0.1043
24795W        W45075   3.875   1.828   3.341  0.0504 -0.0776  0.1413
24796W        W45076  17.325  10.046   3.917  0.0929 -0.1679  0.0005
24797W        W45077   4.891   9.694   3.414 -0.0913  0.1267  0.0178
24798W        W45078   7.817  12.334   3.613  0.2443  0.1790  0.3251
24799W        W45079  17.190   5.085  16.007  0.0757  0.0746 -0.1020
24800W        W45080  10.856  14.887   0.131  0.2393  0.1860  0.2924
24801W        W45081   6.196   9.611   0.213  0.0655 -0.1606  0.0233
24802W        W45082   4.538   2.954  14.535  0.1216  0.0227 -0.0410
24803W        W45083   5.157   2.854   0.717 -0.0732 -0.0420  0.1172
24804W        W45084  14.145  10.709   0.953  0.3080 -0.0245  0.0559
24805W        W45085  13.010   5.377   4.390 -0.3069 -0.4630  0.0807
24806W        W45086  12.281   2.137  14.254  0.1364 -0.0701  0.1847
24807W        W45087  12.726  10.266   1.865  0.0048 -0.0050 -0.0470
24808W        W45088   0.408  15.945   3.697  0.0229 -0.0648  0.1261
24809W        W45089   5.188   5.639   0.310  0.0044 -0.0362  0.2630
24810W        W45090  10.580   9.914   3.581 -0.1009 -0.1809  0.0915
24811W        W45091   7.758  13.945  13.011 -0.2490  0.1137 -0.2095
24812W        W45092   2.427   9.200  15.052 -0.2533  0.1415 -0.0315
24813W        W45093  12.432   3.814   1.706 -0.1287  0.1255 -0.0696
24814W        W45094  13.621   1.394  15.053  0.3238 -0.2304  0.0604
24815W        W45095  16.909   4.881   2.472 -0.2067  0.0372  0.0205
24816W        W45096  14.109  14.371   1.233  0.0617 -0.1376  0.1221
24817W        W45097   0.374  15.885  15.773  0.3359  0.0367 -0.0246
24818W        W45098   9.070  17.630   2.164  0.1763  0.4379  0.0841
24819W        W45099   5.039  13.945  12.215 -0.0714  0.1589  0.0080
24820W        W45100  16.733   1.970  12.651  0.2505 -0.1434  0.2467
24821W        W45101  11.115   8.556   2.409  0.2850  0.0143  0.0499
24822W        W45102   4.388   2.975   2.353  0.0555  0.0558  0.0294
24823W        W45103  13.246   8.523   2.709 -0.0427 -0.0208  0.2288
24824W        W45104  14.709  16.244   4.504 -0.0958 -0.1478 -0.1995
24825W        W45105  17.186   6.741  13.116 -0.1258 -0.0845 -0.1404
24826W        W45106   9.891  13.046  14.849 -0.0631  0.0989 -0.0381
24827W        W45107   5.524  15.267   4.057  0.1471 -0.1212  0.0323
24828W        W45108   4.974  10.804  15.221  0.0049 -0.2263  0.0447
24829W        W45109  14.474   6.573   0.431  0.1948 -0.0119 -0.1601
24830W        W45110   3.172   2.610   4.151  0.2020 -0.1442  0.1290
24831W        W45111   7.500   0.703   2.863  0.0195 -0.0436 -0.0955
24832W        W45112  14.780   0.878  16.123 -0.3163 -0.0658 -0.0577
24833W        W45113   5.310  11.269  14.249  0.0289 -0.0839  0.2712
24834W        W45114  16.513  11.142  13.168 -0.2321  0.2717  0.0283
24835W        W45115  15.802  15.984  14.210  0.0745  0.1415  0.0656
24836W        W45116   7.865   8.451   3.772  0.1665  0.1040  0.1316
24837W        W45117   0.058  13.471   4.666  0.0570  0.1322 -0.0933
24838W        W45118  15.106  10.650   2.651  0.1364  0.1137  0.3796
24839W        W45119  16.636  14.978  13.003  0.1739 -0.0868 -0.0052
24840W        W45120   2.391   3.163  14.743  0.1511 -0.1865 -0.2042
24841W        W45121  17.681   1.066  13.661  0.1625 -0.0243 -0.0292
24842W        W45122  12.826  10.846  16.461  0.1530 -0.0539  0.2178
24843W        W45123   3.012  11.976   4.711 -0.0555 -0.2416  0.0055
24844W        W45124   4.976  16.499  13.756 -0.1261  0.2439 -0.1616
24845W        W45125   7.550  17.431   4.716 -0.0337 -0.2567 -0.1656
24846W        W45126   9.051  12.342   0.049 -0.0196 -0.1743 -0.3880
24847W        W45127   5.098  10.528  15.685 -0.1606 -0.0663  0.0049
24848W        W45128   2.508  12.574   4.223 -0.0639 -0.0729 -0.0088
24849W        W45129   3.414   6.106  12.236 -0.0113  0.1450 -0.1444
24850W        W45130  17.341  17.678  12.622 -0.0186  0.2825 -0.1432
24851W        W45131   8.168   6.342   0.128  0.0867  0.0763  0.5074
24852W        W45132   0.509  11.661   4.677  0.0550 -0.0096 -0.0215
24853W        W45133   6.212  10.327   3.908 -0.1898 -0.0860  0.1135
24854W        W45134   7.287  17.752   4.107 -0.0267  0.0853  0.1629
24855W        W45135  14.772  17.664  15.471  0.1932 -0.1999 -0.0967
24856W        W45136  14.000   1.979   3.450 -0.1786  0.2978  0.0169
24857W        W45137  11.451   3.429  15.931  0.0325 -0.2270  0.0187
24858W        W45138   6.169   6.466  15.600 -0.2064 -0.1494  0.1130
24859W        W45139   7.407   0.151   0.257  0.0631  0.4863 -0.1015
24860W        W45140  16.795  17.923  12.649 -0.1567  0.0254 -0.0865
24861W        W45141  15.486   9.365  14.982  0.4877  0.1356  0.2450
24862W        W45142  16.503  10.750  16.467  0.1172  0.1288 -0.3162
24863W        W45143   3.414  15.374   3.885  0.0900  0.1152  0.0685
24864W        W45144  16.843  10.204  15.257 -0.0280  0.2374 -0.1159
24865W        W45145  12.038   7.829  16.085 -0.0546 -0.1742 -0.3460
24866W        W45146  10.987  12.742  16.213  0.2199 -0.1688 -0.0357
24867W        W45147   5.870  14.616   3.598  0.2031 -0.0856 -0.2597
24868W        W45148  13.296   6.991  12.705  0.0314 -0.0866 -0.2806
24869W        W45149   4.943   4.939  16.282  0.0717  0.1080 -0.4543
24870W        W45150   5.987   3.482  13.068  0.1828  0.0298 -0.0386
24871W        W45151  16.192  14.249  15.287  0.0607  0.1002 -0.0173
24872W        W45152  17.404   7.075  15.585 -0.2966 -0.0859 -0.0461
24873W        W45153  12.192   3.015   4.668 -0.0193  0.0494  0.3449
24874W        W45154   9.741   2.653  14.650 -0.1050  0.1394  0.0887
24875W        W45155   4.470  10.159  14.103  0.1306 -0.2336 -0.0870
24876W        W45156   6.868  13.519   3.127 -0.1315  0.1392  0.2232
24877W        W45157   4.043   5.213   3.248 -0.3029 -0.1905  0.2118
24878W        W45158  12.244  15.100  16.149  0.1685  0.2785  0.0782
24879W        W45159   7.030  16.553   4.473 -0.4179  0.1605 -0.1468
24880W        W45160  16.445   9.867  15.876 -0.0410 -0.1450 -0.1441
24881W        W45161  14.692  15.356  14.401  0.1864 -0.0056  0.1122
24882W        W45162  15.371   7.434  15.515  0.0971  0.0162 -0.1699
24883W        W45163   4.933   4.384   0.264  0.0171  0.0234  0.1327
24884W        W45164   6.396   8.265  13.118 -0.1108 -0.0799  0.1580
24885W        W45165  10.844  14.677   0.946  0.0831 -0.1773 -0.0578
24886W        W45166   4.417  12.306  13.992  0.2292  0.2512  0.0125
24887W        W45167   2.529   9.509   1.111 -0.1095  0.1751 -0.0023
24888W        W45168  13.212   7.542  12.660  0.2208  0.3034 -0.0078
24889W        W45169  16.502   7.186  16.295 -0.1215 -0.1392  0.0725
24890W        W45170   3.411   1.539  16.386 -0.1497 -0.0718 -0.3760
24891W        W45171   4.291   9.643   0.462  0.0993 -0.1054 -0.4170
24892W        W45172   0.952  10.665  13.095  0.0734 -0.0169 -0.1309
24893W        W45173  13.161   6.485   0.168 -0.0296  0.2299  0.1403
24894W        W45174   7.047  10.325   0.479  0.1380 -0.1285 -0.4015
24895W        W45175  17.912  15.097  15.914 -0.0109  0.1547 -0.1607
24896W        W45176   6.641   6.681   0.432  0.0524  0.1045  0.1849
24897W        W45177  10.835  12.670   5.558  0.1825 -0.0235  0.2427
24898W        W45178   6.555   5.727  14.913  0.0896  0.0092  0.0394
24899W        W45179  17.464   6.368   0.986  0.0557  0.1549  0.2942
24900W        W45180  13.756  10.188   3.750 -0.0356  0.0032 -0.3154
24901W        W45181   3.453   4.791  15.952  0.0375 -0.1785 -0.0776
24902W        W45182  16.010   2.277   3.123  0.0134  0.1381 -0.4826
24903W        W45183   8.420  11.989  12.644  0.1123 -0.1538  0.2457
24904W        W45184  17.850   8.624  13.073  0.1380 -0.0561  0.0149
24905W        W45185   1.928  12.418  14.882 -0.2012 -0.4143 -0.3972
24906W        W45186   1.147  17.673   3.563  0.0715  0.3901 -0.1780
24907W        W45187  12.026   5.723  14.599 -0.1576  0.1413 -0.1813
24908W        W45188   9.992   3.145   2.525  0.0849  0.2926 -0.1150
24909W        W45189   5.531  14.488  12.347  0.1265 -0.0065  0.0419
24910W        W45190   0.929  13.396  12.222 -0.1422 -0.2598 -0.2118
24911W        W45191   5.550  14.605  13.721 -0.3567  0.4029  0.0112
24912W        W45192  10.521   9.902  14.479  0.3565 -0.0133 -0.2501
24913W        W45193  13.227   1.425  16.689  0.0919  0.3714  0.0255
24914W        W45194   5.122   8.208  15.706  0.2148 -0.1520  0.4759
24915W        W45195   6.463  16.002  12.385  0.3235  0.1201 -0.2304
24916W        W45196  17.058   0.224   2.236 -0.0228  0.1740  0.0059
24917W        W45197   1.755   0.908   0.510 -0.0513  0.0392  0.1675
24918W        W45198   9.693  13.769   0.818  0.1372 -0.1374 -0.0775
24919W        W45199  16.973   0.770   2.386 -0.1059 -0.2514  0.0436
24920W        W45200  17.043   5.586  16.561 -0.0882  0.2473 -0.1035
24921W        W45201   0.065  10.965  15.694 -0.1552 -0.0906 -0.1429
24922W        W45202  17.035  13.061  11.781  0.0092 -0.2189  0.1050
24923W        W45203  16.896  16.005   0.735 -0.1384 -0.1097 -0.0280
24924W        W45204   7.764  16.917   2.549  0.0778  0.1592  0.0941
24925W        W45205  17.816   8.410  14.085 -0.0111  0.1363  0.3073
24926W        W45206   6.789  14.435   1.944  0.0549 -0.4198 -0.0278
24927W        W45207  16.756  12.426  15.876  0.0594 -0.0173 -0.1613
24928W        W45208  11.712  11.213  13.958 -0.1325  0.0739  0.2234
24929W        W45209  17.741   5.672  14.768 -0.0030  0.0046 -0.1357
24930W        W45210   1.160   0.197  12.031  0.1947 -0.3518  0.0187
24931W        W45211  16.160   8.840  11.569  0.0607  0.0706 -0.0724
24932W        W45212   0.360   5.492   2.623 -0.3441  0.1768  0.0599
24933W        W45213   5.130  12.287   4.754 -0.0528 -0.2071 -0.3512
24934W        W45214   1.727  13.343  15.683  0.1929 -0.3344  0.3050
24935W        W45215  17.486   4.125  15.510  0.0163 -0.0610  0.2561
24936W        W45216   7.285   2.366  13.299  0.0490 -0.2364  0.0760
24937W        W45217   6.926   7.672  13.599 -0.0093 -0.0829 -0.2654
24938W        W45218  11.759   7.502  13.880 -0.1174  0.0479  0.0647
24939W        W45219  17.766   7.920  12.433 -0.0726  0.1947 -0.1908
24940W        W45220   2.122   0.186   3.687 -0.0733  0.1393  0.1389
24941W        W45221   4.983  13.194   5.152 -0.1559  0.0813  0.0789
24942W        W45222   6.740   2.873  10.838 -0.0100  0.1457  0.0275
24943W        W45223   5.678   2.488   2.499 -0.1169 -0.1237 -0.0379
24944W        W45224   3.533   0.396  12.738 -0.2651 -0.0491  0.3132
24945W        W45225   1.888  10.872   2.432  0.0086  0.1059  0.0595
24946W        W45226   1.622   6.711  16.032  0.1288 -0.0163  0.1263
24947W        W45227   7.912   5.434   0.075 -0.2762 -0.2473 -0.1293
24948W        W45228  15.184   3.493  16.667 -0.2990  0.0977  0.2319
24949W        W45229   7.128   3.288   1.833  0.1070  0.0587 -0.0168
24950W        W45230   0.167   6.841   4.655  0.0664 -0.1464 -0.0619
24951W        W45231   9.706  11.941   3.705 -0.3407  0.0289 -0.0739
24952W        W45232  13.641  15.646  15.601  0.3072 -0.0362 -0.3865
24953W        W45233   1.156   8.239  14.643  0.0702 -0.2004 -0.3188
24954W        W45234  17.618  13.459   1.346 -0.1507  0.2745 -0.0937
24955W        W45235   8.091   4.605  14.642 -0.1426 -0.0521 -0.1935
24956W        W45236  12.714   3.515  13.286  0.2719 -0.4407 -0.2939
24957W        W45237   2.401  13.598  12.642 -0.1066 -0.0320 -0.2739
24958W        W45238  13.325   2.184   0.834 -0.0944 -0.0130 -0.1331
24959W        W45239   8.163  14.510   1.294 -0.0786  0.1595 -0.0018
24960W        W45240   2.448   7.159   2.537  0.2972 -0.0281  0.1138
24961W        W45241   3.218   0.885  11.702  0.0653  0.2281 -0.0520
24962W        W45242   6.383  11.842  13.878 -0.4318  0.0818  0.0426
24963W        W45243  11.309  17.514  16.133 -0.1072 -0.4201 -0.3097
24964W        W45244  10.297   7.080  14.029  0.0505 -0.0344  0.1299
24965W        W45245  14.851   7.517   4.551 -0.1008 -0.0070 -0.1128
24966W        W45246   3.563   1.931   4.157 -0.0368 -0.1557 -0.0479
24967W        W45247  15.366   2.471  14.735 -0.2120  0.1602 -0.0324
24968W        W45248  14.370   0.378  14.482  0.2991  0.0186 -0.0114
24969W        W45249   7.380  15.488   0.351  0.2917  0.0110 -0.1766
24970W        W45250  16.245  13.016  15.997  0.0122 -0.2957  0.1185
24971W        W45251   8.627   9.662  13.554 -0.4602 -0.1220  0.2544
24972W        W45252   7.934   4.788   0.395  0.0843  0.3155 -0.0768
24973W        W45253   7.578  10.790   4.696 -0.1013 -0.1043  0.1922
24974W        W45254   9.223   2.648  10.002  0.1940 -0.2651  0.2715
24975W        W45255   4.640   0.697   0.950 -0.1209  0.1532  0.2814
24976W        W45256   2.278   9.519   1.633 -0.0994 -0.1646 -0.1659
24977W        W45257  12.775   3.853  12.388 -0.1187  0.0654  0.1654
24978W        W45258   6.283   6.170  15.149  0.0081 -0.0218 -0.0277
24979W        W45259  13.374  10.243  13.732  0.0466 -0.2870 -0.0758
24980W        W45260  15.283   7.500   0.672 -0.1245 -0.1231  0.2598
24981W        W45261  12.925  16.738   2.724  0.3323  0.0408 -0.0675
24982W        W45262   2.263   0.347  12.225  0.1508  0.1053  0.0580
24983W        W45263  16.176  17.829  11.574  0.3358  0.1166  0.0956
24984W        W45264  11.690   6.257   5.415 -0.0265  0.2309 -0.6444
24985W        W45265  16.440   7.232   2.237 -0.2196  0.2978 -0.0154
24986W        W45266   7.023  17.475   3.308 -0.1486 -0.2909  0.1002
24987W        W45267   1.027   5.676  12.933 -0.0885  0.0509 -0.1709
24988W        W45268  15.899   4.563  11.387  0.1080 -0.0276  0.2981
24989W        W45269   5.283   7.487   4.327 -0.1269  0.3925 -0.0211
24990W        W45270   9.070   3.225  13.762  0.1824 -0.1672 -0.0997
24991W        W45271   4.722   7.760  14.244  0.1975  0.0439  0.1618
24992W        W45272   0.533   5.676  15.644  0.1398  0.0296  0.3003
24993W        W45273  16.220  17.897  14.640 -0.3130 -0.3403  0.3903
24994W        W45274   7.363  17.816  16.203  0.4041 -0.2766 -0.0136
24995W        W45275   1.990  13.970   0.741  0.0326  0.0184  0.1789
24996W        W45276  13.718  10.934   4.770  0.1798 -0.0678  0.1283
24997W        W45277  16.513  11.810  12.404  0.0067 -0.0038 -0.0459
24998W        W45278  13.802   0.825  14.186  0.1552  0.0866 -0.2710
24999W        W45279  13.111   0.099  11.811 -0.0648 -0.0816  0.0427
25000W        W45280   2.797   5.971  15.838  0.2288 -0.0714  0.1333
25001W        W45281   9.586   0.150   4.245 -0.0604 -0.1138  0.0897
25002W        W45282  17.301   1.080  15.436 -0.1236  0.1466  0.3784
25003W        W45283   3.148  14.423   3.327 -0.0331  0.2090  0.1882
25004W        W45284  12.856   6.715  12.642  0.0710 -0.3857 -0.0389
25005W        W45285   0.820  10.725  16.429  0.1468 -0.2763  0.1339
25006W        W45286   8.125  16.480  16.696 -0.1833 -0.4471  0.4405
25007W        W45287  17.757  13.601   3.277 -0.0381 -0.1456 -0.1006
25008W        W45288   4.784   7.995   0.844 -0.0264  0.2606 -0.0264
25009W        W45289   6.763   2.726   3.469  0.0863 -0.2712 -0.0372
25010W        W45290   5.798  14.541   0.336  0.2269  0.0568 -0.0630
25011W        W45291   8.863  11.412  14.804  0.2160 -0.2676 -0.0298
25012W        W45292   0.646   2.107   4.438  0.1853  0.0068  0.1203
25013W        W45293   9.028   6.383  16.034 -0.2061 -0.2291 -0.2389
25014W        W45294   8.349  15.306   2.451 -0.1273  0.0010 -0.2095
25015W        W45295   5.615   1.250   4.855  0.1169  0.2940  0.0079
25016W        W45296  10.411  17.713   2.562  0.1178 -0.0383 -0.2009
25017W        W45297   4.919   6.379  13.293  0.1077  0.0144  0.1333
25018W        W45298  16.038   4.374   1.534 -0.0775 -0.0025  0.1678
25019W        W45299   9.688   2.063   3.325  0.0296 -0.3611 -0.0021
25020W        W45300   3.849   6.615   4.781  0.1040 -0.0420  0.1006
25021W        W45301  17.006   6.360  12.303 -0.3364 -0.2000  0.2322
25022W        W45302   1.893   3.459   2.150  0.2153  0.0691  0.0822
25023W        W45303   9.224  10.810  13.141 -0.0490 -0.1819  0.4100
25024W        W45304  10.834  16.534   3.808  0.1934 -0.0813  0.1173
25025W        W45305  11.934   7.784   0.880 -0.1277 -0.0116  0.1890
25026W        W45306  11.229   6.648  10.458  0.1113  0.0144  0.1747
25027W        W45307   2.634   6.156  13.986 -0.1224  0.1428  0.0113
25028W        W45308  10.250   3.867  14.741  0.2724  0.0648 -0.0688
25029W        W45309   3.295  10.143  16.458 -0.1598 -0.0484 -0.0270
25030W        W45310  10.085   5.761  11.466  0.0476 -0.1412 -0.0080
25031W        W45311   2.384  16.093   2.582 -0.2379  0.1515  0.1794
25032W        W45312  14.691  13.253   3.009 -0.0912 -0.2809  0.0379
25033W        W45313   0.658   6.525   3.854 -0.1163  0.3658  0.1445
25034W        W45314   7.056   5.304  12.140  0.2736 -0.1041 -0.3237
25035W        W45315   3.938  11.495  16.691  0.0109 -0.4324  0.0444
25036W        W45316  17.831  12.470  14.174 -0.0264  0.2217  0.3398
25037W        W45317   8.696   4.162   2.908  0.0586 -0.3118  0.0359
25038W        W45318  16.878   8.026  14.003  0.0906 -0.3607 -0.0052
25039W        W45319   7.702  16.064  15.061  0.0316 -0.1723 -0.1981
25040W        W45320   6.507   1.520   4.480 -0.0682  0.0896 -0.1129
25041W        W45321   3.413  11.264  12.149 -0.0896  0.0370  0.1395
25042W        W45322   1.917   4.251  13.588  0.1343  0.2013 -0.1517
25043W        W45323  11.399  14.696   1.004 -0.1140 -0.2564 -0.2047
25044W        W45324   5.111  10.644   3.144 -0.1077  0.0718  0.0626
25045W        W45325   3.479  11.391   2.019  0.1033  0.0964 -0.3523
25046W        W45326   4.836  13.987  15.456 -0.0589 -0.3000  0.0989
25047W        W45327   8.550  11.340  16.552  0.1843 -0.0853 -0.1604
25048W        W45328   8.508   4.812  16.489  0.0475  0.1475  0.1061
25049W        W45329   1.843  12.649  14.213 -0.1427  0.0062  0.3901
25050W        W45330   7.292   7.248   0.061 -0.0605 -0.1997 -0.2439
25051W        W45331   3.334   5.947   0.194 -0.0259  0.2292 -0.2057
25052W        W45332  16.390  14.849   1.218  0.0783  0.0893  0.1246
25053W        W45333   5.981   8.289  14.052  0.3176  0.0673  0.3859
25054W        W45334   3.681  11.273  12.960 -0.0116  0.2059 -0.1117
25055W        W45335  14.252   0.921   2.822  0.0896 -0.0343 -0.3031
25056W        W45336   7.795  14.106  12.546  0.2035  0.0194 -0.0361
25057W        W45337   5.625   3.450  15.171 -0.0886 -0.1209  0.1243
25058W        W45338  16.759   9.597  12.564 -0.0630 -0.0409 -0.1370
25059W        W45339   4.614   6.082  15.443  0.0949  0.0728  0.2623
25060W        W45340   6.038  17.353  13.888  0.0591  0.3641 -0.0338
25061W        W45341   1.758  10.599  13.511 -0.1401  0.0034  0.0419
25062W        W45342   0.369  17.553  16.439  0.1161 -0.0825 -0.1181
25063W        W45343   1.610   8.448   0.908  0.3399 -0.0774  0.2234
25064W        W45344  16.170  13.025   1.825  0.0008  0.3640 -0.0296
25065W        W45345   3.836   8.537   2.495 -0.1517 -0.2592 -0.1032
25066W        W45346  11.853   5.706  13.586 -0.2775 -0.0356 -0.0167
25067W        W45347   5.334   9.220  15.266  0.2212  0.0672 -0.0538
25068W        W45348   6.558  10.461   0.857 -0.1558  0.4206 -0.1070
25069W        W45349   3.338  11.390  12.643  0.1551  0.0403  0.3672
25070W        W45350   8.074  13.569   2.527  0.0434 -0.0739  0.2508
25071W        W45351   5.524   0.567  12.693 -0.3680 -0.0122 -0.0677
25072W        W45352   5.922   3.231   3.389 -0.3153 -0.0807  0.0550
25073W        W45353  13.641  17.742  16.108 -0.2480  0.1831 -0.3049
25074W        W45354   6.108   7.005   4.613 -0.2807 -0.2110  0.1994
25075W        W45355  11.035  15.638  14.936 -0.0383 -0.1520  0.0767
25076W        W45356  15.514  16.133  15.748 -0.1477  0.2515  0.4112
25077W        W45357  17.917   8.825   2.429 -0.0164 -0.1594  0.0120
25078W        W45358   6.491  13.514   4.165 -0.0151 -0.0255  0.0431
25079W        W45359  15.241   2.948  13.873 -0.2150 -0.2003  0.0617
25080W        W45360  17.394   4.793   0.688  0.0020  0.1814 -0.2315
25081W        W45361  11.777   2.223  13.618  0.1691  0.3121  0.0813
25082W        W45362  12.629  11.512   4.749  0.2189 -0.0371 -0.1014
25083W        W45363   8.289   0.415  12.109 -0.0488 -0.1442  0.1636
25084W        W45364  14.701  15.837   2.862 -0.2765  0.0133  0.3993
25085W        W45365  16.245  13.472  14.257  0.1834  0.0238 -0.0996
25086W        W45366  13.396   6.296   2.386  0.0186  0.0945 -0.1239
25087W        W45367  14.390  17.381   2.003  0.0855  0.1566 -0.0810
25088W        W45368   7.104  16.422  15.584  0.1047 -0.2077  0.1496
25089W        W45369   7.739  16.136   0.284  0.2645  0.0073  0.1259
25090W        W45370   6.629   8.740  15.588  0.3545  0.0612  0.1022
25091W        W45371  14.890   3.094   2.447 -0.0358  0.1851  0.1414
25092W        W45372   2.535  17.296  16.017 -0.0879 -0.1012 -0.1710
25093W        W45373   2.176   5.725  12.959 -0.0006 -0.0052  0.0805
25094W        W45374   6.077   5.427   4.957 -0.0295  0.1381 -0.1938
25095W        W45375   9.136   0.637  14.413 -0.2082  0.0336 -0.1991
25096W        W45376   3.792   4.235   2.305  0.1035  0.1395  0.2318
25097W        W45377   2.238   5.374   3.952 -0.0686 -0.1727  0.3170
25098W        W45378  15.516  10.193   2.391 -0.1605 -0.1412 -0.0965
25099W        W45379  10.330   7.056   0.570 -0.0601  0.0256 -0.0534
25100W        W45380  14.649  10.622   1.246 -0.0130 -0.1969 -0.3525
25101W        W45381  13.190   2.964  12.751 -0.1296 -0.0406 -0.0098
25102W        W45382   6.559  16.915   2.066 -0.4530 -0.2081  0.4261
25103W        W45383  15.802   0.530  15.346 -0.0548  0.0112 -0.0907
25104W        W45384   0.300  10.391   0.344 -0.0449  0.0316  0.1171
25105W        W45385   2.605   1.189  13.439  0.0850 -0.1023  0.1973
25106W        W45386  13.287  15.674   2.910 -0.1642 -0.1588  0.1953
25107W        W45387   4.495   8.274   3.991  0.3369  0.1390 -0.0473
25108W        W45388  12.281   1.680  14.859  0.3396 -0.2220  0.0701
25109W        W45389   9.985   5.894   1.862  0.0861 -0.2287  0.0051
25110W        W45390   8.086   4.987  13.630 -0.3286  0.1294  0.0925
25111W        W45391  12.636   5.685  11.639  0.0790  0.1783 -0.0696
25112W        W45392   6.368  11.967  15.160 -0.1014  0.0459  0.4002
25113W        W45393  13.303  16.800  12.322  0.2218 -0.0435 -0.2322
25114W        W45394   1.007   6.286   3.439  0.1528 -0.0799  0.0184
25115W        W45395   8.404  12.759   1.265 -0.2126 -0.2391 -0.0136
25116W        W45396   5.418  10.349   2.832  0.0582 -0.4073  0.5225
25117W        W45397  14.851  14.530   2.632  0.1043  0.0579 -0.1231
25118W        W45398  10.518  13.282   0.834 -0.0944 -0.0753 -0.0777
25119W        W45399  17.619   7.009   3.603  0.3128  0.0018 -0.1780
25120W        W45400   8.848   6.089  15.422 -0.2154  0.1411 -0.0519
25121W        W45401  11.981   9.519   1.417 -0.0984 -0.0494  0.0071
25122W        W45402   4.619   8.079   3.369  0.1357 -0.2568 -0.0690
25123W        W45403  15.710   4.148   3.082 -0.3789 -0.1652  0.1297
25124W        W45404   8.718   6.644   4.074  0.1583  0.1829 -0.2981
25125W        W45405   4.848   3.703   1.403  0.0408  0.3580  0.2539
25126W        W45406  14.359   4.983  12.836  0.0660 -0.1637  0.0231
25127W        W45407   0.118   9.506   2.009  0.1976 -0.0371  0.2105
25128W        W45408  15.745   6.183  14.841  0.0521  0.1459  0.3197
25129W        W45409   4.199   0.531  13.820 -0.2387  0.1912 -0.0298
25130W        W45410  12.874   9.858  12.639  0.1225  0.2983  0.1601
25131W        W45411   3.830   6.553   2.496  0.1785 -0.2102  0.5059
25132W        W45412   7.156   8.618  13.626  0.0739 -0.0737  0.0596
25133W        W45413  15.827   5.312   2.931  0.1119  0.1105 -0.0699
25134W        W45414  16.702   0.997  13.647 -0.3619  0.0632  0.1543
25135W        W45415   7.013   0.316   1.721 -0.2669 -0.1724 -0.3163
25136W        W45416   5.971  15.882   1.631 -0.1000 -0.0346 -0.0236
25137W        W45417  11.590   9.842  14.192  0.0481 -0.0598 -0.0167
25138W        W45418   0.454   2.694  12.030  0.0762  0.0440  0.3028
25139W        W45419   3.149   9.087  14.317 -0.2796 -0.0445 -0.1522
25140W        W45420  14.475  11.630  12.297 -0.2449  0.3538 -0.1560
25141W        W45421  12.365   6.536  12.494 -0.0759  0.2859  0.1061
25142W        W45422   6.438  15.968  13.328 -0.1469 -0.0246 -0.1579
25143W        W45423  14.296  15.925   0.440  0.0807  0.1126 -0.2023
25144W        W45424  13.133  16.796  14.729  0.1656  0.1244  0.0893
25145W        W45425  10.809  11.437  12.897 -0.2062 -0.1990  0.4299
25146W        W45426   3.847  11.720  16.259  0.2276 -0.1117  0.1166
25147W        W45427   6.180   6.520   3.749 -0.2176 -0.1993  0.2659
25148W        W45428   0.408   0.752  15.332 -0.0171 -0.1742 -0.3806
25149W        W45429  17.175  15.364  14.586 -0.4571  0.1005 -0.2161
25150W        W45430   2.759   5.532   2.608 -0.2574  0.1820  0.0907
25151W        W45431  17.721  10.089   4.662 -0.1561 -0.2116 -0.0300
25152W        W45432  10.185  10.415   4.309  0.3382  0.1608  0.0340
25153W        W45433   4.056   8.432   2.070  0.3248 -0.1613 -0.0210
25154W        W45434  16.215  17.447   1.680 -0.0682 -0.4539 -0.0404
25155W        W45435  11.262   6.541   3.671  0.0290 -0.0803  0.2233
25156W        W45436   5.972   7.331   0.560 -0.2052 -0.1950  0.0438
25157W        W45437  16.253   1.725   4.683 -0.0274  0.0326  0.0410
25158W        W45438  17.644  15.926   0.263  0.1156 -0.3033  0.0051
25159W        W45439  17.967  10.290   1.385 -0.0909 -0.2673  0.1380
25160W        W45440   8.788  16.537   3.615 -0.3366 -0.1273 -0.0420
25161W        W45441   1.193   5.025  12.483 -0.2195 -0.1336 -0.0309
25162W        W45442   4.446  16.340  15.442  0.2906  0.0029  0.2649
25163W        W45443   1.862  17.243   0.506  0.1272  0.0668 -0.2074
25164W        W45444   5.321   1.447   2.421  0.3267  0.2746 -0.0918
25165W        W45445   7.576  15.672  14.670 -0.0101 -0.0910  0.2225
25166W        W45446   1.576  16.724   2.181  0.1670 -0.0988 -0.0439
25167W        W45447   1.801  10.364   0.549  0.0263 -0.3583 -0.0127
25168W        W45448  10.846   4.010  14.307  0.1391 -0.1465 -0.0224
25169W        W45449   6.592  17.943   1.889 -0.6769  0.2268 -0.0052
25170W        W45450  14.205   3.097  11.935  0.0635 -0.1504 -0.3012
25171W        W45451   4.560  12.595  16.376  0.0155 -0.0814 -0.0943
25172W        W45452   3.395  14.981  14.908 -0.1325 -0.2175  0.0713
25173W        W45453  15.243   1.556   1.976 -0.1825  0.4107 -0.1609
25174W        W45454   8.597   2.641   4.197  0.1100 -0.1014  0.1591
25175W        W45455   6.917  15.764  13.279  0.0659  0.1435  0.0479
25176W        W45456   4.251   0.300  15.092 -0.0279  0.0330 -0.0904
25177W        W45457   1.881   9.462  13.061  0.1170  0.0729  0.2415
25178W        W45458   6.100   0.465  16.458  0.3732 -0.0861 -0.0812
25179W        W45459   7.597  14.915  15.526 -0.0149  0.0989 -0.3276
25180W        W45460   8.966   5.757   3.398  0.1292  0.1112 -0.1342
25181W        W45461   5.858  13.294   0.672  0.1941  0.3563  0.0005
25182W        W45462   1.510   7.052  13.600  0.1749  0.0901 -0.0990
25183W        W45463   0.750  14.809  16.521 -0.2769 -0.0145  0.0012
25184W        W45464  13.195  11.608   2.225  0.1033 -0.1564 -0.0039
25185W        W45465  14.518  14.179   3.034  0.2881 -0.1000  0.3479
25186W        W45466   4.764   5.844  15.860 -0.0406 -0.1768 -0.1393
25187W        W45467  14.080  10.216   4.688 -0.1766  0.0504 -0.2480
25188W        W45468   1.480   6.481   1.768  0.1050 -0.1504  0.0322
25189W        W45469  14.152   9.136   4.339  0.0989 -0.0706  0.0844
25190W        W45470  15.028   7.089   0.365  0.1371  0.1366  0.0660
25191W        W45471   8.289  16.812  11.942  0.1396  0.0762 -0.0317
25192W        W45472  12.960   2.357   2.730 -0.2583 -0.2647  0.1116
25193W        W45473   9.434   7.917  13.328 -0.1250  0.1644 -0.0047
25194W        W45474  11.167   6.989   1.666  0.0284 -0.3693 -0.0161
25195W        W45475  16.760   2.584  16.696  0.1705 -0.0351 -0.0129
25196W        W45476  16.960  16.622   3.834 -0.0841 -0.0854 -0.2969
25197W        W45477  11.642  14.675  13.838 -0.0359 -0.1844  0.3076
25198W        W45478  13.470   5.086   2.732  0.1275 -0.4054  0.2529
25199W        W45479  15.496   8.521  12.738 -0.3124 -0.1731 -0.1688
25200W        W45480   6.446   6.005  16.664  0.0653 -0.1547  0.0509
25201W        W45481   8.415   1.694   4.064 -0.0443  0.0775  0.0663
25202W        W45482   5.990  14.057  14.884 -0.2165 -0.0278  0.2448
25203W        W45483  12.044  17.598  10.864  0.0645 -0.0858  0.0148
25204W        W45484   8.677   3.873   3.832 -0.3925 -0.2549 -0.2777
25205W        W45485   1.167   4.353   2.410 -0.0373 -0.3599 -0.0934
25206W        W45486  10.554  15.225   4.545 -0.0760 -0.0085 -0.0663
25207W        W45487  12.404   3.058  16.220  0.2481  0.1274 -0.0548
25208W        W45488   7.956  15.830   1.160  0.3400  0.3805  0.1981
25209W        W45489   5.240  13.249  14.749  0.2066 -0.0044 -0.0242
25210W        W45490  12.196   7.433  14.137  0.2667  0.1367  0.0328
25211W        W45491  17.288  13.531  16.090 -0.1698  0.1051  0.0524
25212W        W45492  14.262  10.740  12.049  0.0875  0.0987  0.0129
25213W        W45493  10.765  14.212   3.145  0.1619 -0.0484 -0.2287
25214W        W45494   2.153  10.339   3.979  0.0136 -0.0785 -0.1636
25215W        W45495   9.720   4.105   1.291  0.0242 -0.2393 -0.1164
25216W        W45496  17.420   0.169  15.228 -0.0135 -0.2639  0.0123
25217W        W45497   7.458   1.528  15.994 -0.0876 -0.1579  0.1453
25218W        W45498   6.719  10.840   4.706  0.3055  0.3774 -0.0730
25219W        W45499   7.210  15.068  15.094  0.2948 -0.1370  0.1241
25220W        W45500   0.011   1.593   0.606  0.2545 -0.0966  0.0887
25221W        W45501  15.281  11.821  12.931 -0.0983  0.1084  0.0311
25222W        W45502   1.991   4.956  14.283  0.2539  0.0409  0.0735
25223W        W45503  14.380   5.214   2.064  0.0555 -0.0251 -0.0133
25224W        W45504  11.306  13.763   2.620 -0.4597  0.0845  0.0470
25225W        W45505  15.872   8.201   1.534  0.2317  0.0545  0.3090
25226W        W45506  14.583  15.628   4.087 -0.1016  0.0409  0.2751
25227W        W45507  11.501  14.851   0.481  0.1105  0.1166 -0.1170
25228W        W45508  14.763   8.941  15.693  0.0511 -0.2599  0.1115
25229W        W45509   0.941  14.716   1.844 -0.0131 -0.3624 -0.0630
25230W        W45510   0.229   5.994   1.326  0.1091  0.1009 -0.0331
25231W        W45511  15.498   7.874   1.599 -0.0347  0.0214 -0.1893
25232W        W45512   9.356   3.366  13.317  0.0383  0.5276  0.3396
25233W        W45513  13.842   8.696   0.929 -0.1844  0.2628  0.0155
25234W        W45514   6.600   3.449   3.062 -0.0747  0.2017 -0.1699
25235W        W45515  12.943   8.310   0.107 -0.0367 -0.1673 -0.1679
25236W        W45516   6.643   1.030   3.864 -0.1088 -0.0035 -0.0641
25237W        W45517   8.883   8.304   2.679 -0.0271 -0.0591  0.3673
25238W        W45518  13.090  11.513   1.621 -0.0396 -0.4571 -0.0810
25239W        W45519  10.464   2.006   3.957 -0.1664 -0.1885 -0.3680
25240W        W45520  15.779  10.899   3.756  0.0236  0.1567  0.2858
25241W        W45521   0.444   4.301  16.008 -0.0859 -0.3100 -0.0281
25242W        W45522   7.310   2.540  16.056 -0.0275 -0.0198 -0.1251
25243W        W45523  11.896  14.910  15.160  0.2671 -0.0467  0.1158
25244W        W45524  10.441  17.594   4.656 -0.4284 -0.1078  0.1074
25245W        W45525  15.222   5.686   3.150 -0.3160 -0.0342  0.2018
25246W        W45526  14.669   7.967  12.298  0.0796  0.1029  0.0648
25247W        W45527   1.109   6.592  15.293 -0.2710 -0.0889  0.0008
25248W        W45528  16.535  11.922   0.106  0.2682 -0.0763 -0.0827
25249W        W45529  16.413   4.382  13.000 -0.1273  0.4248 -0.1392
25250W        W45530   3.882  16.576  16.252 -0.0645  0.1108  0.4184
25251W        W45531  13.030   2.265   3.351 -0.0901  0.0072 -0.0072
25252W        W45532  13.958   2.931   4.534 -0.1484 -0.3413 -0.1215
25253W        W45533  17.767   1.824  12.649 -0.1130  0.3109  0.1629
25254W        W45534  12.831  15.554   3.021  0.0526 -0.1884 -0.1212
25255W        W45535  13.061   2.064  12.295  0.3614  0.0044  0.2705
25256W        W45536   8.371   8.485  15.642 -0.0335 -0.1004 -0.0068
25257W        W45537  10.662  15.701   3.307 -0.3350 -0.1920  0.0906
25258W        W45538  15.446   6.681  13.229 -0.0801 -0.2691 -0.0291
25259W        W45539   9.375  15.811   0.186 -0.0259  0.2459  0.0622
25260W        W45540  16.549   5.521   3.374 -0.2355 -0.2122  0.3590
25261W        W45541   8.298  11.024   1.097 -0.1077 -0.1016 -0.0629
25262W        W45542   8.892  13.464   2.774  0.0446 -0.1111 -0.2840
25263W        W45543   4.347   9.138   0.157  0.2992 -0.2358 -0.0989
25264W        W45544  12.095   4.303   4.093 -0.3586  0.1070  0.1959
25265W        W45545   0.014  11.198  15.291  0.1836  0.1498 -0.0354
25266W        W45546  14.580  12.556   3.902  0.0493  0.1080 -0.0189
25267W        W45547  16.186   3.716  14.100 -0.1401  0.0038  0.1174
25268W        W45548   4.662   9.958  12.096 -0.0822  0.0900  0.3131
25269W        W45549   4.571  14.312   4.272 -0.3295  0.2690  0.2010
25270W        W45550   9.905  11.100   2.357  0.1156  0.0489  0.1587
25271W        W45551   7.633   8.813   4.387  0.0148  0.2183  0.0898
25272W        W45552  13.100   4.982  15.837  0.1187 -0.1659  0.0264
25273W        W45553  11.079   6.289   0.372 -0.0700  0.0775 -0.1810
25274W        W45554   2.364  17.010   4.172 -0.0960 -0.4318 -0.1847
25275W        W45555   0.854  14.565   4.526 -0.1749  0.0546  0.5744
25276W        W45556   2.465  11.033  15.795  0.2171  0.0064 -0.1775
25277W        W45557   4.112   5.951  16.427 -0.2353 -0.0259  0.1802
25278W        W45558   9.438   0.577   2.443 -0.2044  0.0744  0.0486
25279W        W45559   8.135   5.110   0.739  0.1805  0.0625 -0.6346
25280W        W45560   2.171   3.310  12.648 -0.4012  0.0256 -0.0324
25281W        W45561   4.141  17.522   1.142 -0.0843 -0.3032  0.1007
25282W        W45562   8.164   8.212  15.298  0.0616  0.1539  0.2233
25283W        W45563  17.918  11.487  16.175  0.1211 -0.3530 -0.0388
25284W        W45564   0.658   9.987   0.893  0.0589  0.0546  0.4586
25285W        W45565   3.762  13.973   0.704 -0.3489 -0.0219  0.0594
25286W        W45566   6.491  17.205  15.812 -0.1522 -0.0729  0.2762
25287W        W45567  16.349  10.016   0.743 -0.0564  0.0281  0.3165
25288W        W45568  17.337  17.884  16.637  0.0018  0.0993 -0.0299
25289W        W45569   9.457  10.760   2.208  0.0914 -0.0050 -0.0845
25290W        W45570  17.671   6.870   4.643 -0.2504  0.0984  0.0611
25291W        W45571   5.915  16.183  16.464  0.0232  0.1350 -0.2052
25292W        W45572  15.691  11.570  16.330  0.2386 -0.0571 -0.0378
25293W        W45573   2.611  17.547   2.140 -0.2999  0.1864 -0.1222
25294W        W45574   1.092  11.651  15.131 -0.0472  0.1848  0.0419
25295W        W45575  17.335   2.712   4.077 -0.1425 -0.0850  0.0706
25296W        W45576   8.548  16.801   2.255  0.2006 -0.1534  0.1901
25297W        W45577   2.297  13.807  16.604 -0.0192  0.1669  0.0361
25298W        W45578   8.991  13.980   2.093  0.0293 -0.0306 -0.1057
25299W        W45579  17.422  17.184  12.212 -0.1862 -0.1047 -0.1642
25300W        W45580  17.087  14.596  15.982  0.0669 -0.3799 -0.0977
25301W        W45581  14.487   7.401  12.513  0.1150  0.0902 -0.1602
25302W        W45582   8.209  14.932   0.196  0.2821  0.2958 -0.0316
25303W        W45583  10.083   9.636   3.641  0.2083  0.2191  0.0966
25304W        W45584  11.974   1.647  11.125 -0.0876  0.0438  0.0640
25305W        W45585  15.185   5.562  16.589  0.1060 -0.0505 -0.2911
25306W        W45586   1.682  16.639  15.915 -0.0433  0.1870  0.3263
25307W        W45587   1.642   0.293  11.996 -0.3018  0.2128  0.2467
25308W        W45588  16.328   0.854  16.190 -0.2414  0.0841  0.0983
25309W        W45589  15.225   8.337  13.456 -0.0835 -0.1490 -0.1479
25310W        W45590   4.454  16.424  14.873  0.0569  0.1550 -0.0333
25311W        W45591  11.162   5.831  13.576  0.0614  0.1013 -0.1515
25312W        W45592  15.169   1.510   3.202 -0.2500  0.0084 -0.1111
25313W        W45593   9.973   4.293  12.476 -0.0475  0.0960 -0.1061
25314W        W45594  12.305  12.272  15.395 -0.0095  0.0371 -0.3585
25315W        W45595  12.398   4.748  14.028  0.0088 -0.1332  0.3499
25316W        W45596  15.004  12.066   1.341  0.0416 -0.3660 -0.0266
25317W        W45597   7.739   9.612   3.185 -0.1483 -0.0143 -0.2707
25318W        W45598  14.243  13.254  13.170 -0.0222 -0.4490 -0.0758
25319W        W45599   5.871  12.785   0.580  0.1837  0.0013  0.0019
25320W        W45600  12.310   6.837  15.218 -0.0847 -0.1127  0.1322
25321W        W45601  15.935  17.063   4.264  0.1529 -0.1042 -0.0701
25322W        W45602   5.822   7.246  13.654  0.5345  0.1316 -0.2067
25323W        W45603   5.562   1.053  12.838  0.1605 -0.1525  0.2950
25324W        W45604   1.565   4.748   3.913 -0.0571  0.2303 -0.0309
25325W        W45605   8.783  17.505   1.784  0.1704 -0.2263 -0.0224
25326W        W45606   1.669   0.889  14.686  0.2479 -0.2266  0.2169
25327W        W45607   6.946   3.849  13.366 -0.3038  0.3132  0.0198
25328W        W45608   3.519  14.267   3.040 -0.1054 -0.1889 -0.0478
25329W        W45609  10.968   8.001  12.182  0.1538 -0.1317  0.1501
25330W        W45610   3.300   8.750  12.659 -0.1712  0.2521  0.2401
25331W        W45611   5.666   9.548   0.070 -0.2007 -0.2896  0.2653
25332W        W45612  10.268   2.581   3.839  0.1482  0.3966 -0.1034
25333W        W45613  11.809   5.038   1.453  0.1489  0.0359  0.0842
25334W        W45614  11.662   2.398  15.491  0.2168  0.3042 -0.1271
25335W        W45615   7.940  13.349   3.852 -0.3539  0.1232 -0.2325
25336W        W45616   5.556   9.105  15.795  0.0694  0.0839  0.5986
25337W        W45617   7.833  16.659  15.785 -0.3211 -0.2655  0.1481
25338W        W45618   4.692  11.725   2.378 -0.0619  0.2125  0.0069
25339W        W45619   6.078  14.745  12.445 -0.3901  0.0595  0.1454
25340W        W45620  10.362   4.407  13.626  0.1934  0.1362  0.1821
25341W        W45621  15.141   7.061  15.194  0.0454  0.1006 -0.1745
25342W        W45622  13.986  13.081   2.724 -0.0257  0.0174  0.0009
25343W        W45623   5.402   7.032   3.543 -0.1826  0.0594  0.0908
25344W        W45624   3.924   1.932   1.802 -0.1088  0.1324 -0.3507
25345W        W45625  13.688   8.476   2.402 -0.0456 -0.2573 -0.1335
25346W        W45626  15.340  13.068   3.066 -0.1417 -0.0610  0.2497
25347W        W45627  13.890  14.284  15.780 -0.1233 -0.0331 -0.0519
25348W        W45628   8.088   5.104   3.492 -0.0681  0.0220  0.2839
25349W        W45629  12.941   9.201   2.813  0.2822 -0.0419  0.1415
25350W        W45630   3.907   1.190   0.924  0.1076  0.0982  0.1557
25351W        W45631   1.398   7.966   2.503 -0.1864  0.0902 -0.2276
25352W        W45632   3.984   4.302  15.591  0.0651  0.0854 -0.2875
25353W        W45633  14.414  14.630  12.813 -0.2319  0.0050  0.0052
25354W        W45634   8.654  15.222   0.560  0.1557  0.1318 -0.2230
25355W        W45635  11.679  12.825   2.522 -0.1555 -0.1183  0.4082
25356W        W45636   3.506   2.162  13.270  0.4811 -0.0994 -0.0473
25357W        W45637  14.833  11.142  13.795 -0.1305 -0.0654 -0.1275
25358W        W45638   5.261  12.657  11.890 -0.4650  0.1232 -0.2438
25359W        W45639   5.740  12.800  15.837 -0.0701 -0.0887 -0.0710
25360W        W45640   1.271   5.937  15.530  0.1052  0.0161  0.0742
25361W        W45641   8.402   2.377  14.875  0.0928  0.2296  0.0722
25362W        W45642  11.363   1.068   1.945  0.1286  0.2540 -0.3718
25363W        W45643   6.606   1.456  14.732  0.2726 -0.3021  0.0965
25364W        W45644  15.193   7.954   4.306 -0.4867 -0.2717 -0.2716
25365W        W45645   4.751   2.441  14.228  0.0536  0.0116 -0.0036
25366W        W45646   4.193  14.446   2.410 -0.0809  0.2527 -0.2427
25367W        W45647   3.542   2.719  12.952  0.0187 -0.0301  0.1088
25368W        W45648  16.533   5.041  12.178 -0.1420  0.2340  0.1314
25369W        W45649  13.225   2.945  15.017 -0.2728  0.3167  0.0661
25370W        W45650   4.968  11.814   1.634  0.0362 -0.1277 -0.0207
25371W        W45651   0.092  17.751  12.527  0.1618 -0.1301  0.1442
25372W        W45652   4.732  17.774   1.935  0.1938 -0.0176 -0.1017
25373W        W45653   7.268  17.874  13.055  0.1290 -0.0668  0.1017
25374W        W45654   9.863  14.321  12.989  0.1076  0.3549  0.1711
25375W        W45655   5.593  12.207   1.178 -0.5631  0.2541  0.0038
25376W        W45656  16.303   8.938   4.856  0.0703 -0.2377 -0.0135
25377W        W45657  12.412  16.882  16.124 -0.0558  0.3414  0.0338
25378W        W45658   4.663  12.986  13.417  0.4082 -0.4032  0.1291
25379W        W45659  17.645  17.771   1.055  0.0048 -0.1903 -0.2056
25380W        W45660  17.790  14.461  12.599 -0.0308 -0.1710 -0.0290
25381W        W45661   0.178   8.535  16.034  0.0465  0.4275 -0.2403
25382W        W45662  15.053  13.642  15.676  0.0365 -0.0941  0.0246
25383W        W45663  14.024  17.126  15.775 -0.0392  0.0071  0.0569
25384W        W45664   6.104   7.978   0.441 -0.0144 -0.0198 -0.0205
25385W        W45665   0.333  14.956   0.634  0.0660 -0.2560  0.1380
25386W        W45666   9.208   8.598   1.913 -0.0993  0.0904  0.3968
25387W        W45667  11.944  17.049  14.397  0.0908 -0.0612 -0.1495
25388W        W45668  15.042   7.028   1.557  0.2442  0.3476 -0.0788
25389W        W45669  11.936   1.255  14.248 -0.0569 -0.0875 -0.0581
25390W        W45670   0.001   4.205   3.870 -0.1537  0.0027 -0.1117
25391W        W45671   6.263   8.836  14.432  0.1440 -0.0043  0.1714
25392W        W45672  14.127  16.818   1.442  0.0701 -0.1216  0.1619
25393W        W45673   8.350   5.707  14.870 -0.2939  0.2999  0.0711
25394W        W45674  17.787  11.367   3.853  0.1337  0.1318 -0.0271
25395W        W45675   3.481   3.652   0.568  0.3022  0.1275  0.0263
25396W        W45676  13.905   8.352   1.436 -0.0374  0.1615 -0.1471
25397W        W45677   3.121   9.668  12.904  0.6590  0.3116 -0.1187
25398W        W45678   8.737   2.801   0.941 -0.0258  0.0272  0.2263
25399W        W45679  13.483  16.179   4.001 -0.1054 -0.0084  0.2624
25400W        W45680   0.002   9.683  14.271  0.1168  0.0312 -0.2067
25401W        W45681  16.037  16.566   1.805 -0.0270  0.1593 -0.0932
25402W        W45682   9.003   3.367  15.999  0.2416  0.0727 -0.1164
25403W        W45683   6.215  14.461   0.593 -0.2079 -0.2744 -0.1874
25404W        W45684   1.782  14.730  15.494  0.1434 -0.6674  0.0274
25405W        W45685   7.458  13.109  14.267  0.0504  0.1425  0.0449
25406W        W45686  11.778   4.558   1.134 -0.1315 -0.2124 -0.0148
25407W        W45687  15.790  15.553   1.412  0.0028 -0.0683  0.2357
25408W        W45688  10.086  12.197   3.377 -0.0013  0.0001 -0.0297
25409W        W45689   1.418  15.595   0.266  0.1773  0.2602  0.3148
25410W        W45690   9.313  14.676  16.004 -0.0703  0.2421  0.0588
25411W        W45691  15.654   6.459   0.128  0.0871  0.0529  0.1065
25412W        W45692   8.836   2.047   0.311 -0.2055  0.0833  0.0277
25413W        W45693  16.557   7.682  16.006  0.1973 -0.0564 -0.0319
25414W        W45694   2.209  16.418   1.603  0.0638  0.1578 -0.0358
25415W        W45695   7.502  15.834  15.923 -0.0728 -0.1741 -0.3666
25416W        W45696  13.725   8.869  12.877 -0.0943 -0.1992 -0.0647
25417W        W45697  15.313   8.035  16.514 -0.0344 -0.2366  0.0336
25418W        W45698  13.899  17.780   2.809  0.0459  0.0565 -0.1220
25419W        W45699  10.907  13.330  13.069  0.0167  0.2403  0.0557
25420W        W45700   3.208   7.317   4.279 -0.0500  0.1291  0.2239
25421W        W45701   3.948   1.077   0.316  0.1115  0.0775 -0.1379
25422W        W45702  12.147  10.001  15.483 -0.1585 -0.0032 -0.0871
25423W        W45703   5.735   7.238   4.422 -0.1865  0.0808  0.0835
25424W        W45704  11.205  16.411  16.004  0.0990  0.0033 -0.1241
25425W        W45705   6.612  12.925   0.987 -0.0804  0.0674 -0.0660
25426W        W45706  14.573  12.532  12.740  0.1323  0.1081 -0.1295
25427W        W45707  12.671  14.050   2.785  0.5175  0.0705  0.0453
25428W        W45708   2.578   3.376   0.416 -0.2430 -0.0069 -0.2058
25429W        W45709   4.023   1.897   3.867 -0.1570 -0.1275  0.2687
25430W        W45710  10.754  10.807  12.333  0.1000 -0.0067 -0.0785
25431W        W45711   5.562   7.696  13.678  0.4165 -0.2107  0.0807
25432W        W45712   4.828   5.699  16.559  0.1139  0.0854  0.0755
25433W        W45713  16.050  13.192   3.875 -0.1839 -0.1740 -0.2237
25434W        W45714   4.265  10.397  16.232  0.0359 -0.2784  0.1774
25435W        W45715   8.326   5.417  13.523 -0.0167  0.0539  0.1906
25436W        W45716   7.877   5.198  16.123  0.3291  0.1814  0.3037
25437W        W45717  12.912  15.826   0.201  0.0073  0.0567  0.0951
25438W        W45718  17.156  12.094   1.526 -0.2317  0.0673 -0.0075
25439W        W45719  10.278  14.779  15.663  0.1887  0.4545 -0.1498
25440W        W45720   3.766  13.493   0.714  0.3720 -0.0491 -0.1252
25441W        W45721  14.779   7.070   2.589  0.0412  0.1510 -0.0686
25442W        W45722  14.428   9.011   1.920  0.2156  0.0815 -0.1644
25443W        W45723  12.253  12.598  14.144 -0.2133 -0.1258 -0.0654
25444W        W45724   0.094  14.002   3.076 -0.0897 -0.1519  0.0088
25445W        W45725  10.409   5.271   2.588 -0.2608 -0.2062  0.2459
25446W        W45726  15.102  16.880   1.879  0.0412  0.1509  0.0770
25447W        W45727  16.642   8.352   2.213  0.0866 -0.3619  0.0115
25448W        W45728   8.496   1.800  12.499 -0.0310  0.0894 -0.0644
25449W        W45729   6.847  11.987  13.014 -0.2758  0.0974 -0.0285
25450W        W45730   2.892  10.909   5.050  0.3505  0.4781 -0.0503
25451W        W45731   3.512  16.709   4.004  0.2764  0.0530  0.0598
25452W        W45732  12.718   0.413   2.558 -0.0249  0.1854  0.0722
25453W        W45733   1.181   6.463  14.319 -0.2499 -0.0060  0.1353
25454W        W45734   1.334  17.289  15.802  0.1019  0.3793 -0.0041
25455W        W45735  14.620  13.251   0.935  0.2797 -0.2816 -0.1374
25456W        W45736  11.645   1.570  15.978  0.0729 -0.1010  0.3091
25457W        W45737   5.104   1.019   0.464  0.0923 -0.1054 -0.0693
25458W        W45738   3.437   1.834  15.374 -0.0460 -0.0494  0.0392
25459W        W45739   1.450   8.799   0.427 -0.0752  0.2661 -0.1083
25460W        W45740  11.368   2.854  15.214 -0.2218 -0.0069  0.2038
25461W        W45741   8.231  11.154  12.645  0.0165 -0.1962 -0.0848
25462W        W45742  13.085   3.703  16.640  0.1200 -0.0515 -0.1575
25463W        W45743  12.959  15.810  13.054 -0.1029  0.1612  0.2734
25464W        W45744   2.229   0.796  15.497  0.2453  0.1258 -0.3593
25465W        W45745   8.854  13.512  15.301 -0.0266 -0.2152 -0.2724
25466W        W45746   3.386  16.071   1.280  0.4147  0.2947  0.3131
25467W        W45747  14.823   9.267  12.530  0.2179 -0.3781 -0.1231
25468W        W45748   6.020  11.192   2.415 -0.0697  0.0603  0.2195
25469W        W45749  14.183  16.865   4.096 -0.0103 -0.1733 -0.0467
25470W        W45750  17.691   7.769  16.105  0.1654 -0.0994 -0.0544
25471W        W45751  13.779  17.405  13.512 -0.1617  0.2187  0.0706
25472W        W45752   0.014   2.059  12.997 -0.0580  0.1435 -0.2165
25473W        W45753  15.360   7.259  15.971  0.2990 -0.0718  0.1754
25474W        W45754  16.103  11.193  14.592 -0.3339 -0.1484 -0.4291
25475W        W45755  13.168   1.033  14.124 -0.4300 -0.0619  0.1180
25476W        W45756   4.628  13.679  12.479 -0.0191 -0.0610  0.0886
25477W        W45757  10.058  12.242  15.921 -0.0630  0.0454 -0.3543
25478W        W45758   1.263   0.324   1.163 -0.1045 -0.1211  0.1460
25479W        W45759  11.522  15.037  12.349  0.4068  0.3151 -0.2301
25480W        W45760  11.294   9.565  16.334  0.2409  0.1050 -0.0589
25481W        W45761   9.503  15.248  15.893  0.1116  0.3094  0.2671
25482W        W45762   4.636  11.186  15.058  0.2582 -0.1194 -0.2029
25483W        W45763  17.629  15.411  12.825  0.1034 -0.2707  0.1649
25484W        W45764  12.978  17.699   2.651  0.1355  0.0685  0.4239
25485W        W45765  10.894   3.133  13.016  0.4708 -0.0589 -0.0593
25486W        W45766   2.123   9.860  13.753 -0.1449  0.1328 -0.2302
25487W        W45767  16.092   2.709  12.987 -0.1192 -0.5056 -0.0323
25488W        W45768   2.148   8.856  15.782 -0.3395 -0.2655 -0.2055
25489W        W45769   2.334  15.326  14.473  0.0529  0.0557 -0.1462
25490W        W45770  12.804  16.748  13.129 -0.1302 -0.2541 -0.2720
25491W        W45771  16.739  12.783   1.527 -0.0495 -0.0516 -0.1876
25492W        W45772   3.418   4.163  12.665  0.3449  0.2373  0.0610
25493W        W45773  16.833   4.590   0.725 -0.0240 -0.5106  0.0134
25494W        W45774   4.817  12.063  15.791 -0.1440 -0.3597 -0.0177
25495W        W45775   7.112   5.001  13.327  0.3776  0.0227 -0.0924
25496W        W45776   4.549  13.991   2.578 -0.0079  0.0780 -0.1592
25497W        W45777  10.404  14.652   1.100  0.1414 -0.1959 -0.0806
25498W        W45778  14.961   7.536   4.014 -0.0966  0.0810 -0.1765
25499W        W45779  15.013  16.686  15.896  0.0844 -0.1959  0.2902
25500W        W45780  16.750  15.439  13.274  0.3791  0.0590 -0.0673
25501W        W45781   8.896   8.746   3.648 -0.1813  0.2350  0.1981
25502W        W45782   0.344  13.757  12.447  0.3258 -0.1219 -0.1590
25503W        W45783   9.832  11.861  15.653 -0.2599  0.0984 -0.0044
25504W        W45784   8.399   9.021   0.885 -0.1175 -0.2088 -0.1877
25505W        W45785  15.039   7.643   3.485 -0.1371  0.3615  0.1954
25506W        W45786  16.818   7.855  13.537  0.0779 -0.1598 -0.2095
25507W        W45787  12.410   8.575  14.805  0.1518  0.1187 -0.1253
25508W        W45788   9.362  16.997   0.286  0.0583 -0.2896 -0.3819
25509W        W45789  10.900  14.508   4.977  0.0627 -0.0328  0.1877
25510W        W45790  14.479  14.645   1.588  0.0436  0.0971 -0.0838
25511W        W45791   0.501  16.384   0.327 -0.2284 -0.0831 -0.2913
25512W        W45792   5.587   2.814  12.578  0.2263  0.0430  0.0543
25513W        W45793   9.086  13.385   3.246 -0.0638 -0.2198 -0.1774
25514W        W45794  10.365   8.892   2.429  0.1160  0.1370 -0.0394
25515W        W45795  11.298  14.464  12.418  0.0170 -0.2606  0.2443
25516W        W45796   1.862   0.075  15.395  0.1150  0.0881  0.0469
25517W        W45797  11.675   7.308  16.474  0.3467 -0.1373 -0.0863
25518W        W45798   6.536   7.625  15.085 -0.2697  0.2702  0.0533
25519W        W45799  12.287   1.629  14.357 -0.0676  0.1995  0.4074
25520W        W45800   6.138   9.056   2.801  0.2807  0.2836  0.2522
25521W        W45801   3.488  16.646   3.533  0.2186  0.2258  0.5254
25522W        W45802   9.688   0.086   3.301 -0.0567  0.1246 -0.2731
25523W        W45803   4.990   9.244   1.924 -0.0411  0.0794 -0.1350
25524W        W45804   9.518   4.577   4.471  0.2181  0.0538 -0.0239
25525W        W45805   8.271   1.961   1.844  0.0914 -0.1620  0.0725
25526W        W45806  15.381   9.143   0.993 -0.0974 -0.0225 -0.0303
25527W        W45807  13.610  15.021   2.312 -0.3327 -0.0982 -0.0242
25528W        W45808   3.950  12.510  11.930  0.3934 -0.2862 -0.4687
25529W        W45809  15.929  13.223  15.676  0.0349  0.0377  0.3606
25530W        W45810  16.219   1.940  16.201  0.0353 -0.0596 -0.4095
25531W        W45811  12.313  11.737  12.023 -0.0427 -0.0470 -0.2208
25532W        W45812  11.984   6.841  14.878  0.0858 -0.1162 -0.2343
25533W        W45813   8.459  15.548  13.712 -0.0490  0.1955  0.0611
25534W        W45814   8.587   3.935   0.683 -0.0509 -0.0346 -0.1943
25535W        W45815   2.752  14.193   1.403 -0.1891 -0.1472 -0.0715
25536W        W45816   9.336  14.739  15.506  0.0372  0.1069  0.0891
25537W        W45817  14.820  15.233  13.903 -0.1513 -0.1271 -0.0105
25538W        W45818   0.843  14.300   1.146  0.0484 -0.0220  0.2258
25539W        W45819   8.415  10.170   1.380  0.1680 -0.1033 -0.1503
25540W        W45820  17.096  16.972   3.212 -0.0531  0.0655  0.0915
25541W        W45821  12.446   9.231  14.071  0.1001  0.0483 -0.1703
25542W        W45822   1.446  16.033  14.989  0.2515  0.0602  0.0052
25543W        W45823   6.382   6.816   1.097 -0.2863 -0.0581  0.2388
25544W        W45824  16.248  11.290  13.640  0.1342  0.0283 -0.0861
25545W        W45825   8.662  13.140   1.510 -0.0066 -0.1971 -0.0344
25546W        W45826   3.301  17.674  15.448  0.1601  0.0332 -0.1656
25547W        W45827  12.938   5.509   2.024 -0.0066 -0.2109  0.1719
25548W        W45828   8.123  15.281  15.983 -0.1232  0.0715  0.4133
25549W        W45829  13.982  15.229   1.046  0.0187  0.1006  0.3272
25550W        W45830  16.351   5.216  15.909 -0.2213 -0.0664 -0.3324
25551W        W45831   2.452   9.382   2.501 -0.2526  0.1733  0.4850
25552W        W45832   8.737   5.367   2.936  0.1290 -0.0024 -0.1662
25553W        W45833   3.616  11.108  13.462 -0.0606 -0.1994 -0.0662
25554W        W45834  15.386  15.349   4.193 -0.0691 -0.0196 -0.2699
25555W        W45835  17.013   5.147   4.388  0.1250  0.0518  0.1720
25556W        W45836  16.085  12.833   0.275 -0.1195  0.0852  0.2582
25557W        W45837  14.052   1.783   0.636  0.0614  0.2962  0.0857
25558W        W45838   4.049   7.010  13.636  0.1760  0.1245  0.3210
25559W        W45839   3.932   1.076  15.269  0.0160  0.1036  0.4007
25560W        W45840   0.028   7.484  14.385 -0.2594  0.4428 -0.1553
25561W        W45841   0.679  16.520   1.999  0.0118 -0.0003 -0.0836
25562W        W45842   1.398   7.787   0.193  0.2956  0.0908  0.3993
25563W        W45843   5.059  10.830  13.378  0.0073 -0.1393  0.0462
25564W        W45844   6.030   0.271   0.833 -0.0373 -0.0084 -0.2383
25565W        W45845   4.972  13.262   0.711  0.1428  0.2368  0.1731
25566W        W45846   0.369   1.324  15.555  0.1439  0.2018 -0.3384
25567W        W45847   2.941   7.669  14.710  0.3334 -0.0233  0.3114
25568W        W45848   7.998  16.831  12.400  0.0425 -0.0368  0.0457
25569W        W45849   8.593   6.370   2.750 -0.3012  0.2319  0.2232
25570W        W45850  15.879   4.125   4.537  0.0297 -0.0472  0.0671
25571W        W45851  16.577  15.012   5.265  0.0875 -0.1135 -0.1423
25572W        W45852  11.297   8.172   1.030 -0.2308  0.1912 -0.2475
25573W        W45853  12.686  11.073   4.405 -0.1028 -0.0853  0.1843
25574W        W45854   2.272   2.154  14.104  0.0498  0.2933  0.3393
25575W        W45855  11.593   9.409   2.569  0.1326  0.2873  0.1521
25576W        W45856   4.826   3.047  11.613  0.1797 -0.1484  0.0441
25577W        W45857   3.174   1.447   1.485 -0.2243  0.0489  0.1881
25578W        W45858  11.890  10.225  14.352  0.0989 -0.1983  0.0609
25579W        W45859   3.208  15.443   2.608 -0.0794 -0.2052 -0.0808
25580W        W45860  12.262  14.679  16.512  0.1650  0.2143 -0.2084
25581W        W45861   9.330  13.680  14.438 -0.2448 -0.1037 -0.0127
25582W        W45862  11.198   5.015  16.126 -0.2442 -0.0777  0.0370
25583W        W45863  12.698  13.085  16.090  0.0461 -0.0625 -0.2442
25584W        W45864   5.241   3.647   2.302 -0.1106  0.0992  0.1786
25585W        W45865   2.895  13.914  14.138  0.1905 -0.1017  0.0719
25586W        W45866  17.455   9.337  13.077  0.2032 -0.0372  0.2124
25587W        W45867   9.675   1.278  14.927  0.1269  0.0204  0.0430
25588W        W45868  13.944   2.133  13.131  0.1011 -0.4018  0.0429
25589W        W45869  10.376   2.018  15.848  0.0999  0.1536 -0.3862
25590W        W45870   8.055   7.013  15.373 -0.0717  0.2146 -0.0317
25591W        W45871  13.315  10.937   0.977  0.4564  0.0620 -0.0709
25592W        W45872  12.217   6.020   4.450  0.1266 -0.0358 -0.0348
25593W        W45873   9.596  13.152  15.261 -0.0165 -0.1372  0.1876
25594W        W45874   4.655  12.200   2.810 -0.1519 -0.0832 -0.2293
25595W        W45875   3.310  12.730  15.436 -0.1902 -0.0000  0.0978
25596W        W45876  14.040   8.843   2.711 -0.1647  0.0364  0.2709
25597W        W45877   3.277   5.469  14.200 -0.0629  0.2079  0.0729
25598W        W45878   9.964   0.568   4.821 -0.2404 -0.1516 -0.3145
25599W        W45879   3.915  16.929   2.871 -0.0128  0.1913  0.1277
25600W        W45880   0.718   3.555  14.046 -0.1498 -0.1435 -0.1199
25601W        W45881   7.961   2.512  15.822  0.1480 -0.3049 -0.0665
25602W        W45882  11.637   5.502   1.584  0.0403 -0.3746 -0.2215
25603W        W45883   9.957  17.198  14.541  0.1840 -0.4064  0.0140
25604W        W45884   3.828   6.296  14.027  0.2577  0.0727  0.0906
25605W        W45885   7.511  10.252   0.437 -0.3213 -0.0600  0.0013
25606W        W45886  16.522  16.402  15.741 -0.1529  0.1553 -0.1944
25607W        W45887   3.118   4.077  16.468  0.4061  0.1600 -0.1510
25608W        W45888  14.370  15.369   3.409  0.0612 -0.0271 -0.2170
25609W        W45889  14.525   3.918  15.540 -0.1413  0.1131  0.0642
25610W        W45890  11.167   0.256   1.289 -0.0920  0.0857 -0.0589
25611W        W45891  15.741  13.082  12.660  0.1643 -0.1024  0.0621
25612W        W45892   7.083  10.597  13.803 -0.1205 -0.0949  0.0837
25613W        W45893  14.422   2.764   4.343 -0.0305 -0.2068 -0.0065
25614W        W45894   7.049  14.004  11.340 -0.0010  0.2101 -0.0059
25615W        W45895  15.984   9.341  12.648  0.1296 -0.2808  0.0979
25616W        W45896   2.667  11.120  14.985 -0.0286  0.0274  0.0876
25617W        W45897   4.939   5.522  13.379  0.1373  0.1628  0.0520
25618W        W45898   0.780  12.925  16.560 -0.1181  0.1605 -0.0863
25619W        W45899   5.985  11.101  15.661  0.1398 -0.2619  0.0121
25620W        W45900  14.616  13.926   0.113 -0.0329  0.1966 -0.0797
25621W        W45901   4.048  15.857   2.403  0.0461  0.2110  0.0125
25622W        W45902   3.265   6.407   2.633 -0.1429  0.1571  0.3130
25623W        W45903  12.458   1.726  16.076  0.0053  0.2355 -0.1614
25624W        W45904  12.601   6.979   1.879  0.1113  0.0140 -0.0951
25625W        W45905   6.513  14.918   2.145 -0.0455  0.1531  0.1379
25626W        W45906   1.647   6.906  14.523 -0.0951 -0.0740  0.1057
25627W        W45907   9.061  15.410   1.475  0.2561 -0.0151 -0.2714
25628W        W45908   3.200  15.516  15.661 -0.0387  0.0153  0.2052
25629W        W45909  10.772  15.954  14.672 -0.0433  0.0753  0.1310
25630W        W45910  15.835   5.695  12.160 -0.3100 -0.0785 -0.1003
25631W        W45911  11.045   8.701   4.187  0.1753  0.3875  0.3369
25632W        W45912   1.265   8.416  13.433 -0.0734 -0.1382 -0.0266
25633W        W45913  11.427   0.657  11.748 -0.0522 -0.3173  0.0602
25634W        W45914  13.964   9.140  12.442 -0.2642  0.1349  0.0375
25635W        W45915   8.820  12.025   4.168  0.1362 -0.1116 -0.1854
25636W        W45916  16.216   3.451   3.320  0.0981  0.1423 -0.1499
25637W        W45917   4.587   0.284   0.591  0.2397 -0.1588 -0.1317
25638W        W45918   4.645  16.727   1.268 -0.2125 -0.1876  0.0216
25639W        W45919   9.480  14.012   2.255  0.5476  0.3704 -0.0514
25640W        W45920  12.501   0.485   0.630  0.4581 -0.0575  0.2244
25641W        W45921  17.623   1.843   4.684 -0.1226 -0.0695  0.2193
25642W        W45922  12.022   7.901   3.193 -0.1219 -0.0208  0.3897
25643W        W45923   7.922  16.788  14.237 -0.1458  0.3104 -0.1031
25644W        W45924  15.704   6.434   4.197 -0.2357 -0.0238  0.0888
25645W        W45925   6.679  12.103  15.706 -0.0244  0.0725  0.1699
25646W        W45926  14.946   9.303  16.175  0.1941  0.3868 -0.3172
25647W        W45927   6.797  14.121   2.529 -0.2182  0.2405  0.0305
25648W        W45928   7.390  16.079   0.912  0.2631  0.3774  0.3405
25649W        W45929   6.463   6.690   4.128  0.0539  0.1026  0.0305
25650W        W45930  15.184  17.208   3.166  0.2280 -0.1810 -0.1176
25651W        W45931  13.015   7.948  12.377  0.2011 -0.3323  0.3068
25652W        W45932   5.597   9.102   2.916  0.1184 -0.2351  0.0822
25653W        W45933  13.874   6.573   4.844 -0.3002 -0.1012  0.1814
25654W        W45934   8.869   1.965  12.851 -0.1999 -0.1278  0.1948
25655W        W45935   3.697  13.169   4.551  0.1607  0.0582  0.0807
25656W        W45936   8.201  17.471  15.854 -0.0943 -0.0066  0.0961
25657W        W45937   6.337   4.421  12.629  0.0780 -0.1364  0.0166
25658W        W45938  13.942  17.863   1.428  0.0796  0.0348  0.3045
25659W        W45939  14.001  14.741   1.520  0.0047  0.2811  0.3457
25660W        W45940   5.243   5.654  12.897 -0.0195 -0.3174  0.1772
25661W        W45941   3.639   0.948  16.515 -0.0327 -0.0383 -0.0531
25662W        W45942   3.393   2.229   0.955  0.1634 -0.2718  0.0150
25663W        W45943   4.086   0.014  14.734 -0.2304  0.2671  0.1596
25664W        W45944   9.400   2.889  14.268  0.1573  0.1094  0.0296
25665W        W45945   4.464  10.761  16.533  0.1783 -0.2619  0.3822
25666W        W45946   3.074   9.227   1.085 -0.0582  0.2868 -0.0160
25667W        W45947   6.665   9.706   3.954  0.1140  0.1886  0.0645
25668W        W45948   2.186   8.965  14.135  0.1880 -0.2047  0.0640
25669W        W45949  17.452   2.434  13.927 -0.1655 -0.1465  0.1059
25670W        W45950   9.429  17.751   4.574  0.0173 -0.0835  0.0282
25671W        W45951  14.937   2.364  16.348  0.1880  0.0079 -0.1538
25672W        W45952  12.200  10.586   1.165 -0.0862  0.0076 -0.1617
25673W        W45953   4.021   1.898   4.372 -0.2398 -0.0862  0.2936
25674W        W45954   1.701  16.788  14.281 -0.2348 -0.0778 -0.2580
25675W        W45955   3.036  15.085   2.895 -0.0337 -0.2344 -0.1616
25676W        W45956   7.059  11.229  15.641  0.4997  0.0328  0.1833
25677W        W45957  16.232   7.009   3.486  0.0193 -0.1847 -0.1064
25678W        W45958   7.316   9.559  13.177  0.2891  0.1808 -0.2790
25679W        W45959   4.016   4.692   2.367 -0.1738 -0.3210  0.2375
25680W        W45960  17.136   9.504  13.476  0.2517  0.0374 -0.0756
25681W        W45961   6.276  14.766  14.783 -0.4001 -0.4519 -0.0986
25682W        W45962   3.089   7.712  12.604 -0.1607 -0.2546  0.1302
25683W        W45963   6.817  12.579  12.554 -0.0076  0.0984  0.0427
25684W        W45964  15.334   1.356   4.118  0.3901 -0.0902  0.1541
25685W        W45965   5.273   3.630   2.908  0.1652 -0.1153 -0.2919
25686W        W45966  15.451  11.817   1.998  0.0790  0.1586 -0.0458
25687W        W45967  10.819  10.319  16.650  0.0054 -0.2910 -0.1139
25688W        W45968  13.089   1.678  16.275 -0.0558 -0.1266 -0.0995
25689W        W45969  10.485  10.734   0.074  0.1158 -0.4740 -0.0922
25690W        W45970  16.611   4.128   3.253 -0.1039  0.3904 -0.1242
25691W        W45971   7.345  15.663  12.165  0.0797 -0.0826 -0.1199
25692W        W45972   2.543  12.960   0.153  0.2172 -0.1022 -0.0742
25693W        W45973  16.857   5.775   1.257 -0.3133  0.0104 -0.0994
25694W        W45974   4.154  13.623   4.455  0.0457  0.1190 -0.3007
25695W        W45975   7.577   5.869  13.102  0.2799  0.2949 -0.0574
25696W        W45976   3.309   6.322  16.433  0.0415 -0.2847 -0.0039
25697W        W45977   5.873   6.381   4.158 -0.4580 -0.1103 -0.4669
25698W        W45978   7.689   2.020  14.317  0.0555  0.0288 -0.1956
25699W        W45979   3.335   0.448   0.692 -0.2029 -0.0146  0.0903
25700W        W45980  16.320  12.310   2.073  0.0943 -0.0834 -0.0486
25701W        W45981  14.273  11.405   2.957 -0.4081 -0.2864  0.1002
25702W        W45982  16.921   3.270   1.078  0.0232 -0.0121 -0.2038
25703W        W45983   7.407  14.785  16.651 -0.2692 -0.1511 -0.2416
25704W        W45984   5.931   0.651   4.734  0.0078  0.0553 -0.2948
25705W        W45985   1.235   6.265   3.942 -0.1545  0.0980 -0.0366
25706W        W45986   6.340   0.028   0.574  0.0113 -0.0654 -0.1608
25707W        W45987  16.203  13.061  12.823 -0.4194  0.0906  0.1804
25708W        W45988  10.465   1.034  13.314  0.0277  0.2622 -0.1801
25709W        W45989   4.599  14.932   1.734 -0.0103 -0.0599  0.0576
25710W        W45990  17.515   8.872   1.803  0.0753 -0.0484  0.1070
25711W        W45991   1.484  12.994   5.113 -0.3463  0.1979 -0.0448
25712W        W45992  10.942   8.397  11.865  0.2302  0.2629  0.1041
25713W        W45993  10.641   0.206   3.606  0.0832  0.1650 -0.0129
25714W        W45994   9.244   2.761   1.128 -0.2014 -0.0867 -0.1093
25715W        W45995   3.670   9.227  14.323 -0.0973 -0.3383 -0.0409
25716W        W45996   1.080   2.423   2.977  0.0734 -0.1112 -0.0686
25717W        W45997   9.526  10.961  13.665 -0.1504  0.0460 -0.2311
25718W        W45998  12.579   8.322   1.451  0.0236 -0.1410 -0.0971
25719W        W45999  15.584  15.841  14.736 -0.1955  0.2162 -0.2970
25720W        W46000   6.761   2.513   1.463  0.1715  0.1995  0.2262
25721W        W46001  17.259  10.247   2.144 -0.2895 -0.0927  0.0780
25722W        W46002  17.672   8.753   5.164  0.3557 -0.1846 -0.0741
25723W        W46003  12.496   6.766   1.454 -0.1730  0.0619  0.1736
25724W        W46004  13.957   1.906  12.198 -0.0394 -0.1712  0.2763
25725W        W46005   8.923   7.297  12.391 -0.0211  0.1185 -0.2541
25726W        W46006  11.323  15.881  16.165  0.0914  0.0170  0.1002
25727W        W46007   2.615  14.738  13.114 -0.2944  0.0313 -0.4746
25728W        W46008   1.867   7.887  16.696  0.0699 -0.0317 -0.0810
25729W        W46009  12.367  17.546  15.830 -0.1425  0.2994 -0.2293
25730W        W46010  14.936  13.443  11.880 -0.0985  0.2571  0.1568
25731W        W46011   8.913  12.208   2.306  0.0062  0.1046  0.2013
25732W        W46012   6.092   3.034  12.735 -0.0579  0.1592 -0.2661
25733W        W46013   0.097   0.125  13.888  0.1258 -0.1648  0.1579
25734W        W46014  14.643  13.709  12.924 -0.0121 -0.0165  0.2466
25735W        W46015  12.085  17.280   2.070  0.2374 -0.0621  0.1191
25736W        W46016   1.247   4.595  16.613 -0.0089 -0.0651  0.1201
25737W        W46017  12.221  15.854  12.334 -0.1588  0.1423  0.0453
25738W        W46018   9.928   2.886   3.615  0.3032 -0.1470  0.1275
25739W        W46019   6.576  16.887  13.375 -0.1365  0.5930  0.0521
25740W        W46020  12.948  12.213  12.052 -0.1445 -0.1108 -0.2932
25741W        W46021  11.556   3.486   2.282  0.0334  0.2831  0.3361
25742W        W46022   8.452   2.209   1.318  0.1840 -0.2699 -0.1405
25743W        W46023   2.224   3.116  16.599  0.0854  0.0020  0.2639
25744W        W46024   9.833  12.434  14.916 -0.0215 -0.1086  0.0161
25745W        W46025  15.041  15.059   0.622  0.1652 -0.3279 -0.0954
25746W        W46026   9.465   4.493   1.458  0.1258 -0.1530 -0.2421
25747W        W46027  10.573   3.535  14.938  0.1067  0.0737  0.0326
25748W        W46028   8.910  12.460   2.779 -0.0333  0.1417 -0.0212
25749W        W46029   4.777  10.508  16.155  0.3769  0.0733  0.3340
25750W        W46030   9.812   0.045  14.681 -0.0024 -0.1311  0.2384
25751W        W46031   1.750  10.989   0.675 -0.2486  0.0858 -0.1151
25752W        W46032  15.406  13.322   2.510  0.0802  0.1152 -0.1938
25753W        W46033   9.218   2.930  14.811  0.2938 -0.0723  0.1437
25754W        W46034   2.346  15.612   2.582  0.1981 -0.2223  0.1102
25755W        W46035  11.994  16.227   1.300  0.1036 -0.0154  0.0050
25756W        W46036  15.845  11.626   0.613  0.0510  0.1156 -0.2120
25757W        W46037  14.840   3.582  15.137 -0.2934 -0.3552 -0.2594
25758W        W46038  13.378   8.794  13.832  0.0829 -0.1165  0.1009
25759W        W46039  17.231   4.198   0.259  0.0420 -0.1300  0.0288
25760W        W46040   4.540  15.364   2.291  0.1332 -0.1333 -0.0920
25761W        W46041  10.390  11.061   2.351  0.0085 -0.2028 -0.2408
25762W        W46042  11.568  17.306   3.000  0.1134  0.0674 -0.0832
25763W        W46043  17.926  11.582   0.155 -0.1888  0.1131  0.0783
25764W        W46044   3.464   6.347   1.798 -0.0296  0.0927 -0.3714
25765W        W46045   2.954   5.664   4.715  0.0041  0.0390  0.2235
25766W        W46046   3.477  11.649   0.287  0.0854 -0.1028 -0.1014
25767W        W46047  14.714   4.767   2.808 -0.0115 -0.0578 -0.2159
25768W        W46048   8.428  11.977  13.690 -0.2049  0.0705 -0.0132
25769W        W46049   0.682   2.709   0.238  0.1289  0.2558  0.1394
25770W        W46050   0.652  10.382   2.601  0.1854 -0.0233 -0.1255
25771W        W46051  16.548   0.918   3.646 -0.0460  0.0890 -0.2358
25772W        W46052   7.249  11.359  12.948 -0.0850  0.0388  0.0103
25773W        W46053   8.395  10.637   3.903 -0.0162  0.0840 -0.0511
25774W        W46054   5.024   5.169   1.828  0.3038  0.1085  0.1126
25775W        W46055  16.147  10.331   4.282  0.0888  0.2349 -0.3594
25776W        W46056  14.852   0.450  13.327 -0.0001  0.0259 -0.0226
25777W        W46057  10.634   4.024   1.028 -0.0059 -0.1623 -0.1431
25778W        W46058   5.503   0.402   4.948 -0.1913 -0.1994  0.2408
25779W        W46059  12.869   3.736   4.488  0.1318  0.2663 -0.0669
25780W        W46060  11.111   5.760  15.209 -0.0138  0.0248  0.1203
25781W        W46061  15.226   8.395   0.744 -0.1211 -0.1627 -0.0805
25782W        W46062   8.474   5.729  11.332 -0.1580 -0.4644 -0.1182
25783W        W46063   9.390   7.272  12.251 -0.2933 -0.4163  0.0220
25784W        W46064   8.463  10.315   3.016  0.0303 -0.2285 -0.0234
25785W        W46065  14.155  10.003  14.593  0.1925  0.2146 -0.0182
25786W        W46066   7.147  13.769  16.279 -0.0242  0.2599  0.0528
25787W        W46067  15.399   7.346   1.142  0.1653 -0.0864  0.2521
25788W        W46068  12.570  10.707  13.089  0.3036 -0.1481 -0.2647
25789W        W46069  11.511  13.866  13.277 -0.1137  0.2612 -0.0184
25790W        W46070  10.816   6.943  14.024 -0.1179 -0.0172 -0.2402
25791W        W46071   5.746   3.352   2.877  0.3440 -0.0735  0.1054
25792W        W46072   9.612  14.829   2.298 -0.1829 -0.0583 -0.3811
25793W        W46073   0.371   1.251  13.216 -0.1570 -0.2897 -0.4091
25794W        W46074   9.059  17.584   0.009  0.1917  0.2478  0.2656
25795W        W46075   6.169   3.638   2.892  0.0468 -0.1348  0.1099
25796W        W46076   3.626   8.277   0.690  0.1789 -0.0185  0.0598
25797W        W46077   0.826   3.238  11.331 -0.0261  0.0698  0.0363
25798W        W46078   4.354   8.362  13.546 -0.2536  0.1675  0.2282
25799W        W46079  17.389  12.910   2.592 -0.0306 -0.1606  0.1937
25800W        W46080   9.169   6.450   0.863 -0.2515  0.1801 -0.1266
25801W        W46081  14.877   6.192   3.229 -0.2257  0.0645 -0.1018
25802W        W46082  14.107   7.485   1.723  0.0745 -0.0065 -0.0178
25803W        W46083   3.961   4.632   0.212  0.0120 -0.1175  0.0520
25804W        W46084  17.450  14.767   0.740 -0.0142  0.0939  0.0625
25805W        W46085   9.465   6.444   1.396 -0.0942  0.1734 -0.2431
25806W        W46086  11.349   8.011  12.955 -0.0821  0.2980  0.2098
25807W        W46087   2.825   8.533   3.487  0.2142 -0.0724 -0.2217
25808W        W46088  10.277  14.573   3.159 -0.2025 -0.0377  0.3615
25809W        W46089  15.283   8.166  15.545 -0.0399 -0.0731 -0.1394
25810W        W46090   6.928   3.877   4.025  0.3240 -0.2129  0.0876
25811W        W46091   2.002   0.545   0.217  0.1598 -0.1478  0.2475
25812W        W46092  10.246   1.877  13.490 -0.0205 -0.1509 -0.3757
25813W        W46093  16.525   3.690  12.373 -0.0967  0.0126  0.0175
25814W        W46094  15.370  14.366  16.260 -0.0553  0.1961 -0.2157
25815W        W46095   3.747   1.496   3.700 -0.0059 -0.1966  0.1038
25816W        W46096   7.809  12.729  15.346 -0.0828 -0.2195  0.1213
25817W        W46097   2.950  16.778   1.632  0.0099 -0.1351  0.0397
25818W        W46098   6.187  12.859   2.361  0.0759 -0.1742 -0.0515
25819W        W46099   4.168  14.705   0.795  0.1837  0.0189  0.0094
25820W        W46100  11.281  10.289   4.250 -0.0127 -0.1564  0.4650
25821W        W46101   2.311   7.676  15.955  0.0857 -0.2213  0.4343
25822W        W46102  13.938   9.507  16.456 -0.1831  0.1363  0.0327
25823W        W46103  10.630   7.941  14.892 -0.1081 -0.2477 -0.2411
25824W        W46104   0.356  14.569  12.746 -0.0601 -0.0817 -0.0964
25825W        W46105   4.322  10.766   2.254  0.0534 -0.1694  0.1188
25826W        W46106  15.536  12.458  13.524 -0.1817  0.4356 -0.1279
25827W        W46107   5.862   2.691  16.293  0.0220  0.1729 -0.2497
25828W        W46108  15.054   0.677   3.602 -0.1411 -0.4790 -0.1146
25829W        W46109  16.537  12.070  14.201  0.2449 -0.0435 -0.1311
25830W        W46110  11.093  17.808   3.040 -0.0831  0.1388 -0.1936
25831W        W46111   8.166   6.019   3.228  0.0443  0.0641  0.2670
25832W        W46112   3.009  13.527   3.549  0.0044 -0.0086 -0.3225
25833W        W46113  11.501   1.340   2.889 -0.2775  0.0486 -0.0032
25834W        W46114   9.792  14.410   2.584 -0.3674 -0.2082  0.2012
25835W        W46115   9.259  12.552   2.401 -0.0549 -0.0102  0.0464
25836W        W46116   6.470   9.568   1.076 -0.4519  0.0848  0.3135
25837W        W46117   5.463   8.483   3.739  0.1800  0.1608  0.0567
25838W        W46118   0.435   3.025   4.485  0.1360  0.2762 -0.3258
25839W        W46119   1.328  10.668  16.228 -0.0340 -0.2299  0.3436
25840W        W46120   7.221   4.739  11.860  0.0691  0.4856 -0.2992
25841W        W46121   3.469   4.570   0.897  0.1671 -0.0611  0.2211
25842W        W46122  10.775   3.362  11.419 -0.1169  0.2383 -0.2155
25843W        W46123  17.900  14.740  14.635  0.0708 -0.1109 -0.0576
25844W        W46124   0.729   4.521   0.967  0.3781  0.0159  0.1272
25845W        W46125   4.114  14.594  12.917 -0.0618 -0.4697  0.2074
25846W        W46126   7.062   6.920   3.437  0.0097 -0.0130 -0.0677
25847W        W46127  12.427  14.653  14.376  0.1302  0.0016  0.3265
25848W        W46128   6.973   3.218  16.564 -0.4164 -0.1924 -0.3299
25849W        W46129  12.927   8.334   1.784 -0.2719 -0.0152 -0.0185
25850W        W46130   3.156  12.378   4.394  0.2063  0.0663 -0.0872
25851W        W46131   8.969  15.963  15.008  0.0325  0.1068 -0.1918
25852W        W46132   6.422  16.127   3.852 -0.1042  0.1105 -0.0648
25853W        W46133  16.898  17.391   4.282 -0.2532  0.1743 -0.0714
25854W        W46134  17.412   9.450   3.869  0.1673 -0.3784 -0.1845
25855W        W46135   6.771   5.065  15.546 -0.1083  0.1070  0.0791
25856W        W46136   9.523   4.086  13.650 -0.0028  0.0665 -0.0184
25857W        W46137   8.809   0.373  11.429  0.4198 -0.1223 -0.4065
25858W        W46138   0.300  14.869  15.604 -0.0303  0.0718  0.3116
25859W        W46139  13.473   4.220  13.633  0.2160 -0.0203  0.1842
25860W        W46140  14.572  17.240  12.682  0.1431 -0.2561 -0.0605
25861W        W46141   4.225  10.360  14.445 -0.1447  0.0189 -0.0733
25862W        W46142   1.501  11.226   0.212 -0.0933 -0.1780  0.0790
25863W        W46143   9.922  11.186  14.164 -0.0853  0.1416 -0.1115
25864W        W46144  14.420   6.392   4.172  0.2185 -0.1923 -0.1666
25865W        W46145  12.836   5.460  13.709 -0.2794  0.2352  0.0248
25866W        W46146  10.266  17.067  14.088 -0.1054 -0.1875 -0.0569
25867W        W46147  14.103  11.801   3.753 -0.0533 -0.8322  0.1492
25868W        W46148   4.255  16.593  12.587 -0.1869 -0.3748 -0.2704
25869W        W46149  17.647   1.872  15.826  0.5209  0.0443  0.3267
25870W        W46150   6.196  15.805   2.983 -0.2171 -0.0272 -0.1737
25871W        W46151   7.933  10.179  13.719 -0.0437 -0.0996 -0.0369
25872W        W46152   3.311  10.577   1.353  0.2181 -0.1151 -0.1589
25873W        W46153  12.457   7.202   3.717 -0.1210  0.3785 -0.0488
25874W        W46154   1.702   1.017  15.183  0.3661 -0.0525 -0.0802
25875W        W46155   3.294  11.869   2.659  0.1008  0.0537  0.0170
25876W        W46156  16.799  16.026   1.388 -0.1552  0.0587 -0.0644
25877W        W46157   2.241   9.720  13.246  0.0594  0.0031  0.1250
25878W        W46158   2.651  15.650   4.499  0.5046  0.4056  0.3392
25879W        W46159   0.652   4.528  14.083  0.0879 -0.1028 -0.1103
25880W        W46160   1.276   1.270  15.375  0.0102  0.1510 -0.3535
25881W        W46161   8.381   9.384   1.205  0.1156 -0.1339  0.2334
25882W        W46162   1.059   2.223   1.507  0.0629 -0.3628  0.3511
25883W        W46163  15.179   9.586  13.321  0.1049  0.0404  0.1691
25884W        W46164   0.417   7.860  15.632  0.2793  0.1669  0.1060
25885W        W46165  11.823   6.889  15.356 -0.1329 -0.1253 -0.1707
25886W        W46166  10.176   9.262   0.165  0.0747  0.1273 -0.0362
25887W        W46167  10.406  15.429  16.121 -0.0396 -0.0741 -0.0865
25888W        W46168   5.677   1.261   2.836  0.2377  0.2616 -0.1124
25889W        W46169  14.659   8.085   2.648  0.5964  0.3416 -0.1938
25890W        W46170   9.211   4.712  16.598 -0.1495  0.2123 -0.0996
25891W        W46171  12.889   1.771   0.660 -0.1540 -0.0601 -0.4613
25892W        W46172  17.114   7.244  12.222  0.0636  0.1106  0.0093
25893W        W46173   8.910   1.258  12.131  0.0073  0.2669  0.2835
25894W        W46174   8.831  15.321   2.174  0.1413 -0.3243 -0.2472
25895W        W46175  11.266  11.394  16.154 -0.1185  0.0987 -0.0369
25896W        W46176   1.607   8.992   5.392  0.1059  0.3553  0.2783
25897W        W46177  12.606  11.842   1.443  0.0131  0.1266 -0.1029
25898W        W46178   3.408   7.246  13.480  0.0018  0.0527 -0.4277
25899W        W46179  14.470  14.584  13.319  0.1300  0.3991 -0.1289
25900W        W46180   8.915  13.988  14.472 -0.1008  0.0382  0.0093
25901W        W46181  13.053  16.171   2.821 -0.0024  0.3943 -0.1137
25902W        W46182  14.196   3.711   0.926 -0.0651  0.1638 -0.1219
25903W        W46183  14.517   6.130   1.194  0.1303  0.1191  0.0965
25904W        W46184  13.602  13.701  12.806 -0.1053 -0.1250 -0.0634
25905W        W46185  16.128   5.290   2.480  0.2806 -0.3210 -0.3085
25906W        W46186   5.813   4.068   1.088  0.1828 -0.0105  0.1285
25907W        W46187   2.675   1.743  15.867  0.2587  0.1322  0.2924
25908W        W46188   3.940   7.975   2.184  0.2062  0.1622 -0.0859
25909W        W46189   1.501   1.274  12.835  0.1472  0.0339 -0.1698
25910W        W46190   1.329   2.731  16.011 -0.1194 -0.1643  0.1524
25911W        W46191   1.589   7.269   3.843  0.1111 -0.0025  0.0609
25912W        W46192  10.198  14.955   0.774  0.1966  0.1531  0.4367
25913W        W46193  13.082  15.830   3.787  0.2234  0.0867  0.2784
25914W        W46194   6.141  12.123   3.860  0.0839  0.1825 -0.1443
25915W        W46195   6.063   0.104  14.927 -0.0112  0.0708 -0.0897
25916W        W46196   0.425  17.765   4.138  0.2508 -0.0692  0.3001
25917W        W46197   8.121  13.040   1.727  0.1219  0.3060 -0.1019
25918W        W46198   0.981   9.746   5.352  0.0003  0.2257  0.0651
25919W        W46199   0.078  17.556   1.200  0.1906  0.1639 -0.1318
25920W        W46200   4.200  16.202  16.122  0.0079 -0.2080  0.0204
25921W        W46201   2.802  12.226  14.236  0.2670  0.1330  0.4322
25922W        W46202   8.504   5.704  15.365 -0.0939 -0.1178  0.0052
25923W        W46203   8.939   1.250  13.465 -0.2541  0.2312 -0.1650
25924W        W46204   3.795  15.304  14.730 -0.2629 -0.0860 -0.0022
25925W        W46205  17.303  14.317   3.505 -0.0206 -0.0878 -0.0199
25926W        W46206   0.966   8.086  14.154 -0.1764 -0.0140  0.2126
25927W        W46207  12.818   7.798  16.662 -0.1822 -0.1199  0.1449
25928W        W46208  10.512  15.074  14.455  0.0355 -0.1760 -0.1593
25929W        W46209  16.477   9.991   0.265  0.0507 -0.3141 -0.2874
25930W        W46210  14.401  13.269   4.400 -0.2196 -0.0068  0.1187
25931W        W46211   9.578   1.348  16.601  0.0586  0.1819  0.0532
25932W        W46212  15.586  15.209   0.860  0.2992  0.0760  0.1580
25933W        W46213  13.770   0.537   0.110  0.2808  0.3477  0.0365
25934W        W46214  11.490  16.276   4.219  0.1856  0.0392  0.3538
25935W        W46215   4.429  12.668  11.861  0.2336 -0.2390  0.2450
25936W        W46216   2.524  10.619   2.709  0.0232 -0.2059 -0.1454
25937W        W46217   1.867  10.305  13.981  0.2329 -0.1185  0.0529
25938W        W46218   6.586  17.279   3.429  0.3333  0.0978  0.2735
25939W        W46219   6.600   3.375   2.570 -0.3109 -0.0841 -0.0187
25940W        W46220  14.399   6.004  11.128 -0.0757 -0.1556 -0.1115
25941W        W46221   7.218   4.440   4.904 -0.1319 -0.0804  0.0614
25942W        W46222   7.351   0.523   2.009 -0.0441 -0.3006 -0.0106
25943W        W46223  15.637   5.192  15.276 -0.2938  0.1172  0.0235
25944W        W46224  17.798  15.364   4.490  0.0652  0.2001  0.0079
25945W        W46225  14.000   1.984   4.247 -0.3082  0.0582  0.1995
25946W        W46226   5.185   1.573   0.474 -0.1161 -0.0291 -0.0530
25947W        W46227   7.094  16.769   0.262  0.0202 -0.0398 -0.2414
25948W        W46228   0.958  16.955  12.604  0.0760 -0.0253 -0.0119
25949W        W46229   3.710  11.721   1.040  0.0610 -0.2275 -0.2812
25950W        W46230   4.834   6.776   0.529  0.0354  0.1279  0.1100
25951W        W46231  16.258   7.579  16.439  0.1057 -0.0813  0.0656
25952W        W46232   5.722   5.761  14.728 -0.3340 -0.0835  0.0505
25953W        W46233   9.733   2.181   0.294 -0.1151  0.0633 -0.1633
25954W        W46234   0.635  10.747   5.342  0.1768 -0.2227  0.1832
25955W        W46235   9.865   6.549  15.567  0.2811  0.1469  0.0391
25956W        W46236   3.160   0.548  13.046  0.3777  0.2112 -0.1056
25957W        W46237   2.709   7.382   4.235 -0.1031  0.0304 -0.3499
25958W        W46238   9.606   0.381  16.360 -0.0962 -0.0069 -0.0973
25959W        W46239   4.827   5.701   3.726  0.1863  0.0569  0.1639
25960W        W46240   3.897   9.569  15.355 -0.0057  0.0320 -0.1554
25961W        W46241  10.590  13.202  12.664 -0.0155  0.0078 -0.0431
25962W        W46242   1.707  13.890  15.737 -0.2554 -0.0699 -0.1074
25963W        W46243   5.174  13.329  12.243  0.0927 -0.1060  0.0374
25964W        W46244   3.693  17.289   1.972 -0.1940  0.1054 -0.1558
25965W        W46245   8.348  15.599   2.915  0.0279  0.2079 -0.2916
25966W        W46246   9.264   9.919   1.655  0.1067  0.1516 -0.2988
25967W        W46247  13.597   9.383  15.117 -0.0190  0.1191  0.2683
25968W        W46248  16.472   5.969   1.754 -0.0153  0.1209  0.0427
25969W        W46249   9.742  15.575   4.000  0.0476 -0.0888  0.2159
25970W        W46250  13.369  14.926   4.317 -0.0597  0.1934  0.1145
25971W        W46251   9.963  10.151   1.082  0.1025 -0.0354  0.0473
25972W        W46252   4.247   3.489  14.348 -0.1280 -0.0615 -0.2492
25973W        W46253  11.899   6.245   3.446 -0.1296  0.1082  0.0798
25974W        W46254   9.854   9.650   4.095 -0.1519 -0.0133  0.0218
25975W        W46255   0.315  11.263   4.994  0.1771  0.0161  0.3417
25976W        W46256  13.272   4.524  16.127  0.0782  0.1367 -0.0168
25977W        W46257  14.245  14.879  14.233 -0.0617  0.1498 -0.0487
25978W        W46258   7.360   6.283  13.307  0.1159  0.3128  0.1058
25979W        W46259   9.140  10.411   0.973  0.2317  0.0921  0.0386
25980W        W46260  13.538   6.649   1.497  0.0464  0.4480 -0.0754
25981W        W46261   3.890  10.759  16.311  0.0477  0.0499 -0.2351
25982W        W46262   6.777  13.047  14.991  0.2955 -0.0788  0.3081
25983W        W46263  15.179  11.340   3.474 -0.1227  0.0495  0.0273
25984W        W46264  16.366  10.292  15.595 -0.0346  0.1677 -0.1965
25985W        W46265  15.077   9.152  15.216 -0.1969  0.1961 -0.1042
25986W        W46266  14.805   7.721   2.138  0.3210  0.2561  0.2602
25987W        W46267   5.316   1.988   0.695  0.1430 -0.4676 -0.1467
25988W        W46268  14.281  13.651  15.017 -0.0235 -0.2259 -0.1747
25989W        W46269   2.859  14.690   4.240 -0.1187 -0.0313  0.1162
25990W        W46270  11.742  14.894   3.386  0.0063 -0.0624  0.1136
25991W        W46271   2.786   7.191  13.788 -0.0357  0.0824  0.2178
25992W        W46272   2.460   4.622   2.405 -0.2603 -0.3297  0.0856
25993W        W46273   0.178   6.323   3.878  0.0714  0.2577 -0.0131
25994W        W46274   6.555   4.799  13.173 -0.2150  0.0437 -0.0056
25995W        W46275   0.151   2.249  12.113 -0.2764 -0.0271 -0.0565
25996W        W46276   4.754  11.621  15.429  0.0979 -0.3661  0.2686
25997W        W46277  15.478  16.676  15.565  0.0980  0.1597 -0.1756
25998W        W46278   5.983   4.318  14.976  0.2503  0.2337 -0.0161
25999W        W46279  13.246   4.675  15.406  0.0954  0.1860  0.2944
26000W        W46280  17.602   2.336  16.341  0.0803  0.2971  0.2106
26001W        W46281  15.087  17.034   0.940 -0.2914  0.2390 -0.0101
26002W        W46282   5.551  14.716  14.210  0.0654  0.1949  0.0290
26003W        W46283   6.834   8.495   3.521  0.1293 -0.0029 -0.0051
26004W        W46284   4.101  11.242  13.223 -0.0740  0.1251 -0.0031
26005W        W46285   5.830  14.594  14.683  0.0958 -0.0322  0.0817
26006W        W46286   5.252   5.195   0.425  0.0723  0.0353 -0.1234
26007W        W46287   7.018  13.022   5.032  0.2179  0.1603  0.0306
26008W        W46288   8.861   1.357   0.938 -0.1082  0.2558  0.2446
26009W        W46289  16.024  15.505   1.855  0.2128 -0.3123 -0.0067
26010W        W46290   1.720  10.928   1.246 -0.3121 -0.0986  0.0454
26011W        W46291  15.048   0.517   2.788 -0.0187 -0.0928 -0.3278
26012W        W46292  11.674   4.963  14.982 -0.2529 -0.1102  0.1150
26013W        W46293   3.801   3.813   2.642  0.0571  0.0422 -0.1030
26014W        W46294   9.270   2.555  11.757 -0.0696 -0.0232 -0.2401
26015W        W46295  14.944  11.755  15.153  0.3471 -0.3822  0.0774
26016W        W46296  12.046  15.955   1.774  0.0588  0.2524 -0.0973
26017W        W46297  15.683   0.509   0.580 -0.0784  0.2881 -0.0094
26018W        W46298   1.334  11.605   3.334 -0.1890 -0.1864  0.0824
26019W        W46299   5.460  16.042  16.688  0.0248  0.0899  0.2281
26020W        W46300  14.878  15.776   2.374  0.1453 -0.0602 -0.1336
26021W        W46301  11.339  12.979  16.587 -0.1934 -0.0188 -0.0317
26022W        W46302   6.341  17.230  12.574  0.2711 -0.0832 -0.0070
26023W        W46303   4.782  15.201   2.732  0.0379 -0.0793 -0.2894
26024W        W46304   4.004   6.524  13.608 -0.1500 -0.2735  0.0105
26025W        W46305  11.626   2.266   0.273 -0.3302  0.0503  0.1166
26026W        W46306  17.225   3.981  12.990 -0.0920  0.1177  0.3597
26027W        W46307  13.218   5.998  15.829 -0.2557  0.0370  0.0810
26028W        W46308  11.357   4.275  15.305 -0.0251  0.0249 -0.0442
26029W        W46309   5.904  17.784  12.616 -0.2358 -0.1020  0.1191
26030W        W46310  11.075  11.499   3.909 -0.1547  0.3452  0.1494
26031W        W46311  14.783  13.627  14.994 -0.1301 -0.3259 -0.5295
26032W        W46312   5.718   4.784   4.596  0.0388  0.0925 -0.1539
26033W        W46313  11.814  12.441  15.508  0.2037  0.2219 -0.0453
26034W        W46314   5.070   2.060  14.180 -0.3083  0.2619 -0.1493
26035W        W46315   9.988  16.938   1.083  0.0750 -0.1791  0.2823
26036W        W46316  12.747  14.064   1.549 -0.1656 -0.2506 -0.1552
26037W        W46317   5.957   8.324   0.007  0.1517 -0.4030  0.0967
26038W        W46318   3.190  11.791  15.661 -0.1132 -0.0094 -0.0687
26039W        W46319  10.601  12.393  13.805  0.1631 -0.1156 -0.0118
26040W        W46320   1.798   1.957  15.628 -0.3667  0.0045 -0.3323
26041W        W46321  12.150   7.910  14.031  0.2122  0.2822 -0.1190
26042W        W46322   5.743  10.422   4.877  0.0105  0.0505  0.0175
26043W        W46323   9.301   9.138   3.829 -0.1163  0.1297 -0.0357
26044W        W46324  10.452  16.889  15.020 -0.0157  0.0532 -0.2874
26045W        W46325   6.508   7.513   1.902 -0.2733  0.1370 -0.1349
26046W        W46326   3.396   1.537  14.476 -0.0625  0.1290 -0.1391
26047W        W46327  15.872   4.785  16.490 -0.1292 -0.0025 -0.0913
26048W        W46328  14.455   7.138  15.739 -0.0853 -0.0229 -0.2729
26049W        W46329   2.407   4.606  12.617 -0.3331 -0.0173 -0.2583
26050W        W46330   9.209   8.007   1.132  0.4406 -0.2765  0.1605
26051W        W46331   8.469   7.745  15.228 -0.1380 -0.0300  0.0441
26052W        W46332   6.377  12.143  13.039  0.0120 -0.0625 -0.0495
26053W        W46333   1.782  14.599  11.942 -0.1677 -0.1773 -0.2458
26054W        W46334   7.984   4.973  16.601  0.0143 -0.0474  0.1838
26055W        W46335  17.853  13.016   1.076  0.1029 -0.1931  0.0036
26056W        W46336  17.479  10.554   4.695 -0.1750  0.1735 -0.0424
26057W        W46337   4.353  14.094  14.233  0.1111 -0.2448  0.0460
26058W        W46338   6.662  11.216  12.931 -0.0274  0.4323  0.0215
26059W        W46339   6.210   5.679   2.226  0.0810 -0.0023  0.0690
26060W        W46340   3.255   9.109  13.005 -0.1387  0.0418 -0.0578
26061W        W46341  11.372   3.810  15.537 -0.0430 -0.1197  0.1323
26062W        W46342  17.508   9.262  15.646  0.0815  0.0820 -0.0065
26063W        W46343  12.141  13.252  12.072  0.2158  0.2141 -0.0064
26064W        W46344   0.527   2.234   3.718 -0.0491 -0.0561  0.1897
26065W        W46345   8.962  11.901  15.999 -0.0884 -0.2386 -0.4126
26066W        W46346  12.247   9.193   3.271 -0.0262 -0.0999  0.1429
26067W        W46347  13.648  10.560   0.790 -0.1198  0.1910 -0.0998
26068W        W46348  12.668   6.720   0.993 -0.3394 -0.1331 -0.0251
26069W        W46349   0.273   2.922  15.414 -0.0020 -0.1332 -0.0340
26070W        W46350   9.601  10.901  15.105 -0.0157  0.2030 -0.1525
26071W        W46351  11.149   5.565   4.464  0.0960  0.0210 -0.0846
26072W        W46352  11.840   2.119  11.055  0.0061 -0.1512  0.1499
26073W        W46353   8.643   5.179   0.672 -0.1234 -0.2886 -0.1489
26074W        W46354  14.171   9.164   0.866 -0.2252 -0.1358 -0.0160
26075W        W46355  10.050   9.841  16.254  0.3193 -0.0891 -0.0098
26076W        W46356  10.203  16.789  12.689  0.2282  0.3179  0.1567
26077W        W46357   0.383   1.302   1.891 -0.1701  0.0915  0.0993
26078W        W46358   6.462  14.797   2.726 -0.3698 -0.0800 -0.0936
26079W        W46359   2.073  10.810   6.382  0.0315 -0.1232 -0.1406
26080W        W46360   2.669   1.693   1.533  0.0970 -0.0603 -0.0024
26081W        W46361  10.970  17.446  15.662  0.0418  0.0616  0.0431
26082W        W46362  14.823   3.208  12.694  0.2671 -0.0453  0.1692
26083W        W46363  15.729  17.066   0.006  0.3408  0.0218  0.2195
26084W        W46364   7.036   5.884  15.001 -0.0263  0.3629 -0.3091
26085W        W46365  12.922  11.043  15.539 -0.1031  0.0321  0.5768
26086W        W46366   3.471  15.608  12.721  0.0408 -0.0661  0.2109
26087W        W46367  12.674  16.185  12.390  0.1294  0.0515 -0.0840
26088W        W46368   8.707  16.048   2.075 -0.2400 -0.1769  0.2981
26089W        W46369   8.028  13.617  15.921 -0.1536 -0.2589  0.0429
26090W        W46370   6.535   7.362  15.566  0.0144 -0.0390 -0.0531
26091W        W46371   3.221  13.129   3.758  0.1551 -0.0843 -0.0611
26092W        W46372   9.134   8.625   4.076 -0.0194 -0.2989 -0.1324
26093W        W46373   2.702   3.299   2.906 -0.0597 -0.1341 -0.3815
26094W        W46374  17.703   6.657  12.949 -0.1160 -0.2676  0.3011
26095W        W46375  15.796  13.103  16.685  0.0863 -0.1331  0.1355
26096W        W46376   7.213   3.757   0.164 -0.2160 -0.0815  0.1362
26097W        W46377  12.013   5.294  13.368 -0.0294 -0.3622 -0.0891
26098W        W46378   4.668  11.066  13.186  0.0936 -0.1148 -0.0780
26099W        W46379  12.405   7.516  16.230 -0.0025  0.0248 -0.1817
26100W        W46380   9.414   5.419   0.691 -0.0862 -0.2574  0.0462
26101W        W46381   4.024   1.289   3.181  0.3613 -0.1222 -0.1578
26102W        W46382   5.097   1.250  13.099 -0.0832  0.0015  0.0900
26103W        W46383   5.462   2.533  15.014  0.0082 -0.5424  0.2387
26104W        W46384   7.195   0.302  13.944  0.1370 -0.2212  0.3231
26105W        W46385  12.922  13.531  16.001 -0.0793 -0.2185 -0.0667
26106W        W46386  11.350   6.482  16.212  0.0592  0.0471 -0.0552
26107W        W46387   5.392  10.647  12.972  0.1177 -0.2112 -0.0915
26108W        W46388   7.961   6.004   0.419 -0.1649 -0.2666 -0.2925
26109W        W46389   0.270  13.818   2.070  0.1892  0.5577 -0.1409
26110W        W46390  11.376  15.765   1.016  0.1334 -0.0030 -0.2660
26111W        W46391  16.360  10.875   1.279  0.0053 -0.0769 -0.3437
26112W        W46392   6.481   7.829  13.331 -0.3303 -0.0187 -0.3099
26113W        W46393   0.168  16.412  12.558 -0.0247  0.0223  0.1583
26114W        W46394  13.666  14.611   0.532 -0.1283 -0.0647  0.3101
26115W        W46395  10.937   3.565  13.592  0.0069 -0.3337 -0.1798
26116W        W46396   3.887  14.113  13.528  0.0410  0.1064 -0.1430
26117W        W46397   5.456  14.907   2.644 -0.4199 -0.2924  0.0320
26118W        W46398  10.680   7.403  14.090  0.0864  0.1575 -0.0801
26119W        W46399   0.649   0.587   1.902 -0.0629  0.1806  0.1275
26120W        W46400   1.069   0.746   1.692  0.3114  0.0868 -0.1215
26121W        W46401  15.488   1.199   2.209 -0.1049 -0.1358 -0.0692
26122W        W46402   5.791   1.399   3.884 -0.0334  0.2123 -0.0366
26123W        W46403  16.090   1.606   1.449  0.3482 -0.0173 -0.1442
26124W        W46404  15.864  17.467   1.303 -0.2048  0.0273 -0.1516
26125W        W46405  16.140  14.796   0.822  0.0168  0.1922 -0.0890
26126W        W46406  12.866  14.961   3.767  0.0137  0.0829 -0.0454
26127W        W46407  10.363  11.257  15.688  0.1792 -0.2966  0.3369
26128W        W46408  16.780   8.849   2.222  0.3120 -0.1884  0.1543
26129W        W46409   4.811  12.795   2.112  0.2129 -0.1561 -0.0267
26130W        W46410   7.509  11.617   2.293  0.2615 -0.2701  0.0346
26131W        W46411   2.026  17.451  15.225 -0.3388 -0.0691 -0.0329
26132W        W46412  13.905  12.184   1.134  0.2186 -0.1778  0.1276
26133W        W46413  12.082   5.708  11.746  0.1230  0.2478  0.2629
26134W        W46414  17.035  15.597   2.694 -0.3754 -0.2944 -0.2442
26135W        W46415   1.700   7.870   3.501 -0.0462  0.1169 -0.3466
26136W        W46416   7.175   5.337   1.799  0.1194  0.3127  0.2737
26137W        W46417   5.790   4.573  12.654  0.2355  0.2217  0.4529
26138W        W46418   2.730   2.515  13.739  0.1628 -0.1515 -0.1928
26139W        W46419  13.987  10.291  15.028  0.0534 -0.1325  0.0400
26140W        W46420   0.872  13.634   3.201  0.1609  0.2062 -0.3433
26141W        W46421  12.880  17.073  14.453 -0.0285 -0.1482  0.1660
26142W        W46422   2.753  11.980  15.393  0.2298  0.1515 -0.0063
26143W        W46423   7.155  13.214   0.080 -0.2350  0.2551 -0.1456
26144W        W46424   3.833   4.950  11.279  0.0554  0.0439  0.0698
26145W        W46425   7.256   7.446   3.750 -0.3006 -0.2026 -0.2665
26146W        W46426  15.754  16.637   5.582 -0.1157  0.0725 -0.1806
26147W        W46427   9.682   0.507   3.833 -0.0269 -0.1374  0.1695
26148W        W46428   3.704   9.303   0.152  0.0577 -0.1263 -0.1834
26149W        W46429  14.624   0.457   3.752  0.3078 -0.1125  0.1157
26150W        W46430   0.836   1.539  13.331 -0.1881  0.1834 -0.0955
26151W        W46431  10.386  16.159  14.548 -0.1137  0.0049 -0.4169
26152W        W46432  10.681   0.341  14.091  0.0871  0.0429 -0.1655
26153W        W46433  17.483   0.818   2.041  0.0533  0.1412  0.2672
26154W        W46434   6.565   6.089  12.976  0.0139  0.2452 -0.0322
26155W        W46435   0.545   8.255   6.002 -0.0785 -0.3484  0.2234
26156W        W46436   0.883  13.410   0.261 -0.0091  0.0777  0.1219
26157W        W46437   6.242   3.112   2.852 -0.1382  0.1328 -0.1356
26158W        W46438   9.526  11.278  12.549 -0.0462 -0.0473 -0.1488
26159W        W46439   8.357  12.839   0.623 -0.1475 -0.0177  0.0762
26160W        W46440  10.725  16.592   0.723 -0.0436  0.0610 -0.0510
26161W        W46441   5.896   4.541   0.357  0.0588  0.1105  0.1259
26162W        W46442  13.361  12.819  13.689  0.1635  0.0326  0.2057
26163W        W46443  16.647   6.621   1.029  0.2182  0.1443 -0.1391
26164W        W46444   3.680   5.205  15.197 -0.2336 -0.1739  0.1239
26165W        W46445  11.747   9.917  13.732  0.1352  0.0371 -0.0399
26166W        W46446   0.023   9.650  14.771 -0.0390 -0.1370 -0.2693
26167W        W46447   1.361  17.722   4.486  0.1156 -0.0859 -0.5014
26168W        W46448   0.517  16.963  14.641  0.0186 -0.1509 -0.0200
26169W        W46449   9.725  16.849   4.537 -0.1867  0.1079 -0.1259
26170W        W46450  11.848  12.450   4.300 -0.0223 -0.3264  0.1475
26171W        W46451   6.536  17.376  13.675  0.1676  0.1848  0.0201
26172W        W46452  12.392  13.689  12.913 -0.1334 -0.0185  0.1798
26173W        W46453   0.899   2.588   1.960  0.0690  0.3008  0.1052
26174W        W46454   5.594   4.924  15.339 -0.3236  0.0906 -0.0486
26175W        W46455  10.026   5.510  15.537  0.1457  0.1630 -0.0562
26176W        W46456   0.368   3.927   3.423 -0.1428  0.0721 -0.2887
26177W        W46457  15.992   3.539  14.571 -0.0564 -0.1589  0.1715
26178W        W46458   1.267   7.238  15.437  0.1557  0.0055 -0.2403
26179W        W46459  15.286  15.265  13.665 -0.0482 -0.1033 -0.1950
26180W        W46460   4.130  10.396   3.332  0.4871  0.2052 -0.3229
26181W        W46461   9.916   2.211  16.029  0.0706  0.2531  0.1606
26182W        W46462   2.847   0.782  12.046 -0.0464 -0.0328  0.3796
26183W        W46463   6.269   0.849   2.315 -0.0599 -0.2069  0.1383
26184W        W46464   6.925   5.400  14.810 -0.3443  0.0017  0.1957
26185W        W46465   1.914   4.540  12.565  0.1128 -0.0890 -0.1883
26186W        W46466   4.717  12.539  15.307 -0.0521  0.1085 -0.1895
26187W        W46467   9.280  15.420   4.155 -0.0585  0.0427  0.1293
26188W        W46468  12.719  17.335  14.003  0.0359  0.1306 -0.1453
26189W        W46469  10.174   8.657  11.954  0.0303 -0.2905 -0.0637
26190W        W46470  14.598  15.590  15.415  0.1263  0.0376  0.3604
26191W        W46471   5.137   4.938  14.019 -0.0612  0.1594 -0.1235
26192W        W46472  16.349  12.204  13.448  0.0552  0.0607  0.1814
26193W        W46473  15.221  15.793   3.907 -0.0867 -0.1925  0.0705
26194W        W46474  15.788  14.195  12.718  0.3225 -0.0633 -0.1139
26195W        W46475  11.008   9.946   4.495  0.0983  0.0541  0.1649
26196W        W46476   0.594   8.155  12.261 -0.1371  0.0023 -0.0954
26197W        W46477   0.102   7.882   3.553  0.0354 -0.0508  0.2029
26198W        W46478   5.378  10.486   4.477 -0.0093  0.1470 -0.2844
26199W        W46479  15.558   7.934   4.641  0.3765 -0.0872  0.1028
26200W        W46480  15.817   7.377  12.854  0.0575 -0.0124  0.1810
26201W        W46481   2.483  13.067  12.606 -0.0034  0.1545 -0.2103
26202W        W46482  10.623   8.700  15.052  0.1576  0.1298 -0.0473
26203W        W46483  14.723   9.213   3.131 -0.1275 -0.3283  0.2539
26204W        W46484   0.277  17.396   0.782 -0.1965  0.0403  0.1196
26205W        W46485  12.638   7.322   2.766  0.0455  0.0326 -0.1295
26206W        W46486   3.983   2.918   3.831 -0.3415  0.0794  0.0697
26207W        W46487   0.768  16.094  12.434 -0.3582  0.2693  0.0940
26208W        W46488   8.442   9.571   0.591 -0.0275 -0.2442 -0.0455
26209W        W46489   4.983  11.425  15.873  0.1465 -0.3156  0.3058
26210W        W46490  15.791  16.315  13.819 -0.4171 -0.2243  0.2300
26211W        W46491   0.071  10.086  15.077  0.1356 -0.0562  0.0898
26212W        W46492   1.743   5.375   5.014 -0.1512  0.2402 -0.1381
26213W        W46493  16.936   5.374  13.496 -0.3690 -0.0622 -0.0838
26214W        W46494  12.832   4.075   1.907  0.0027 -0.0661  0.2359
26215W        W46495   8.463  14.440   3.675  0.0056 -0.0483  0.1218
26216W        W46496  11.184   0.699  14.162 -0.1674 -0.0386 -0.4207
26217W        W46497   5.545   7.496  15.872  0.0639  0.0706 -0.0333
26218W        W46498   4.675   9.911  14.920  0.3409  0.2196  0.1143
26219W        W46499   9.461   0.201  15.587  0.1840 -0.3306 -0.0467
26220W        W46500   1.315   7.642  12.972  0.2362  0.0673  0.0809
26221W        W46501   9.857  12.710   3.078 -0.0910  0.4211 -0.4708
26222W        W46502  15.139   1.175   4.542 -0.0576 -0.0644  0.0194
26223W        W46503  16.876  14.114   4.305  0.5398  0.0431 -0.0560
26224W        W46504  16.760   1.061  15.502  0.0729  0.4060  0.1971
26225W        W46505  13.191  15.340   2.576  0.0781  0.0158  0.1685
26226W        W46506   4.363   5.419   4.427 -0.3585 -0.0542  0.0529
26227W        W46507  10.205  11.767   1.642  0.0060  0.2076 -0.4389
26228W        W46508  14.732  11.420   2.187 -0.0347  0.0412 -0.1240
26229W        W46509   9.205   7.141   0.209  0.0221 -0.2771 -0.0154
26230W        W46510   4.817  13.507  11.974 -0.0019 -0.2894  0.2564
26231W        W46511   0.491  11.220   3.822 -0.0441 -0.0093 -0.0635
26232W        W46512  13.179  17.232  15.440 -0.0136  0.0136 -0.2301
26233W        W46513  12.764   7.275  16.485 -0.1729  0.1578  0.1499
26234W        W46514   1.764  13.813   3.242 -0.4388 -0.0391 -0.1614
26235W        W46515  16.567   9.116  12.953  0.2318  0.1707 -0.1732
26236W        W46516   0.560   5.325  16.599  0.3055  0.0209 -0.0578
26237W        W46517   1.994   4.549   2.388  0.0900 -0.2161  0.2502
26238W        W46518  17.208   0.033  11.883  0.0225  0.1461 -0.1702
26239W        W46519  15.007  17.111  10.927  0.1356 -0.2614  0.0338
26240W        W46520   6.676  15.287  13.437  0.1495 -0.2292 -0.0555
26241W        W46521  15.246   5.964  13.859 -0.0138 -0.0750  0.0347
26242W        W46522  16.519  11.404  12.141  0.0439 -0.0667 -0.3301
26243W        W46523   8.753  14.726  13.887  0.3196  0.1459  0.1642
26244W        W46524   3.018  17.523   3.808 -0.1044  0.1552 -0.3295
26245W        W46525  15.398   8.616   3.966 -0.0279 -0.2349 -0.0661
26246W        W46526  11.017   2.326   1.213  0.1374 -0.0314  0.2222
26247W        W46527   1.877   7.775  12.028  0.4493  0.1402  0.0606
26248W        W46528  12.057  12.564  13.396 -0.0467  0.1884  0.4436
26249W        W46529   5.859  16.721  12.495  0.3838  0.1340 -0.0155
26250W        W46530   2.427  14.515   4.400 -0.0622 -0.4017  0.1265
26251W        W46531  14.682  15.339  15.800 -0.0882 -0.0386 -0.2266
26252W        W46532  12.479   8.898   3.661  0.1260 -0.0575 -0.0621
26253W        W46533  13.764   1.391  11.518 -0.0619  0.2729 -0.0965
26254W        W46534  12.443  17.116   1.182  0.0250  0.0821 -0.2362
26255W        W46535   6.746   2.889  15.349 -0.1521  0.0769 -0.2957
26256W        W46536   6.523  11.468  14.317  0.1431 -0.0158  0.1602
26257W        W46537   2.672  17.452  12.037  0.0217  0.2257 -0.0430
26258W        W46538  14.913   2.624   4.479 -0.2428 -0.1938  0.1671
26259W        W46539  16.807  12.321  14.573  0.1053 -0.0674  0.0871
26260W        W46540   9.704  12.148  13.309 -0.1849  0.2664 -0.1920
26261W        W46541  14.955  11.854   1.809 -0.0377 -0.1679  0.0113
26262W        W46542  15.356   0.549   0.028  0.2886 -0.1731  0.0094
26263W        W46543   4.724   6.628  14.935  0.0418 -0.0184  0.2023
26264W        W46544  16.315   9.440  16.292  0.1811  0.2327 -0.2433
26265W        W46545  10.264   2.376  12.155  0.2064  0.1523  0.0743
26266W        W46546  13.549   2.223  12.338 -0.2371  0.1780  0.2390
26267W        W46547   3.057   3.256   0.194  0.4375  0.1714 -0.1255
26268W        W46548   5.217   6.538   0.327  0.1863  0.2612  0.1520
26269W        W46549   1.199  10.793  14.865  0.0655 -0.0166  0.3602
26270W        W46550   7.389  14.613   1.270  0.1456 -0.3312 -0.0182
26271W        W46551   9.931   3.897   2.129 -0.1348  0.5930 -0.0630
26272W        W46552  11.078   3.013   0.693  0.2037  0.0438 -0.1849
26273W        W46553   1.176   6.548   2.989  0.0967  0.1547  0.1408
26274W        W46554   6.141   1.879   4.133 -0.0920 -0.2568 -0.0708
26275W        W46555   0.964   6.821   4.678 -0.0154 -0.1201 -0.0826
26276W        W46556  17.684  16.283  14.016  0.0770  0.3505 -0.4471
26277W        W46557   4.195   3.493   4.592 -0.1408 -0.1156  0.5445
26278W        W46558   1.841  11.352   1.108 -0.0052 -0.3140 -0.0669
26279W        W46559  14.624  17.003  13.739  0.0467 -0.1440 -0.0902
26280W        W46560  12.219   3.586   4.632 -0.0723  0.0268  0.1195
26281W        W46561   0.375   0.277   4.031 -0.1250  0.1114 -0.1288
26282W        W46562   1.989  11.794  12.612  0.2019 -0.2301 -0.0434
26283W        W46563  12.874  11.872   2.586 -0.0760 -0.0206 -0.1048
26284W        W46564  12.980   9.678  16.571 -0.2491 -0.1407  0.1637
26285W        W46565   4.462   4.170  12.475 -0.2127  0.1273  0.0142
26286W        W46566  10.903   7.735  13.674  0.0971 -0.0896 -0.0929
26287W        W46567   6.386   0.317  13.849  0.0017  0.3461 -0.0042
26288W        W46568  11.091  13.979   2.193 -0.0639  0.1174  0.3336
26289W        W46569  17.861   2.558   1.355 -0.0234 -0.1371 -0.2104
26290W        W46570   3.469   3.335   1.019  0.2086 -0.1947 -0.2847
26291W        W46571   3.968  15.490  13.317  0.1102 -0.0051  0.0528
26292W        W46572   4.803   9.371   0.415 -0.2482 -0.0362 -0.0683
26293W        W46573   5.393   3.232   1.959  0.1199 -0.1963  0.1716
26294W        W46574  11.866   2.368   3.989  0.0191  0.1067  0.2797
26295W        W46575   7.059   0.916   1.938 -0.3897 -0.2872  0.1237
26296W        W46576   1.915  13.610  16.213  0.3626  0.1659 -0.0667
26297W        W46577   7.871   1.223   0.941  0.0547  0.1300 -0.1668
26298W        W46578   1.170  13.575   3.946 -0.2234 -0.1589 -0.3043
26299W        W46579   9.963   4.604   2.101  0.2852 -0.0890  0.0839
26300W        W46580   4.480  16.171   2.566  0.2347 -0.0114  0.1638
26301W        W46581   4.814  16.229  12.277 -0.2058 -0.2124 -0.0094
26302W        W46582   2.463   0.294   4.845  0.0143  0.0973  0.1927
26303W        W46583  11.969   1.735   0.901 -0.2821 -0.1593  0.0006
26304W        W46584  17.708  10.269   0.929 -0.1712 -0.2305  0.1905
26305W        W46585  17.986   8.412   3.456 -0.0831  0.0241  0.0766
26306W        W46586   9.996   5.601   2.383  0.3055  0.0024  0.1007
26307W        W46587   1.352  16.853  13.853 -0.4448 -0.1587 -0.1175
26308W        W46588  11.798  17.438  13.924 -0.0591  0.2469 -0.1709
26309W        W46589   0.617  10.375   3.945 -0.4213  0.0927  0.1611
26310W        W46590   5.887   6.529  15.186  0.2403  0.4794 -0.0256
26311W        W46591  10.890  10.245  14.707 -0.2771  0.0892  0.2353
26312W        W46592   3.023  16.298  11.142 -0.0045  0.1659 -0.2491
26313W        W46593   7.973  10.096   1.528  0.0315  0.1539  0.1596
26314W        W46594   6.167  14.327  14.439 -0.1146 -0.2053 -0.0628
26315W        W46595   1.202   5.019  11.889 -0.0598 -0.1562 -0.1263
26316W        W46596   5.406   1.052  16.284 -0.0227  0.0318 -0.2820
26317W        W46597   7.175   2.796   1.651  0.0260 -0.1284 -0.3489
26318W        W46598   8.233   9.149   3.808 -0.0843  0.0903 -0.0945
26319W        W46599   3.053  12.870  14.860  0.1049  0.2668 -0.0851
26320W        W46600  15.049  12.438   2.700  0.0353  0.2534  0.0095
26321W        W46601  12.152   0.604  12.947  0.3247 -0.2442  0.0863
26322W        W46602  13.807   4.543   3.455  0.1307 -0.2387  0.4365
26323W        W46603  10.730   9.401   1.388  0.1244 -0.2248  0.1062
26324W        W46604   7.744  10.911  14.603  0.0635 -0.0434 -0.2416
26325W        W46605  17.054   0.647   2.923 -0.0759 -0.3164 -0.0413
26326W        W46606  17.003   4.385  15.788  0.2946  0.1407  0.0791
26327W        W46607   9.559   6.653  15.950 -0.2156 -0.0794  0.1679
26328W        W46608  10.953   6.574  11.737 -0.2520  0.1815 -0.0220
26329W        W46609   7.129   8.591  11.416  0.2024 -0.0057 -0.1845
26330W        W46610  11.913   9.009   2.573  0.1770 -0.0747  0.2604
26331W        W46611  12.128  10.594   4.809 -0.2061  0.1468  0.4055
26332W        W46612  12.007  11.736   0.875  0.1668 -0.1056 -0.0502
26333W        W46613  15.508  13.203  13.890 -0.0110  0.3000 -0.1017
26334W        W46614   7.932  11.428  14.713 -0.0405  0.0757 -0.0089
26335W        W46615   3.986   4.619   0.820  0.0007 -0.0461  0.0398
26336W        W46616   1.990   7.865   2.691 -0.1330 -0.0224  0.2371
26337W        W46617  11.738  14.234   3.374  0.2294  0.0307 -0.0329
26338W        W46618  12.405   2.973  15.634 -0.4104 -0.1147  0.1822
26339W        W46619   9.149   0.163   2.294 -0.0068 -0.1739  0.1188
26340W        W46620  16.974  15.833   0.188 -0.1160 -0.3945 -0.4225
26341W        W46621   0.106  16.067  12.240  0.2816  0.1755 -0.0913
26342W        W46622  11.094   3.647  14.612 -0.3578 -0.2100 -0.2797
26343W        W46623  12.789  14.674  16.243  0.1314  0.3046  0.3306
26344W        W46624   0.360   8.398  15.586 -0.1961 -0.1760 -0.1697
26345W        W46625   2.203  16.686  16.589 -0.2394 -0.0060 -0.0892
26346W        W46626   2.232  13.361  14.367  0.0309  0.1667  0.1678
26347W        W46627   3.734  15.603   3.544  0.1788  0.2283  0.1832
26348W        W46628   1.559   0.699  13.253  0.0473  0.3014 -0.1082
26349W        W46629   5.992   9.003  11.726  0.0654  0.2718  0.1485
26350W        W46630   3.179   0.989  12.815  0.2340  0.1205 -0.0844
26351W        W46631  12.440   9.900   1.669  0.0758 -0.1078  0.0710
26352W        W46632  11.059   3.504   0.555 -0.0571  0.0074  0.1007
26353W        W46633  14.508  10.080  16.612 -0.0046  0.0156  0.2998
26354W        W46634   0.908   9.267   2.408  0.1622  0.2516  0.0272
26355W        W46635   9.140   4.918   1.431  0.1125 -0.0727  0.2186
26356W        W46636   5.744   4.483  15.938  0.0905 -0.2017 -0.0538
26357W        W46637  15.702  17.858   1.114  0.3461 -0.3188  0.0507
26358W        W46638  16.152   4.242   0.089 -0.1196  0.1467  0.1896
26359W        W46639  11.542  10.993  12.654  0.1243  0.1452 -0.3075
26360W        W46640   1.002   0.866   4.412  0.0171  0.2152 -0.1747
26361W        W46641  15.059   0.934  14.920 -0.0210 -0.0717 -0.2956
26362W        W46642   7.617   2.085  13.526  0.1648 -0.1701  0.2389
26363W        W46643  17.874   7.030  15.731 -0.1750  0.0045 -0.2203
26364W        W46644  11.006   8.245  15.017  0.1044 -0.0440 -0.3412
26365W        W46645  17.122  15.112  14.098 -0.2989 -0.1299 -0.0204
26366W        W46646   5.334   1.659  13.110  0.3267 -0.2806 -0.2922
26367W        W46647   6.254   2.716   1.552 -0.2921  0.1165  0.0019
26368W        W46648   5.781   3.362   1.684  0.2767 -0.2214  0.1496
26369W        W46649   4.942   4.458  13.845 -0.0586 -0.0815  0.2627
26370W        W46650   7.784  16.800  11.869 -0.0567  0.2269  0.0948
26371W        W46651   4.689   1.033  14.361  0.1561 -0.2021  0.0994
26372W        W46652  11.680  12.231  14.118  0.2317  0.0911 -0.0311
26373W        W46653   1.508   3.170   1.879 -0.3216 -0.1499 -0.0896
26374W        W46654   9.878  14.400   2.011  0.1749 -0.1059 -0.1895
26375W        W46655   3.017   9.842  15.616 -0.0241  0.0646  0.0922
26376W        W46656   4.151   9.961   1.232  0.1044 -0.2226  0.0614
26377W        W46657   0.057  11.051  13.944  0.1251 -0.1772 -0.0537
26378W        W46658  17.405  16.992   0.032 -0.1190  0.2756 -0.0469
26379W        W46659  10.668   1.324  15.201  0.3477 -0.0708  0.2166
26380W        W46660   8.814  11.694   1.328 -0.1470  0.0540  0.0872
26381W        W46661  13.927   2.368  15.178 -0.1529  0.2563 -0.1766
26382W        W46662  14.530   8.812   2.905 -0.2956 -0.1625 -0.2213
26383W        W46663   3.826   5.445  16.285  0.1095  0.1508 -0.1145
26384W        W46664   2.165   0.160  16.664  0.0846 -0.2208  0.0578
26385W        W46665  11.105  11.241   0.033 -0.0602  0.1105 -0.2768
26386W        W46666   4.190  15.366  14.053 -0.1139 -0.0034  0.1295
26387W        W46667   7.273  10.334   3.611 -0.1884 -0.0641  0.0109
26388W        W46668  17.479   9.397   2.589 -0.2304 -0.1727  0.1282
26389W        W46669  11.918  17.807   2.273 -0.1765  0.0115  0.1993
26390W        W46670  15.726  13.279  14.307  0.2483 -0.1877 -0.0461
26391W        W46671  16.025  16.492  12.710  0.1705 -0.1641 -0.0784
26392W        W46672   5.013   5.381  11.841  0.1659  0.0827  0.0484
26393W        W46673  12.028   5.161  11.561  0.1078  0.0115 -0.1598
26394W        W46674  17.314  13.762   2.311  0.1256 -0.0334 -0.1003
26395W        W46675   6.287  17.671  13.288  0.3132 -0.0799 -0.4447
26396W        W46676   4.069  15.740  16.441  0.1029 -0.2422 -0.2975
26397W        W46677   7.708   9.282   4.101 -0.3405  0.0687  0.0911
26398W        W46678   4.930   3.007   0.164  0.1659  0.1794 -0.0903
26399W        W46679  13.095  15.915  14.897 -0.0584 -0.0361  0.1032
26400W        W46680   7.317   4.096  15.050  0.1560 -0.0134  0.1192
26401W        W46681   7.095   0.036   2.133 -0.2231  0.1425  0.1354
26402W        W46682  16.709   1.891   2.315 -0.2284  0.0491  0.1153
26403W        W46683  16.246  13.666   3.916  0.0271 -0.2644  0.0089
26404W        W46684  12.110  15.474  11.995 -0.2339  0.1435  0.1862
26405W        W46685   1.152   5.605  13.922 -0.2576  0.0307 -0.0163
26406W        W46686  10.388  11.635  12.614  0.1891 -0.0671  0.0239
26407W        W46687   0.826   6.875  12.797  0.1255 -0.1667 -0.2081
26408W        W46688   2.269   2.993   4.252  0.4069  0.1945 -0.1469
26409W        W46689   7.552   7.503   4.847  0.0419  0.1575  0.2585
26410W        W46690  17.051  13.497   3.790  0.2543  0.0162  0.1424
26411W        W46691   5.090  16.933  13.524  0.2527  0.1087 -0.0273
26412W        W46692  17.804  13.270  13.246 -0.0809 -0.0960  0.1971
26413W        W46693  12.156   7.781   2.166 -0.3078  0.0447  0.3573
26414W        W46694  15.990  14.415   3.351 -0.0909  0.0334 -0.0299
26415W        W46695  12.299   0.307  14.998 -0.0951  0.2179 -0.0891
26416W        W46696   8.121   4.835   1.167  0.0947  0.0292 -0.0995
26417W        W46697   9.721  12.624  15.898 -0.2201  0.2589 -0.1625
26418W        W46698  14.920   1.303   0.576  0.4084 -0.0157  0.0108
26419W        W46699  11.919  15.693  14.485 -0.1952  0.2985 -0.1282
26420W        W46700   2.154   0.180   1.387 -0.3131 -0.3834  0.0382
26421W        W46701   6.923   9.195  14.039  0.1028 -0.2378 -0.1300
26422W        W46702  14.667   1.536   3.690  0.0652  0.3286 -0.0784
26423W        W46703   6.253  10.437   2.268 -0.1135 -0.0707  0.1046
26424W        W46704   1.306   1.188   1.015  0.0574 -0.0031  0.4172
26425W        W46705   1.873   7.720   1.371 -0.0765  0.1068  0.0588
26426W        W46706   9.428   9.368   1.908  0.2172 -0.0806 -0.0896
26427W        W46707   5.475   7.307   0.668  0.0839 -0.1786  0.0111
26428W        W46708  11.108   2.673   1.581  0.1845 -0.1176  0.0068
26429W        W46709  14.072  11.774  15.036 -0.0097  0.4119  0.0914
26430W        W46710   8.979  16.210  14.559 -0.0374 -0.0017 -0.1635
26431W        W46711  15.024   5.246   0.975 -0.1134  0.3575  0.0760
26432W        W46712   6.997  12.346  12.169 -0.1068  0.0596  0.0197
26433W        W46713  11.227  17.896  16.422  0.0740  0.1714  0.0648
26434W        W46714  15.656   5.662   2.543 -0.0069  0.0146 -0.1317
26435W        W46715  17.752   5.302   0.586  0.2063 -0.1269  0.1397
26436W        W46716   2.216   2.881  12.270  0.0337  0.1321  0.0100
26437W        W46717   0.872  17.011  15.966 -0.1732  0.0730  0.0584
26438W        W46718   6.754   1.072   2.237 -0.1278  0.0672  0.0873
26439W        W46719   7.866   1.873  16.146  0.3063  0.1654  0.0520
26440W        W46720   1.251   7.298   0.353  0.3494 -0.0690 -0.1113
26441W        W46721  16.190   8.169  13.814  0.0324  0.3541 -0.1277
26442W        W46722   6.130   0.424   3.042  0.0726  0.0334 -0.0540
26443W        W46723   7.067   3.711   4.747 -0.2248 -0.1076  0.1087
26444W        W46724   6.864  10.876  15.345  0.0074 -0.0499  0.3161
26445W        W46725  16.519   1.378   3.223 -0.1206  0.2057 -0.3860
26446W        W46726   7.536  13.340  16.322 -0.0198  0.4013 -0.4237
26447W        W46727  11.321  16.082  15.634  0.1911 -0.0671  0.2541
26448W        W46728  14.991   5.627  12.929  0.1755 -0.0563 -0.1433
26449W        W46729  15.108  17.506  16.090 -0.1548  0.0653 -0.4162
26450W        W46730   7.230  14.796   0.479  0.1058  0.2003 -0.0249
26451W        W46731   0.485   2.152   0.120  0.0704 -0.2419  0.1340
26452W        W46732   0.727  12.311   0.972 -0.0381  0.1179 -0.0354
26453W        W46733   8.995   2.926  15.257  0.1783 -0.0912  0.0973
26454W        W46734   0.122  13.834   1.223 -0.1117 -0.0963 -0.1357
26455W        W46735   3.948   2.402   1.616  0.3403 -0.0534 -0.0284
26456W        W46736  16.456   2.064   2.738  0.0961  0.1139 -0.0743
26457W        W46737  17.078   8.364  14.548 -0.2513  0.4188 -0.0262
26458W        W46738  15.002   9.444  13.932 -0.0849  0.0338  0.1439
26459W        W46739   2.716  10.936  13.136  0.0724  0.0274  0.0153
26460W        W46740   5.728   1.584  12.881  0.0264 -0.0557  0.1552
26461W        W46741   5.869  10.114   1.412 -0.1554  0.2311 -0.6081
26462W        W46742   2.017  15.179   2.923 -0.2866 -0.3259  0.0112
26463W        W46743  12.123   8.956  13.734 -0.1678 -0.0188  0.1543
26464W        W46744  12.241   0.408  12.110 -0.0310  0.1066  0.1382
26465W        W46745   2.964   6.241   4.459  0.4053 -0.2080  0.1896
26466W        W46746   6.786   3.560   1.507 -0.3186 -0.1345  0.0144
26467W        W46747  16.763   9.618  14.349 -0.2221 -0.1431  0.3073
26468W        W46748   6.554   4.691   1.839  0.3527 -0.1375  0.0310
26469W        W46749   1.337  14.334   1.170 -0.0730  0.2428  0.3522
26470W        W46750   5.788  12.212  13.546 -0.1839  0.2392 -0.0823
26471W        W46751   6.950  13.116  14.454 -0.0835  0.2280  0.0435
26472W        W46752   1.901  14.531  10.836  0.1109  0.0460 -0.3912
26473W        W46753   2.371  16.068   3.175 -0.1880  0.0298  0.1171
26474W        W46754   1.560  12.196  16.053 -0.1183  0.1549 -0.0971
26475W        W46755  17.411   7.762   2.989 -0.0202  0.1791 -0.3266
26476W        W46756  17.658  15.386  15.295 -0.1890  0.1072  0.0704
26477W        W46757   5.492   9.738  15.244 -0.1517 -0.1080 -0.0025
26478W        W46758   7.933  17.534   4.281 -0.1125 -0.2035 -0.2445
26479W        W46759   9.946  12.990  13.388  0.0143 -0.1668  0.0363
26480W        W46760  12.203  13.135   1.147  0.1303  0.2014  0.1186
26481W        W46761  16.401  16.329   1.531  0.1955  0.1434  0.4254
26482W        W46762  12.374   8.648  14.200  0.2598 -0.2718 -0.2499
26483W        W46763   0.546  15.394  16.491  0.1960  0.1058 -0.0561
26484W        W46764   2.775   7.521  14.186 -0.1050 -0.2359 -0.0226
26485W        W46765  11.355  15.414   1.711  0.0043 -0.0780 -0.0927
26486W        W46766  11.082   0.804   1.586 -0.1849  0.2287  0.0284
26487W        W46767  14.821  17.213   2.282 -0.3485  0.0976  0.0988
26488W        W46768  11.091   5.105  12.314 -0.0516 -0.0944 -0.2452
26489W        W46769   8.744   6.059   4.029  0.2147  0.1729  0.0429
26490W        W46770  17.015  17.896  15.132  0.0426  0.2421  0.4852
26491W        W46771   9.384   3.499   4.662 -0.0048 -0.3160  0.3890
26492W        W46772   3.165   2.279   2.970 -0.0904 -0.0088  0.0333
26493W        W46773   2.909   0.927  13.767 -0.0466  0.0186  0.0506
26494W        W46774  10.429  16.520  11.738 -0.1992  0.2535  0.2331
26495W        W46775   8.448   8.543   2.425  0.2505  0.4092  0.0055
26496W        W46776  13.317   4.913   1.920  0.2571  0.1071  0.1148
26497W        W46777  11.489   3.263   0.493  0.1465 -0.1325  0.2658
26498W        W46778  13.517   4.782  14.613  0.0802  0.0384  0.2584
26499W        W46779   3.963  13.587  12.894  0.1510 -0.0259 -0.0459
26500W        W46780  13.340   4.425   3.290  0.2922 -0.1143  0.0324
26501W        W46781  13.178   5.046   3.484  0.3692  0.2929  0.1125
26502W        W46782   1.020   2.952   4.290  0.0442 -0.0572  0.2666
26503W        W46783  15.038   0.314   1.320 -0.0424  0.0536  0.2512
26504W        W46784   4.068  15.353  15.575 -0.2285  0.1314 -0.0097
26505W        W46785   0.780   3.192   1.211  0.0058 -0.1065 -0.0164
26506W        W46786  15.672   4.308  13.536 -0.0015  0.0999 -0.1449
26507W        W46787   1.174   6.867  14.679  0.1204 -0.1928 -0.1180
26508W        W46788   6.855   7.395   2.225 -0.2854  0.3945 -0.4630
26509W        W46789   3.874   1.617   4.734  0.3628 -0.0056  0.2528
26510W        W46790   4.517  13.195   3.275  0.2256  0.0450 -0.3891
26511W        W46791   6.749   5.434   3.701 -0.1056 -0.2680 -0.0315
26512W        W46792  17.241   1.664  13.477  0.2703 -0.1492  0.2049
26513W        W46793   7.709   1.992  15.348 -0.2161  0.1132 -0.2894
26514W        W46794  16.771  17.893   3.168  0.1038  0.1368  0.1222
26515W        W46795  15.350  10.856   3.439  0.3832  0.2951 -0.0878
26516W        W46796  10.306  17.593  14.272  0.0690  0.2868  0.0335
26517W        W46797  17.826   7.398   0.395  0.5248  0.0012  0.2247
26518W        W46798  17.438   4.434   1.334  0.0770  0.0726 -0.0617
26519W        W46799  17.099   6.817  13.688  0.2934 -0.2844  0.2115
26520W        W46800  17.761   0.177  12.156 -0.0938  0.0123 -0.4247
26521W        W46801   6.598   6.535  13.239 -0.2521  0.1952 -0.2481
26522W        W46802  13.450  15.620  12.333 -0.1130  0.0989  0.1881
26523W        W46803   9.870  11.465   0.237 -0.0343 -0.0348  0.0426
26524W        W46804   9.417   7.587  15.088 -0.0726  0.1418  0.0099
26525W        W46805  14.229  10.571   0.412  0.2690 -0.2079  0.3233
26526W        W46806  14.325   7.928   2.310  0.4323  0.1048 -0.0719
26527W        W46807   3.480   3.519   1.609 -0.2088 -0.0089  0.0657
26528W        W46808   8.513  12.365   3.039  0.3023  0.4412  0.0325
26529W        W46809  15.774   6.950  11.769 -0.1725 -0.5234 -0.5656
26530W        W46810   8.960   7.846  16.030 -0.3650 -0.1405  0.4917
26531W        W46811   6.784   8.009   2.050 -0.0759  0.2703 -0.0546
26532W        W46812  10.139   3.576  14.233 -0.0043  0.0386  0.1479
26533W        W46813  13.234   6.305  16.317 -0.0905 -0.1506  0.1481
26534W        W46814   8.587  16.136  15.304  0.0837  0.3125  0.3329
26535W        W46815   0.608  16.840  13.302 -0.1981  0.2463  0.1550
26536W        W46816   9.314  11.714   1.917 -0.0669  0.0038 -0.1544
26537W        W46817   8.061  13.681  12.746 -0.3171 -0.0302  0.1316
26538W        W46818   7.798  17.432   2.312  0.2075  0.0057 -0.0317
26539W        W46819  17.027   9.008   2.651 -0.2186  0.4178  0.1802
26540W        W46820  12.468   6.023  12.706  0.1350 -0.0641  0.2762
26541W        W46821   3.753   4.051  12.283  0.0529 -0.0298 -0.0741
26542W        W46822   9.658   4.200   3.990 -0.1508 -0.2056 -0.0221
26543W        W46823   8.049   9.871  15.910 -0.0678 -0.0512  0.2100
26544W        W46824   4.174  11.877  13.772 -0.0767  0.1746  0.0399
26545W        W46825   7.137   0.264   4.299  0.1522  0.0171  0.3002
26546W        W46826  16.858   9.835   2.975  0.1114  0.0903  0.1772
26547W        W46827  16.618   7.512   1.737  0.1637 -0.2010 -0.1532
26548W        W46828  13.350  14.414   4.461  0.0963 -0.0398 -0.2213
26549W        W46829   2.316   7.423  14.698  0.0288  0.1648 -0.2734
26550W        W46830  11.615   9.908   3.430  0.0769  0.1065  0.1384
26551W        W46831  17.739   4.780  16.442 -0.3183 -0.0882 -0.1324
26552W        W46832  17.517  11.636   0.527  0.4979 -0.1980 -0.0827
26553W        W46833  10.190   1.215   1.102  0.0306  0.4219 -0.1924
26554W        W46834   1.694  15.202  13.342  0.0350 -0.0846  0.0929
26555W        W46835  14.625   0.157  15.265  0.0660  0.0410  0.1963
26556W        W46836  15.072  17.678  12.030 -0.2053  0.3811  0.1878
26557W        W46837   3.274   3.786  13.570  0.1659  0.2287  0.2617
26558W        W46838   8.379  10.702  16.182  0.0534 -0.0587  0.0541
26559W        W46839   6.044   2.210  16.528  0.1546  0.1929 -0.2601
26560W        W46840   9.464   3.792  14.135  0.2070  0.1795  0.1227
26561W        W46841   7.809  14.659  12.325  0.1674  0.2650  0.1091
26562W        W46842   7.394   9.451  15.507  0.1782  0.0228  0.0954
26563W        W46843  11.141  14.501   0.569 -0.2793 -0.0792 -0.1110
26564W        W46844  15.309   6.984  14.685  0.0047 -0.1316  0.1637
26565W        W46845   5.482  12.171   2.082  0.0961 -0.1315 -0.0295
26566W        W46846   1.798  12.121  13.982  0.1075  0.0893  0.2753
26567W        W46847   9.036   1.890  14.942 -0.3740 -0.0785 -0.0464
26568W        W46848  17.865   1.197   1.901  0.1863  0.0280  0.1741
26569W        W46849   6.004   9.399  15.577  0.1117 -0.0231 -0.1106
26570W        W46850   2.497  14.249   2.767  0.1553 -0.1675 -0.0202
26571W        W46851   3.821   0.743  13.432 -0.3056  0.1933  0.3637
26572W        W46852   5.783   3.839   2.524 -0.1985  0.1039 -0.1042
26573W        W46853  16.761   1.871   1.151  0.1167  0.1923 -0.2107
26574W        W46854   9.405   3.103   4.232 -0.0817 -0.3059  0.0017
26575W        W46855  13.716   4.206  16.035  0.1026 -0.1357  0.0718
26576W        W46856  14.227   5.735   1.009 -0.0269 -0.1054 -0.0995
26577W        W46857  12.064   3.621   2.130 -0.1645 -0.0917  0.2809
26578W        W46858   1.361   1.300  14.654  0.1484 -0.2858 -0.0027
26579W        W46859   6.704  15.157   2.493  0.2063 -0.2102  0.2143
26580W        W46860   2.407  10.029  16.009  0.3411  0.0553  0.0315
26581W        W46861   5.442   0.092   4.232  0.1716  0.2187 -0.0304
26582W        W46862  14.069   2.696   0.150  0.3227 -0.0043  0.0537
26583W        W46863   9.188   1.840   3.699  0.1311  0.1291 -0.0788
26584W        W46864   5.430   1.174  12.141 -0.0843 -0.0825  0.1108
26585W        W46865   7.284   9.564  12.387 -0.0616  0.1784 -0.0474
26586W        W46866   5.430   3.668   0.845  0.0411  0.0342 -0.3642
26587W        W46867  17.291   8.102   2.670  0.3152  0.2085  0.2860
26588W        W46868   6.605  15.106   0.893  0.1889  0.0080  0.5617
26589W        W46869  14.267  17.311   3.811  0.0713  0.4325  0.1000
26590W        W46870   2.312  16.699  14.094  0.1080  0.0730 -0.1874
26591W        W46871   0.933   3.909   2.518 -0.0682  0.1254 -0.2729
26592W        W46872  13.870  15.519  13.765 -0.2056 -0.0252 -0.0213
26593W        W46873   7.676   4.135   0.154 -0.1856  0.3137  0.1155
26594W        W46874   2.396  13.749  13.110 -0.0150 -0.0533  0.2870
26595W        W46875   6.258  10.512   4.722 -0.2422 -0.0957  0.1382
26596W        W46876   6.030  14.164   3.770 -0.1410 -0.1957  0.0282
26597W        W46877   6.333  10.552  12.806  0.1415 -0.0117 -0.2921
26598W        W46878  11.446  13.152  14.316 -0.1547  0.1377  0.0117
26599W        W46879  15.614  10.242   2.945  0.3501 -0.1435  0.1695
26600W        W46880  15.980   2.488  14.214 -0.1734  0.1774 -0.0564
26601W        W46881  10.178   7.474  14.316  0.1561  0.1177 -0.0916
26602W        W46882   2.269   4.767  16.685  0.3334  0.0457 -0.1654
26603W        W46883  12.622   6.667   0.472  0.0785 -0.0606 -0.0857
26604W        W46884   1.144  16.713  13.067 -0.1116 -0.2377 -0.0459
26605W        W46885  10.902  11.622  15.841  0.3813 -0.3624 -0.2113
26606W        W46886  17.522   1.399   4.433  0.1588 -0.2766 -0.0016
26607W        W46887   9.472   3.846   2.067 -0.0208  0.0031  0.1096
26608W        W46888   9.193  17.190  14.583 -0.0907 -0.1783 -0.2183
26609W        W46889   1.681   3.071  15.747 -0.2327  0.0385 -0.0626
26610W        W46890  10.909  10.834  16.464  0.2232 -0.0971 -0.2990
26611W        W46891   8.345   7.520   2.122 -0.0022  0.0015 -0.3229
26612W        W46892   8.052   1.392   3.823 -0.1656  0.0996 -0.2706
26613W        W46893  10.098  15.433   4.391 -0.0438 -0.1316  0.2586
26614W        W46894  17.218   0.134  12.342  0.0804 -0.0453  0.1088
26615W        W46895   5.106   0.589  16.407 -0.2370 -0.0787  0.0539
26616W        W46896   7.253  16.122  12.027  0.2403 -0.2608  0.1842
26617W        W46897   2.767   1.888  12.890 -0.0671 -0.3620 -0.0417
26618W        W46898   9.559  10.241  12.391  0.2128  0.1064 -0.2377
26619W        W46899  10.864   0.707   3.382  0.2131  0.0131  0.3010
26620W        W46900  16.314  12.899  15.502  0.1763  0.1378  0.0472
26621W        W46901  17.691   4.071  13.176 -0.0389 -0.1838 -0.0545
26622W        W46902  15.163  16.426   3.057 -0.3793 -0.0932 -0.0317
26623W        W46903   3.902   9.844   0.201 -0.0583  0.3984  0.3091
26624W        W46904  10.761   2.991   4.135  0.1791  0.0268  0.3338
26625W        W46905   3.331  13.194  15.224 -0.0413  0.1358  0.2733
26626W        W46906   6.358   2.163   1.232  0.2657 -0.2426  0.0399
26627W        W46907  14.958   0.631   0.695 -0.0183  0.0623 -0.1750
26628W        W46908   5.113   0.048   3.384  0.1922 -0.0466 -0.0611
26629W        W46909  10.980  10.344   1.189 -0.0399 -0.0514  0.0448
26630W        W46910   9.275   5.169  14.082  0.1504 -0.0114  0.2625
26631W        W46911   7.201  17.844   3.521  0.0802 -0.0614  0.0423
26632W        W46912   4.080  15.970   2.903  0.0118  0.3660  0.0723
26633W        W46913  15.569  15.780   1.841  0.2275  0.0970 -0.1391
26634W        W46914   3.792  15.440   1.167  0.1629 -0.0660  0.2275
26635W        W46915   4.836  14.375   3.763  0.1567 -0.1449 -0.2161
26636W        W46916   0.660  12.747  15.248 -0.0761  0.2352  0.3068
26637W        W46917  11.424  10.928   4.585  0.3307 -0.3493 -0.4434
26638W        W46918   5.649   6.991   1.052 -0.0490  0.0200  0.3676
26639W        W46919  10.462   4.789   1.861 -0.1581 -0.1965  0.0492
26640W        W46920  10.973  17.035   3.908  0.0933 -0.0779  0.1745
26641W        W46921  17.131  17.010  14.839 -0.1015  0.0382 -0.0325
26642W        W46922   8.859  17.607  13.185 -0.0966 -0.3216 -0.2911
26643W        W46923  14.445   9.356   2.727 -0.1549 -0.2127 -0.3185
26644W        W46924   1.706  12.445   3.208 -0.2479  0.0776 -0.0466
26645W        W46925   0.563   4.788  13.653  0.0628  0.3647 -0.1011
26646W        W46926  15.593   4.383  12.614  0.0085 -0.4479  0.0887
26647W        W46927  13.294   2.294   0.345  0.0970 -0.0618  0.2910
26648W        W46928   6.968   3.687   1.068 -0.0779 -0.0541 -0.0280
26649W        W46929   6.181   5.700  13.057  0.1601 -0.1985 -0.1118
26650W        W46930  12.427   7.706   0.554  0.0317  0.0305 -0.2084
26651W        W46931  12.866   3.402   2.556  0.2307  0.2064  0.1724
26652W        W46932   0.579   8.193  14.720 -0.3258  0.0241  0.3469
26653W        W46933   1.319   7.641   0.690  0.0747  0.0441 -0.3121
26654W        W46934   5.618  10.993  13.317 -0.0193  0.0430  0.0925
26655W        W46935   1.529  15.480  15.947  0.1517 -0.0072 -0.1292
26656W        W46936   5.198  10.726   0.583  0.0123  0.1892 -0.2407
26657W        W46937   0.461   6.315  12.664  0.0463  0.2129 -0.1024
26658W        W46938  15.287  14.553  14.432  0.1770  0.1653 -0.4308
26659W        W46939   9.901  15.650   0.012 -0.0070 -0.1248  0.1417
26660W        W46940  17.401   5.448  13.284 -0.0874  0.0022 -0.1443
26661W        W46941   9.039  15.259   0.910 -0.1002 -0.1613  0.0853
26662W        W46942  14.176  10.935  14.284  0.1766  0.1894 -0.1242
26663W        W46943   1.303   3.651   0.335  0.1970  0.0525  0.2839
26664W        W46944   5.131  15.189   2.367 -0.2430  0.0505  0.0764
26665W        W46945  16.981  11.040  15.161 -0.1429  0.2951  0.1095
26666W        W46946  10.313   7.905  14.043 -0.0547  0.0544  0.0851
26667W        W46947  12.140  13.405   0.168  0.0681 -0.0095  0.0993
26668W        W46948  16.805   5.498   2.949 -0.0428 -0.0017  0.3600
26669W        W46949   7.348   7.741   0.053 -0.1351  0.1430 -0.0117
26670W        W46950   9.102  12.682   1.915 -0.3396 -0.0359  0.2714
26671W        W46951   4.880   3.870  15.647  0.0731  0.2771  0.1618
26672W        W46952   2.054  17.555  16.032 -0.4295 -0.1956  0.0547
26673W        W46953  14.419   4.410  15.676 -0.2020  0.1386 -0.1702
26674W        W46954  12.199   4.173   3.253  0.3903 -0.1453 -0.1728
26675W        W46955  12.153   7.986   1.291  0.0189  0.1200  0.0799
26676W        W46956   1.274   5.936  12.309  0.2541  0.2252  0.0487
26677W        W46957   1.816   4.574   3.226 -0.1316 -0.2261 -0.3343
26678W        W46958   7.854  13.187   2.164 -0.2080 -0.1128 -0.0915
26679W        W46959  15.371   1.548  12.377  0.0920  0.1805 -0.1021
26680W        W46960  17.604  14.054   1.362  0.1176 -0.0626 -0.3517
26681W        W46961   4.967  11.273   0.205 -0.3573  0.0073  0.0549
26682W        W46962  10.997  17.691  12.005 -0.0937  0.3337 -0.1396
26683W        W46963  11.836  10.336  16.413  0.2757 -0.2171 -0.1257
26684W        W46964  16.131  10.844   5.080  0.0317 -0.0057 -0.0329
26685W        W46965   2.030  14.295  11.679 -0.1274 -0.2027  0.0101
26686W        W46966  17.922  15.973   3.457  0.0475 -0.1206 -0.0010
26687W        W46967  15.951  15.338  16.049 -0.2794 -0.1130 -0.0517
26688W        W46968   5.193  11.189   3.308  0.1283  0.3522 -0.2360
26689W        W46969   1.116  17.087   4.510  0.3821  0.2173  0.0021
26690W        W46970   8.589   3.414  15.176 -0.0051 -0.3411  0.2039
26691W        W46971   7.879   6.257  12.581 -0.0725  0.2433  0.3409
26692W        W46972  14.121  17.174  12.924 -0.0304  0.3188 -0.0166
26693W        W46973  16.649   4.897   0.308  0.0992 -0.0144  0.0422
26694W        W46974  16.325  17.046   3.840  0.0320 -0.1325 -0.1020
26695W        W46975   2.500   9.145  15.606  0.0318 -0.1379 -0.1011
26696W        W46976   4.346   5.559  16.126  0.4557 -0.3311 -0.2348
26697W        W46977   7.455   5.362   4.657 -0.0864 -0.1780 -0.1677
26698W        W46978   1.525  16.692  13.396  0.0184  0.1993  0.2491
26699W        W46979   4.490   8.184   4.868 -0.2521  0.0759 -0.1403
26700W        W46980   2.005  10.298  15.852 -0.1169  0.0444  0.0920
26701W        W46981   1.429   0.826  13.774 -0.0540  0.1670  0.1122
26702W        W46982  17.415   3.445   1.292 -0.1992 -0.2435 -0.1613
26703W        W46983   6.880   7.576  15.932  0.1349 -0.0280 -0.1473
26704W        W46984   9.439   7.090  13.424 -0.1581 -0.1947 -0.0378
26705W        W46985   8.433  16.431  15.755 -0.0674  0.1445  0.3224
26706W        W46986  11.322  11.366  12.994 -0.0312 -0.0607  0.1439
26707W        W46987   4.659  13.461  12.918 -0.1142  0.1241 -0.0172
26708W        W46988   8.329  11.583  15.568  0.0635  0.0144 -0.2103
26709W        W46989   9.191  16.041   0.632 -0.1000  0.1216  0.2058
26710W        W46990   9.236   9.488   0.097  0.1829 -0.4585  0.1131
26711W        W46991  17.365   7.770  12.803 -0.1495 -0.1944  0.2244
26712W        W46992  13.361   5.367   1.628 -0.0287 -0.0449 -0.1036
26713W        W46993   8.786  14.300   0.515 -0.0132  0.0165 -0.3361
26714W        W46994   6.474  10.591  15.205  0.1617  0.0137 -0.1669
26715W        W46995   3.780  11.722   4.134 -0.0864 -0.1916 -0.2825
26716W        W46996  10.002   9.202   2.020 -0.0720 -0.2269 -0.0463
26717W        W46997   9.162   6.870   3.755 -0.0394  0.2573 -0.1895
26718W        W46998   4.169   9.550  16.601  0.1485 -0.0353 -0.0926
26719W        W46999  16.497  16.452   3.635  0.1208  0.3974 -0.1338
26720W        W47000  14.037  15.952  13.407  0.0818 -0.0598  0.0231
26721W        W47001   2.092  10.370   2.530  0.0911 -0.2718  0.3255
26722W        W47002  13.268  17.176  16.458 -0.1068  0.2608  0.2906
26723W        W47003  14.162  16.762  12.643  0.3392  0.0226 -0.3882
26724W        W47004  15.515  13.251   4.153 -0.0454 -0.2653  0.2636
26725W        W47005  10.708  12.521  15.262 -0.0621  0.1328 -0.0987
26726W        W47006   8.037   0.438  15.447  0.0819 -0.1189 -0.1353
26727W        W47007   3.973  10.926   0.066 -0.2050  0.4000  0.0234
26728W        W47008  16.084   0.289   0.224  0.0601 -0.0660  0.0772
26729W        W47009   8.041  16.143   4.184 -0.0366  0.1038  0.0421
26730W        W47010   0.235   4.408   0.926  0.1665  0.1994  0.3747
26731W        W47011   4.221  10.014   2.958 -0.1893  0.0676 -0.2132
26732W        W47012  16.973  11.756   1.898 -0.0556 -0.1625  0.2161
26733W        W47013   7.249   7.970   3.767  0.1574 -0.2226 -0.1808
26734W        W47014   9.234  16.860  14.172  0.0707  0.0463  0.3240
26735W        W47015  12.731   2.584   0.369  0.3688 -0.3280 -0.0805
26736W        W47016   1.127   8.016   1.425 -0.0182  0.1882  0.2310
26737W        W47017   5.062  17.858  14.971 -0.0880  0.0277 -0.1213
26738W        W47018   6.994   7.108  15.823  0.1230  0.1290 -0.3144
26739W        W47019  13.307  14.881   1.186  0.3363  0.0423  0.0477
26740W        W47020  13.428   5.901  11.659 -0.0165  0.0314 -0.2833
26741W        W47021   0.082   7.771   4.406  0.1889  0.0291  0.3660
26742W        W47022  16.048  12.850  14.341  0.1736 -0.0994 -0.1428
26743W        W47023   7.907   0.767   1.654  0.2291 -0.0869  0.1309
26744W        W47024  13.075   9.805  13.739  0.1437 -0.0796 -0.0659
26745W        W47025   5.010  17.719  12.484 -0.1724 -0.0643 -0.1022
26746W        W47026  15.301  11.321   1.977 -0.1323 -0.1474  0.1603
26747W        W47027   1.543   1.861   3.568  0.0381  0.0865  0.3172
26748W        W47028   8.941   7.027  13.356 -0.1181  0.0213 -0.2803
26749W        W47029  13.631   7.693   3.891 -0.1087 -0.0606  0.2320
26750W        W47030   5.699  13.483  12.143 -0.2017 -0.0157  0.0559
26751W        W47031   5.849   5.470  13.746 -0.0231  0.3806  0.0701
26752W        W47032  10.374  15.515  14.228  0.1327  0.0623  0.5693
26753W        W47033   7.895   0.527  14.236 -0.0604 -0.0767  0.1106
26754W        W47034  16.240  11.439  15.082  0.0629 -0.1402  0.1557
26755W        W47035   1.426  10.679   3.717  0.1211  0.0153 -0.1535
26756W        W47036   6.356  14.216   4.764  0.0748  0.4416  0.0434
26757W        W47037   8.308  17.447  13.246 -0.2296 -0.1828 -0.0769
26758W        W47038   9.019  11.053  15.646  0.2564 -0.0827 -0.0478
26759W        W47039  10.863  15.330  16.420  0.2265 -0.0056 -0.2753
26760W        W47040  10.084   1.346   0.158  0.1261  0.0505  0.2381
26761W        W47041   3.742   4.231   0.525 -0.0366 -0.2983  0.1502
26762W        W47042   2.829   1.150   4.743 -0.1245  0.1665  0.1790
26763W        W47043   3.470  11.937   3.767 -0.0799  0.2313  0.1879
26764W        W47044   9.326   9.988  15.372 -0.0013 -0.0163 -0.1497
26765W        W47045  11.841   0.516  15.054 -0.0107  0.0904 -0.0105
26766W        W47046  12.013   3.333   4.267 -0.0449  0.0344  0.0159
26767W        W47047   5.048  11.460   4.479  0.1295 -0.1379  0.2553
26768W        W47048   0.521  14.114  16.267 -0.0012  0.2518  0.1278
26769W        W47049   1.806  11.478   4.326 -0.0548  0.1099 -0.0792
26770W        W47050  11.793   3.930  15.300  0.0082 -0.0812  0.0432
26771W        W47051  13.049   8.067  15.542 -0.2086  0.0627  0.0631
26772W        W47052  13.483   4.621  13.953  0.1693  0.1635 -0.0579
26773W        W47053  15.189   7.001   2.872  0.1380 -0.0029 -0.0520
26774W        W47054   1.274  14.809   3.271 -0.3919  0.0406 -0.2155
26775W        W47055   1.109  13.298   1.715 -0.2097 -0.0095 -0.0748
26776W        W47056  16.866  15.547  12.201 -0.2005 -0.2851  0.2025
26777W        W47057   8.798   9.123  14.937  0.1125 -0.1692 -0.2268
26778W        W47058   8.838  10.913  16.352  0.0205  0.0499  0.0503
26779W        W47059   7.448   5.464   2.739 -0.0042 -0.0765  0.0529
26780W        W47060   4.257  10.131   1.677 -0.0672  0.0064  0.0328
26781W        W47061   7.029   1.657   0.532  0.0998  0.2621  0.2118
26782W        W47062   0.234  16.807   1.862  0.2848 -0.1643 -0.0866
26783W        W47063   1.718   7.358  14.938  0.0000 -0.3767  0.3180
26784W        W47064  10.554   6.673  12.054  0.0693 -0.1758  0.2177
26785W        W47065   7.864   7.061   3.114  0.1525 -0.3206  0.2387
26786W        W47066  11.489  16.052  12.365 -0.0894  0.2299  0.0902
26787W        W47067   4.195  16.915   3.468  0.1402  0.0419  0.0614
26788W        W47068  13.547   6.089   4.418 -0.0871  0.0096 -0.0713
26789W        W47069  14.975  11.720  14.658  0.1464  0.2583 -0.3222
26790W        W47070  12.183  12.270   0.885  0.0237  0.0575 -0.1156
26791W        W47071  17.059  10.704  14.255 -0.1853 -0.2206  0.3532
26792W        W47072   5.848   6.989  13.176 -0.0471  0.1618  0.2026
26793W        W47073   9.674  15.067   2.733  0.0753  0.2011  0.1249
26794W        W47074  13.093   2.497  14.148 -0.2757 -0.0102 -0.3937
26795W        W47075   3.514  16.054  14.987  0.0729  0.0978  0.0362
26796W        W47076  14.622  10.679   3.160 -0.0361  0.2147 -0.1959
26797W        W47077   9.881   4.392  11.950  0.2170 -0.0591  0.0012
26798W        W47078  17.448   2.885   1.522  0.5374 -0.1618  0.0156
26799W        W47079   6.702   8.000  14.058 -0.0049 -0.0951  0.4056
26800W        W47080   4.480   5.771   2.968  0.1819 -0.0045  0.2094
26801W        W47081   3.501   1.631   1.810  0.0050 -0.1064 -0.1276
26802W        W47082  14.797  14.137   0.540 -0.0423 -0.3390  0.0564
26803W        W47083  13.344  10.350   3.527 -0.1594  0.0100  0.5082
26804W        W47084  14.527   2.793  15.224  0.1895 -0.2078  0.1242
26805W        W47085  13.518  11.211  16.101  0.0762 -0.0781  0.2855
26806W        W47086  10.063   1.642   2.884  0.2056 -0.1044 -0.0740
26807W        W47087   3.519   7.867   0.390  0.4821 -0.2105  0.1674
26808W        W47088   3.019  10.287  15.358  0.1920 -0.0120 -0.0846
26809W        W47089  10.063   1.414  13.924 -0.3043  0.0580 -0.0738
26810W        W47090   8.025  17.242  12.101 -0.2217  0.0878 -0.1245
26811W        W47091   0.037  11.903   2.506  0.0305  0.1565  0.0602
26812W        W47092  10.131  15.030   2.075  0.2855 -0.2637  0.1158
26813W        W47093  16.351  13.445   4.437 -0.1825  0.0171 -0.1124
26814W        W47094   7.077   4.810  15.887  0.4722 -0.2249 -0.5839
26815W        W47095   4.883   9.562  16.215 -0.0190 -0.3302 -0.0256
26816W        W47096   2.426   0.748   1.406 -0.3374 -0.3487 -0.0908
26817W        W47097   4.518   0.498  14.629 -0.0377  0.2508  0.3156
26818W        W47098  13.735   7.824   3.420  0.2054  0.2011  0.0314
26819W        W47099   1.337  12.973   3.746 -0.3393  0.2186 -0.0807
26820W        W47100   8.314  17.981   3.506 -0.4284 -0.3196  0.2407
26821W        W47101   5.099  11.361   5.208 -0.0317 -0.1209 -0.6178
26822W        W47102   5.801  16.686  15.294 -0.2723  0.4568 -0.1245
26823W        W47103   9.049   3.461  12.940 -0.2231  0.0712  0.0753
26824W        W47104  13.221   1.405   1.248  0.4169  0.0856 -0.0566
26825W        W47105  11.014   0.085  12.345 -0.0350 -0.4041  0.0985
26826W        W47106   9.223   5.463   4.149  0.1336  0.0028  0.3268
26827W        W47107   5.459   0.729   3.191 -0.0311 -0.4062  0.1734
26828W        W47108   8.552   5.843   1.303 -0.1344 -0.4524 -0.0300
26829W        W47109   7.324   2.058   0.580  0.0757  0.0231  0.1277
26830W        W47110   6.687   6.206   4.810  0.0755  0.0544  0.3645
26831W        W47111   7.647  14.338   3.169  0.3745 -0.0425 -0.0032
26832W        W47112  13.106  13.472   0.897  0.1027 -0.1175  0.0692
26833W        W47113   9.830   2.737  15.431 -0.0727 -0.1152 -0.2830
26834W        W47114   8.113  14.213  15.063  0.3219  0.1025 -0.1166
26835W        W47115  16.483  12.347   0.521  0.2123  0.0265 -0.0983
26836W        W47116   3.901  10.817   3.104 -0.2601 -0.2208 -0.1555
26837W        W47117   3.329  15.428   1.379 -0.3365 -0.0469 -0.1654
26838W        W47118   4.568  12.251  14.897  0.0638 -0.1328  0.1104
26839W        W47119  12.560   5.728  14.054  0.1068  0.1871  0.0279
26840W        W47120  11.670   4.336  14.438  0.0525 -0.3030 -0.4306
26841W        W47121   1.191   7.414  15.939  0.0747  0.2531  0.0061
26842W        W47122  16.139  10.865  12.800  0.0775  0.2032 -0.1908
26843W        W47123  13.586   0.965  12.898 -0.2181 -0.0628  0.0233
26844W        W47124   3.136   1.608   0.773 -0.1206  0.1678 -0.1346
26845W        W47125  11.633  17.497   2.021  0.0457  0.2250  0.2318
26846W        W47126   7.887   8.421   0.047  0.2036 -0.0941 -0.2327
26847W        W47127   5.180   9.337  12.995 -0.2415 -0.3263 -0.1661
26848W        W47128  11.664   9.532  13.405 -0.0163  0.1011 -0.1650
26849W        W47129   6.386  15.724   3.485 -0.2894 -0.3815 -0.3011
26850W        W47130  17.112   5.629  16.031 -0.2900  0.0760  0.1920
26851W        W47131   7.762   4.328  14.862 -0.0045 -0.1103  0.0606
26852W        W47132   4.269   2.126   3.183  0.0978 -0.0874  0.2370
26853W        W47133  10.798  11.072  14.121 -0.2296  0.0700 -0.1269
26854W        W47134   7.458  15.137   1.287  0.1039  0.2316 -0.2848
26855W        W47135   1.870  13.075   3.724 -0.1409  0.3465 -0.0740
26856W        W47136  11.428   3.237  14.159 -0.1094  0.0085 -0.2582
26857W        W47137  15.091   0.517  16.097 -0.2735  0.0449 -0.1466
26858W        W47138   1.837  14.157   1.142  0.0099  0.4217  0.1664
26859W        W47139   5.213   4.480  13.363  0.0910 -0.1212  0.2340
26860W        W47140  15.761  16.007  13.456 -0.2278 -0.0972  0.4070
26861W        W47141   3.128   6.786  13.652 -0.1282  0.1707  0.0652
26862W        W47142  14.555   4.193  12.561 -0.1043 -0.3415 -0.1746
26863W        W47143   2.304   8.839   2.006  0.0635 -0.0743  0.0144
26864W        W47144  15.012  15.872  12.959 -0.0187  0.0165  0.0040
26865W        W47145  13.517   3.910   0.184  0.0629 -0.0227  0.0827
26866W        W47146  17.530   9.003   3.635 -0.1373 -0.0690 -0.3828
26867W        W47147   5.691   4.665   3.584  0.2016  0.0580  0.0657
26868W        W47148   4.647   2.790  13.836  0.5196 -0.2287  0.1991
26869W        W47149  17.811  10.213  15.474  0.0243  0.3005 -0.1409
26870W        W47150  12.690   0.419   1.516 -0.1599  0.1174  0.3634
26871W        W47151  16.330   5.010  14.174  0.0197 -0.0396  0.3482
26872W        W47152  13.340   0.062   2.004  0.0471  0.2795 -0.0696
26873W        W47153   7.133  10.144  14.580 -0.1142  0.0922  0.0218
26874W        W47154   7.681   8.583  12.154  0.0461  0.0639  0.2757
26875W        W47155  13.791  13.292   2.279 -0.0352  0.3456 -0.1287
26876W        W47156  17.767  10.675   1.688 -0.0381 -0.4927  0.1884
26877W        W47157   4.042  15.369   2.647  0.0653  0.1048 -0.0627
26878W        W47158  10.964   5.846   2.741 -0.1450 -0.2862 -0.0058
26879W        W47159  15.276   1.409   2.708 -0.0488  0.3235  0.3058
26880W        W47160  15.110   8.459  12.445  0.3626  0.2847  0.0471
26881W        W47161  11.341   3.077  10.215  0.2197 -0.1969 -0.0724
26882W        W47162  10.413  11.543   2.555 -0.0417 -0.3431  0.1909
26883W        W47163   5.104  16.477   1.885 -0.0064 -0.2066  0.0475
26884W        W47164  16.598  13.250  16.280  0.0087 -0.1358 -0.0301
26885W        W47165   9.085   6.471   4.871 -0.0087 -0.0865  0.1088
26886W        W47166  16.783  17.881  14.631 -0.0905 -0.0665 -0.1497
26887W        W47167  15.741   7.061  12.316  0.1881 -0.0659 -0.0066
26888W        W47168   3.626  14.416   1.100  0.1906 -0.2511 -0.2171
26889W        W47169   8.235  12.140   3.415 -0.3470 -0.0106 -0.0815
26890W        W47170   8.929  11.329   3.787  0.1350 -0.2846  0.0568
26891W        W47171   2.258  15.244   2.234  0.2327 -0.2199  0.1771
26892W        W47172  15.610  15.623  13.873  0.0622 -0.0994  0.1457
26893W        W47173   8.454   1.179   4.050 -0.0130 -0.1936 -0.0143
26894W        W47174   7.962   4.375   0.619 -0.1148  0.1785 -0.0036
26895W        W47175  11.075   1.231  14.831 -0.0245  0.1528  0.1393
26896W        W47176  13.338   7.562   1.299  0.0929 -0.0067 -0.0003
26897W        W47177   4.644  17.497  12.214 -0.1209  0.3212  0.2730
26898W        W47178  12.862   3.031   3.553  0.2061 -0.0008  0.0383
26899W        W47179   6.834  15.134  16.298 -0.2568 -0.0406 -0.3540
26900W        W47180  12.932  13.586   1.964 -0.0341 -0.0375  0.0884
26901W        W47181  15.756   1.465  13.897 -0.2162  0.2264  0.0182
26902W        W47182  12.012  14.981   4.315 -0.2809 -0.0146 -0.3573
26903W        W47183  16.715   3.132  15.494 -0.2821 -0.0946 -0.0909
26904W        W47184  10.736  15.880  14.089  0.0569 -0.0922 -0.0811
26905W        W47185  16.225   1.377   4.302 -0.0142 -0.0497 -0.1111
26906W        W47186  12.035   4.891  13.682 -0.3560 -0.0968  0.1347
26907W        W47187  17.511   2.069   3.876  0.4690  0.2337  0.1235
26908W        W47188  12.341  17.430  14.274 -0.1359  0.2197 -0.1276
26909W        W47189   0.685  10.397   4.468 -0.1196 -0.1276 -0.0756
26910W        W47190   4.341   1.746   4.750  0.1662 -0.2693 -0.0488
26911W        W47191   9.917   9.847  13.783  0.1363  0.0510 -0.0082
26912W        W47192   8.709   1.155  16.276 -0.0280 -0.3321 -0.0127
26913W        W47193   2.988   1.543  16.562  0.0546  0.1515 -0.3196
26914W        W47194  14.228   9.770   2.268  0.1027  0.1917  0.2549
26915W        W47195  10.679  10.271  14.241  0.0394 -0.3416 -0.0484
26916W        W47196   1.875   3.574  14.845 -0.1789  0.0429 -0.2530
26917W        W47197   3.868   9.853  13.686 -0.2549 -0.1579  0.3232
26918W        W47198  11.878  12.549  14.479 -0.3780  0.0773  0.2844
26919W        W47199  11.089   2.672   2.171  0.3130  0.1200  0.0226
26920W        W47200  16.550  16.945   2.435 -0.0468 -0.0567 -0.0845
26921W        W47201   8.642  16.269  13.142  0.1286  0.0134  0.0102
26922W        W47202  14.618   1.525   0.110  0.2576  0.0524 -0.4025
26923W        W47203  17.883   5.149  13.900 -0.0896 -0.2547 -0.1681
26924W        W47204  13.031   3.480  15.120 -0.3382 -0.0199 -0.3660
26925W        W47205   5.860   6.932   3.371  0.2556  0.0254  0.2508
26926W        W47206  17.087   9.513   1.291  0.0706 -0.5031 -0.1482
26927W        W47207   7.939  11.974  12.969 -0.2733  0.1393 -0.2285
26928W        W47208  17.377  14.986  16.052 -0.1803  0.2322  0.1228
26929W        W47209   8.206  15.160   4.996  0.1316  0.4079  0.1823
26930W        W47210   7.934   1.390   0.104  0.0759 -0.1193 -0.0610
26931W        W47211   9.424   0.936   3.740  0.1438  0.0046  0.2311
26932W        W47212   6.747   2.927   2.853 -0.1785  0.0918  0.4243
26933W        W47213   1.614   8.973  15.663  0.0197 -0.0770  0.2860
26934W        W47214  17.524   3.798  12.096  0.0302  0.2251  0.0432
26935W        W47215   9.535   5.396  14.506 -0.0409 -0.1605  0.2485
26936W        W47216   9.741   3.523  13.831 -0.0842  0.0650  0.0274
26937W        W47217   7.807  10.593  13.284 -0.0276 -0.2702  0.2482
26938W        W47218   4.938   7.815   3.640 -0.3314  0.0950 -0.1697
26939W        W47219  16.478  15.658   0.846 -0.3705 -0.0977  0.0194
26940W        W47220   6.794   4.941   4.019  0.1774 -0.0488 -0.0366
26941W        W47221   3.627   6.926  14.353 -0.0517  0.3553  0.1042
26942W        W47222   0.403   7.216   2.039  0.2132  0.0713 -0.0163
26943W        W47223   2.307  15.079  12.820 -0.2946  0.2381 -0.2677
26944W        W47224   3.669   8.048   2.553  0.3685 -0.4728 -0.0344
26945W        W47225   0.508  11.474  13.082  0.2994  0.3588  0.1104
26946W        W47226  13.176   1.829   2.563 -0.1429  0.1713 -0.1192
26947W        W47227   8.540   8.551   0.813 -0.0847  0.1965  0.1803
26948W        W47228  16.039  10.849   0.070  0.0083 -0.0050  0.0398
26949W        W47229  17.564   9.878   2.665 -0.1811  0.4666 -0.1003
26950W        W47230   4.113   3.078  14.070  0.0302 -0.3750  0.0948
26951W        W47231   2.341   6.536   1.716  0.0269 -0.0873 -0.0903
26952W        W47232   9.049   4.938   0.449  0.0372 -0.1634 -0.0145
26953W        W47233  13.036   5.909  13.749  0.2018 -0.1399 -0.0566
26954W        W47234  11.394   3.614   0.087  0.1751 -0.3054 -0.1154
26955W        W47235   0.106  12.214   3.864 -0.2957 -0.0755 -0.0556
26956W        W47236   9.608   5.781   0.345 -0.1575  0.1508  0.2161
26957W        W47237   2.669   4.510  13.942 -0.3350 -0.1084  0.2796
26958W        W47238  14.973   8.187   2.200  0.1664 -0.1190 -0.2176
26959W        W47239   3.689   9.629   0.646  0.0222 -0.1312 -0.0933
26960W        W47240   1.296   9.678  12.098 -0.0007  0.1804  0.3155
26961W        W47241   0.976   8.306   2.331  0.1326  0.1645 -0.1213
26962W        W47242   1.624  13.270  16.503  0.1695 -0.1846 -0.0621
26963W        W47243   8.906   8.835   2.236 -0.1310 -0.0947  0.1211
26964W        W47244   7.829  17.821  16.005 -0.3337 -0.5429 -0.0746
26965W        W47245   2.084   4.973  12.550  0.0877 -0.0423 -0.1019
26966W        W47246  13.283  15.464  14.329  0.0318  0.0750  0.0089
26967W        W47247  15.941  12.597   2.357  0.0387 -0.0321  0.1621
26968W        W47248   7.622   9.502   1.969 -0.0357 -0.0092  0.3328
26969W        W47249   0.667  11.971  14.464  0.3688 -0.2434  0.1979
26970W        W47250   3.379   8.280   5.275  0.1429  0.3533  0.0212
26971W        W47251  15.814   8.969   4.670  0.1097  0.1808 -0.3424
26972W        W47252   8.065   6.773   3.910 -0.2935  0.0801  0.1744
26973W        W47253   9.406  14.107  13.203  0.0950  0.0696 -0.1763
26974W        W47254   3.149  14.845  16.598  0.0710  0.1881  0.1582
26975W        W47255  17.513  14.054  13.447  0.0588  0.2442  0.3708
26976W        W47256   9.078   1.624  13.849 -0.2820 -0.3716  0.0550
26977W        W47257  12.962   0.762   1.798 -0.1629  0.2066  0.0225
26978W        W47258  13.334   1.492   3.093 -0.3845  0.0936  0.1445
26979W        W47259  12.337  13.471  15.698 -0.4811 -0.0627 -0.0895
26980W        W47260  15.023  10.097  13.896  0.1036  0.3938 -0.1173
26981W        W47261   9.060  13.408   0.299 -0.3584 -0.0053  0.4659
26982W        W47262   1.574   4.140   0.581 -0.3008 -0.1329 -0.3079
26983W        W47263   4.147  15.856  15.432  0.0651 -0.3628 -0.4032
26984W        W47264   9.563   1.059   1.606  0.3956 -0.2557  0.6009
26985W        W47265   9.767   9.455  16.441 -0.1130  0.1166  0.0274
26986W        W47266  15.747   8.986  12.851  0.1479 -0.1112  0.0129
26987W        W47267   4.212   1.672  16.094  0.1540 -0.0314 -0.0735
26988W        W47268   4.918  12.490  14.609 -0.1512 -0.3093  0.2121
26989W        W47269   8.758  15.334  16.608 -0.0498 -0.0387 -0.0871
26990W        W47270  15.521   0.564  13.954 -0.3477  0.1412 -0.4059
26991W        W47271  12.131  14.639  13.696 -0.0201  0.1105  0.0162
26992W        W47272   6.988  11.559   4.606 -0.0828 -0.0824 -0.0689
26993W        W47273   6.464  11.788   3.665  0.1423  0.0537 -0.0186
26994W        W47274   8.527  14.929   2.092 -0.0421 -0.0558  0.3362
26995W        W47275   2.760  15.186  16.617  0.1464 -0.2013 -0.2504
26996W        W47276  10.220  12.939   1.737  0.1175 -0.4553  0.3492
26997W        W47277   6.071   7.160   1.986  0.2544 -0.0705 -0.1559
26998W        W47278   1.058   8.016  13.673 -0.1772  0.1551 -0.2943
26999W        W47279  17.953   1.212  14.219 -0.0746  0.4234  0.1735
27000W        W47280  13.464  14.475  15.531  0.3708 -0.2289  0.3456
27001W        W47281   6.908   5.274  15.964 -0.2024 -0.1830 -0.3492
27002W        W47282  11.473   8.273   1.944  0.0626 -0.3822  0.4550
27003W        W47283  15.027   3.934  11.894  0.1899  0.0201  0.1526
27004W        W47284   1.417  13.419  14.034 -0.5727  0.0732  0.0080
27005W        W47285  13.630   6.668   1.989  0.1555  0.1813  0.0342
27006W        W47286  10.941   0.432   4.838  0.1101 -0.1335 -0.0436
27007W        W47287   0.383   2.423   1.233  0.0977 -0.0696  0.2900
27008W        W47288   0.495   2.121  13.042 -0.0889  0.0563  0.2311
27009W        W47289  10.530   3.141  14.292  0.0014  0.0864 -0.0713
27010W        W47290   4.322  12.896  15.603  0.3399  0.0961 -0.1788
27011W        W47291  10.242   0.578  15.850 -0.0513  0.0343 -0.0173
27012W        W47292  13.432  13.675  14.937  0.3980 -0.2184  0.3758
27013W        W47293  13.835   2.969   3.236 -0.0275 -0.0639 -0.1806
27014W        W47294  11.323  17.217  10.714  0.0623  0.5925 -0.1467
27015W        W47295  16.280   5.317   4.655  0.1502 -0.0885  0.0177
27016W        W47296  14.768  13.282  15.406 -0.0364  0.0059 -0.0263
27017W        W47297  12.188  17.922  11.743 -0.0595  0.0882 -0.1696
27018W        W47298   2.994  13.318   5.266  0.3448  0.2380 -0.0826
27019W        W47299  11.079   4.003  13.264  0.0523 -0.0916 -0.1348
27020W        W47300   4.280   1.590  14.605  0.1244 -0.0454 -0.0053
27021W        W47301   5.498   2.818  14.191  0.3156  0.3293 -0.0006
27022W        W47302  14.809  16.531  13.228  0.0643  0.2209 -0.0855
27023W        W47303  12.124   2.495   4.788  0.1843 -0.0228 -0.1072
27024W        W47304  10.053  15.088  16.122 -0.4553 -0.0556  0.1962
27025W        W47305   4.164   2.884  16.624  0.0754  0.0080  0.1324
27026W        W47306   5.259  16.597  15.425 -0.2322 -0.1274 -0.0496
27027W        W47307  15.783   9.076  13.341  0.0078  0.2475 -0.0346
27028W        W47308   8.431  17.706  12.785 -0.2804  0.1894 -0.0648
27029W        W47309   7.435  16.934  12.303  0.3464 -0.3257 -0.1688
27030W        W47310  13.533  11.357   1.400 -0.0036 -0.1441 -0.0121
27031W        W47311   2.663  11.063   1.629  0.0884  0.0139 -0.0393
27032W        W47312   5.517   7.112  14.517 -0.1825 -0.1413 -0.1633
27033W        W47313  17.517   5.820   0.904 -0.1602 -0.3624 -0.3829
27034W        W47314   2.589   9.955  14.514  0.0835  0.2278 -0.0660
27035W        W47315   8.641   8.998   0.463 -0.1602  0.2205 -0.1680
27036W        W47316   5.988  16.421   2.581  0.0703  0.1176  0.3598
27037W        W47317  11.645   1.439   4.237  0.1453  0.1701  0.0294
27038W        W47318  10.313   0.972  16.641  0.0516 -0.0929  0.2489
27039W        W47319  10.218   8.278  14.847  0.2217  0.1968 -0.1122
27040W        W47320  13.000   9.947  14.844  0.2601  0.3441  0.2354
27041W        W47321   6.879  11.587  13.318  0.0926 -0.1223  0.4206
27042W        W47322   8.039  16.464   3.022  0.1420 -0.0431  0.1170
27043W        W47323  11.456  11.442  14.498  0.0987 -0.3545  0.0644
27044W        W47324   8.235   6.831   3.476 -0.0272  0.0148 -0.1201
27045W        W47325   7.906   5.391  13.888 -0.0001  0.1040  0.0284
27046W        W47326  14.651   0.931   4.517 -0.1885  0.1874  0.0081
27047W        W47327   4.361  15.943   0.279 -0.1169 -0.0788  0.0428
27048W        W47328  16.400  11.920   3.660  0.0155 -0.1681 -0.0992
27049W        W47329   1.964  16.463   4.540 -0.0001  0.1324  0.0714
27050W        W47330   7.468   3.511  16.432  0.0257 -0.1117 -0.4494
27051W        W47331  10.706   1.340  15.701 -0.1951  0.2077  0.1452
27052W        W47332  11.423   0.404  14.663 -0.0480  0.2879 -0.1031
27053W        W47333   2.897   3.553  14.872  0.1132 -0.1292  0.1282
27054W        W47334  17.562   9.777  15.714 -0.3842 -0.1753  0.0812
27055W        W47335   4.208   0.890  16.558  0.0964 -0.3289 -0.0194
27056W        W47336  14.908  14.470   4.845  0.2086  0.0378  0.0327
27057W        W47337  11.058   0.358  12.751  0.0829 -0.1888 -0.1380
27058W        W47338  12.346  17.819   3.979 -0.1039  0.3523  0.4121
27059W        W47339  11.503  13.385   4.383  0.2030 -0.3644 -0.0016
27060W        W47340  12.883   7.648   1.000 -0.1907  0.0046 -0.1860
27061W        W47341   5.522  11.877   0.325 -0.1524  0.2687  0.0952
27062W        W47342   2.511  14.251  12.866  0.0318  0.3481  0.1327
27063W        W47343  16.485  13.256   0.884 -0.2920  0.2178 -0.0911
27064W        W47344  14.414  13.234   2.540 -0.2224 -0.1787  0.1205
27065W        W47345   4.230   1.574  13.141  0.0628  0.1413  0.3330
27066W        W47346   2.429  10.917  12.599  0.0379  0.1105 -0.1426
27067W        W47347   7.933   8.234   4.456 -0.0523 -0.1162 -0.0255
27068W        W47348   2.637  17.171   0.759 -0.1666 -0.0930 -0.4297
27069W        W47349  14.017   2.571  14.350  0.1918  0.4011 -0.0455
27070W        W47350  12.780   3.873   2.369  0.2825 -0.1587  0.0198
27071W        W47351   6.998  16.280  12.908  0.1874 -0.2347  0.1163
27072W        W47352  14.457   1.058  14.442 -0.2904 -0.0898  0.2227
27073W        W47353   7.526  12.325  13.134  0.5060 -0.0133  0.1171
27074W        W47354  14.646   2.995  15.804 -0.0904  0.0621 -0.0728
27075W        W47355   9.266   2.373  16.048 -0.0841 -0.0188  0.3657
27076W        W47356   2.187   5.912   1.374 -0.1922  0.1878 -0.2339
27077W        W47357   2.493   0.538   0.284 -0.2970  0.2380  0.2191
27078W        W47358  12.804   7.385  15.713  0.1116 -0.0471 -0.1571
27079W        W47359  11.958   5.530   0.130 -0.3452  0.0149 -0.1066
27080W        W47360   2.497  10.141  12.450 -0.0019  0.1916 -0.1337
27081W        W47361   1.692  15.177   0.040  0.1008  0.1372 -0.0134
27082W        W47362   5.039   4.129   2.081  0.3525  0.1162  0.2852
27083W        W47363  12.858   3.766   1.205 -0.1424  0.2601  0.2680
27084W        W47364  15.596   5.592  15.569 -0.2602 -0.0036 -0.1954
27085W        W47365  10.103  15.316   2.492 -0.0707  0.1786  0.0147
27086W        W47366   8.231  14.318   4.612  0.1211 -0.1402 -0.1651
27087W        W47367   4.527  11.916   1.818  0.0332  0.2735 -0.0025
27088W        W47368   5.416   5.862  13.650  0.2715  0.2439  0.1211
27089W        W47369   3.172   4.696  13.465  0.1282  0.0849  0.1333
27090W        W47370   6.440  11.348  13.392 -0.1388 -0.2837 -0.2859
27091W        W47371  14.290   4.513  16.437  0.0752  0.0790  0.3050
27092W        W47372   9.932   7.988  16.343  0.0602 -0.1717 -0.0887
27093W        W47373  17.527  12.531   2.231  0.1167 -0.1445  0.0684
27094W        W47374  10.269   9.192   1.182 -0.1402 -0.2063 -0.1990
27095W        W47375   4.481   7.245  13.338 -0.0304 -0.2143  0.0032
27096W        W47376  17.645   4.789  15.702 -0.0120  0.1077 -0.1604
27097W        W47377   9.145  16.242  13.298 -0.2581 -0.0187  0.1852
27098W        W47378   7.450   2.706   5.422 -0.2451  0.1452 -0.1592
27099W        W47379   5.164   5.973  13.246  0.0342  0.0199  0.0799
27100W        W47380   2.871  15.533   2.987 -0.2932 -0.0083  0.2444
27101W        W47381  13.227  12.775  12.598 -0.1872  0.0286  0.1573
27102W        W47382   2.333   4.471  14.807  0.0985  0.0415  0.0748
27103W        W47383  17.990  11.738   2.979  0.1071 -0.0382 -0.0154
27104W        W47384  13.243   1.955   1.568 -0.3594  0.1151  0.2464
27105W        W47385   9.975   7.702   1.447 -0.2697  0.0339 -0.3192
27106W        W47386  12.205  16.685   1.393  0.0105 -0.3394 -0.0912
27107W        W47387   6.437   3.091   3.434 -0.1331  0.0648 -0.1322
27108W        W47388  11.276  17.264   5.202  0.1090  0.1212 -0.0009
27109W        W47389   4.670   2.228   1.813  0.0015 -0.0051  0.0144
27110W        W47390  10.862   7.593  16.621 -0.2883 -0.1395 -0.2690
27111W        W47391  12.343  14.695   0.928  0.1871 -0.0815  0.0511
27112W        W47392   4.886  15.049   5.320  0.3018  0.3795  0.0131
27113W        W47393  17.118  16.324   0.318  0.1276 -0.1375 -0.1876
27114W        W47394   7.307   0.793  12.296 -0.0074 -0.2873  0.0340
27115W        W47395  17.847  12.111  12.052 -0.1785  0.1468  0.0610
27116W        W47396  10.161   1.902  14.072 -0.3463 -0.1449  0.1002
27117W        W47397  17.416   1.638   2.888 -0.1563  0.1879 -0.3183
27118W        W47398   9.938   6.850  14.285 -0.1512 -0.1285  0.3670
27119W        W47399   7.561   2.999  12.846  0.0929  0.2938  0.1280
27120W        W47400   0.748   3.825  12.514 -0.0531  0.0661  0.4740
27121W        W47401   7.673  16.501  14.793 -0.0698  0.0709 -0.2765
27122W        W47402   7.492   6.801   3.978  0.1884  0.1629 -0.0734
27123W        W47403   9.714  10.187  12.933  0.2412  0.2167 -0.1074
27124W        W47404   0.415   8.651   3.423  0.0833 -0.2950  0.0873
27125W        W47405   3.997   8.772   4.145  0.1278  0.0506  0.1423
27126W        W47406  17.209   6.269  14.718 -0.0590  0.2469  0.1588
27127W        W47407   7.337   1.111   0.879 -0.3965 -0.0673  0.0257
27128W        W47408   5.329   0.547  14.186 -0.0803 -0.2037 -0.2653
27129W        W47409  12.497   4.825  12.898 -0.0434 -0.1281  0.1607
27130W        W47410   3.411  12.274  14.808 -0.1166 -0.0004 -0.1508
27131W        W47411  16.444  17.639   4.651  0.2836 -0.0231  0.0553
27132W        W47412  14.654   0.997   3.668  0.0513  0.3727  0.2545
27133W        W47413  12.769  10.683   3.200  0.0577 -0.0160 -0.0331
27134W        W47414   0.143   7.291   3.619  0.0537  0.0240 -0.0268
27135W        W47415  13.144   0.891   0.106 -0.1864 -0.1102  0.3019
27136W        W47416  16.324  10.559   1.875  0.0595 -0.2213 -0.0141
27137W        W47417   6.825  11.119   1.935  0.3238 -0.3154 -0.1710
27138W        W47418  13.419  16.957  14.302  0.1836  0.1336  0.1386
27139W        W47419   2.986  15.576  13.336 -0.1481 -0.1257  0.0644
27140W        W47420  14.775   5.496  15.401  0.1640  0.0437 -0.1723
27141W        W47421   4.129   3.990  14.571 -0.3436 -0.1921 -0.2092
27142W        W47422  16.467  10.251   3.780 -0.1951 -0.0244  0.0103
27143W        W47423  12.707  16.695   3.989  0.0392 -0.0253  0.1290
27144W        W47424  17.190  11.336   2.323  0.1809  0.0515 -0.3432
27145W        W47425   7.483  14.814  13.694  0.0690 -0.1606 -0.3184
27146W        W47426   4.332   2.105   2.676  0.1607  0.1721 -0.3104
27147W        W47427  13.458   7.903   4.577  0.1053 -0.0728 -0.0666
27148W        W47428   5.848   4.995  15.826  0.2508 -0.0687 -0.2093
27149W        W47429   8.237  13.599   4.137 -0.2222  0.0184  0.0045
27150W        W47430   2.517  16.154   3.744  0.2595 -0.2984  0.0628
27151W        W47431   5.824  10.401   3.176  0.0486 -0.0657 -0.0490
27152W        W47432   0.748  10.113  14.384 -0.1996  0.2701 -0.0224
27153W        W47433  16.696  11.361   2.136 -0.1054 -0.2744  0.1957
27154W        W47434  17.985   0.716  14.936  0.3858  0.1006 -0.0832
27155W        W47435  14.090  17.326   0.578  0.1495 -0.0854 -0.0127
27156W        W47436  15.432  13.906   2.826 -0.0052  0.3481  0.3883
27157W        W47437   6.791  15.170  15.396  0.3298  0.0406 -0.2176
27158W        W47438   3.622  14.002   4.580 -0.1725  0.0055  0.1160
27159W        W47439  11.969   0.398   1.075 -0.0342 -0.0110 -0.0393
27160W        W47440   8.905  13.513   0.778  0.0965 -0.4257 -0.0682
27161W        W47441  16.268   7.782  13.450  0.2849 -0.0729 -0.1195
27162W        W47442  16.604  14.032  15.118 -0.4541  0.3550 -0.0923
27163W        W47443   9.844   4.006  14.415 -0.0722 -0.2176  0.2952
27164W        W47444  12.442   9.189   0.208 -0.1735  0.2198  0.2119
27165W        W47445  17.864   9.828   1.117  0.0014  0.0002 -0.2949
27166W        W47446  14.607  13.662   1.224  0.2501  0.4310 -0.3403
27167W        W47447  15.826  13.562  12.822  0.2478 -0.0846  0.1141
27168W        W47448  10.966   7.363   4.023 -0.3040  0.1031 -0.1562
27169W        W47449  12.636   5.278   0.349 -0.2283 -0.0365  0.3994
27170W        W47450   4.742  17.621   4.870  0.0420 -0.1796  0.0840
27171W        W47451   2.125   1.895   0.405  0.2519  0.2822 -0.1127
27172W        W47452   7.337   7.083   1.523 -0.3563 -0.1845  0.2253
27173W        W47453  15.442  13.970   1.174 -0.0029 -0.2021 -0.0765
27174W        W47454   1.196   9.173  13.982  0.0380  0.0912  0.0664
27175W        W47455  15.660   3.470   0.455 -0.2451 -0.1114  0.3948
27176W        W47456   7.553   5.130  12.123 -0.1897  0.0759 -0.0510
27177W        W47457  12.947  14.555  15.633 -0.0873  0.1099  0.1293
27178W        W47458  10.410   8.217  16.154 -0.2638  0.0547 -0.1738
27179W        W47459   5.180   2.336   2.458 -0.0547  0.0331 -0.1941
27180W        W47460  17.744   4.573   4.574 -0.0957 -0.0972 -0.0729
27181W        W47461  16.554  11.542   4.561 -0.0395  0.1610  0.0889
27182W        W47462  10.660   9.191  13.352 -0.0090  0.0093  0.0445
27183W        W47463   1.745   7.112   1.952 -0.1125 -0.2288 -0.0612
27184W        W47464  10.566   0.502   2.449  0.1311  0.0856  0.3749
27185W        W47465   6.118  11.145  12.960  0.3608  0.2440 -0.0210
27186W        W47466  13.209  10.290   2.038 -0.0174 -0.2665 -0.1864
27187W        W47467   7.740  16.600   1.558  0.1481  0.2971  0.0381
27188W        W47468  16.563  13.537  15.338  0.1027  0.0767  0.0389
27189W        W47469  16.869  13.846   0.258 -0.0156  0.0022  0.0085
27190W        W47470  12.504  16.707  11.030 -0.1761 -0.1604  0.1867
27191W        W47471   0.637  10.828   0.566 -0.0377  0.0501 -0.1965
27192W        W47472  17.912  14.273   1.727 -0.2353  0.0612 -0.1468
27193W        W47473  12.692  16.298  13.601  0.1099  0.1863 -0.3263
27194W        W47474  16.921  10.006   2.431 -0.1507  0.0733 -0.2408
27195W        W47475  17.068  10.734   4.933  0.0958  0.0006 -0.0244
27196W        W47476   9.124  17.967   4.176 -0.2666  0.1119  0.2558
27197W        W47477   2.075  12.687   2.863 -0.0879  0.1646 -0.3314
27198W        W47478   6.788   1.179  11.672  0.2274  0.1953  0.0106
27199W        W47479  13.367  12.378   0.573 -0.1251  0.3989 -0.0967
27200W        W47480   1.056   7.066   3.086 -0.1706  0.0383  0.0638
27201W        W47481  12.744   5.660   0.771 -0.1595 -0.0114  0.0390
27202W        W47482  13.341   8.617   0.025 -0.2229  0.0828  0.1491
27203W        W47483   9.484   1.236  13.630 -0.1828 -0.1199 -0.4099
27204W        W47484   7.957  12.510  13.271  0.3463  0.1626  0.0555
27205W        W47485   3.946   3.836   4.111 -0.0522  0.4360  0.0999
27206W        W47486  12.108   9.722  14.131 -0.0907  0.0531 -0.1017
27207W        W47487  11.609  15.867  14.844 -0.0853  0.0311 -0.1579
27208W        W47488   9.446  15.291  13.542 -0.4767  0.0395  0.0583
27209W        W47489   5.683  16.351  14.903  0.0162  0.0594  0.2646
27210W        W47490   6.608   1.491  13.392  0.4434 -0.0542  0.0251
27211W        W47491  11.208  17.461  15.220 -0.0795 -0.2036  0.3530
27212W        W47492   6.018   1.561   3.448 -0.0618 -0.0204 -0.0759
27213W        W47493  10.112  13.273  15.281  0.1000  0.0547  0.0821
27214W        W47494  12.472  11.725  15.116 -0.0160 -0.0798 -0.1909
27215W        W47495   7.950  13.031  14.074 -0.1329  0.2008  0.0587
27216W        W47496   1.471  17.620  16.115 -0.0462  0.0679  0.0340
27217W        W47497  15.016   0.936  13.132  0.1165 -0.0396 -0.0098
27218W        W47498   4.391  17.391   3.352 -0.1966 -0.2387 -0.1690
27219W        W47499  11.665   1.365  16.490  0.1246 -0.0085 -0.1533
27220W        W47500   1.213   5.405   1.108 -0.2942  0.1177  0.4357
27221W        W47501   0.840   7.705   0.474  0.0047 -0.2274  0.0993
27222W        W47502  12.228  12.393   3.669  0.0605 -0.2050  0.2877
27223W        W47503   5.883  14.077   2.971 -0.1952  0.1598 -0.2294
27224W        W47504  11.237  17.097   2.096 -0.1090  0.0927  0.4750
27225W        W47505  13.454   9.046   0.271  0.0072  0.3050 -0.0219
27226W        W47506   6.604  13.267   1.349  0.2016  0.0472 -0.4047
27227W        W47507   7.329   7.492   2.483 -0.0766 -0.3809  0.2531
27228W        W47508   6.780  10.257  15.591 -0.0477  0.2603  0.0786
27229W        W47509  13.242  14.192   2.666  0.0022  0.0945  0.0722
27230W        W47510   5.286   4.701  16.026  0.1068  0.0395 -0.0691
27231W        W47511   0.765   3.091  15.324  0.1136 -0.1258  0.0858
27232W        W47512   2.140   9.914  11.238 -0.0983  0.1147 -0.1565
27233W        W47513   9.590  17.193  13.234 -0.1630 -0.0043 -0.0646
27234W        W47514   1.870   6.060  14.903 -0.1831  0.0546  0.2845
27235W        W47515  16.936   5.308   2.120 -0.1611 -0.0481  0.1769
27236W        W47516  12.399  10.144  14.215  0.0316 -0.1042 -0.1330
27237W        W47517   6.186  11.929  12.591  0.0863  0.0970  0.2927
27238W        W47518   7.267  11.412  13.729 -0.1016 -0.2308 -0.0085
27239W        W47519   6.200  14.852   0.263 -0.3008 -0.0105 -0.0288
27240W        W47520   6.844   5.938   4.429 -0.1562  0.1943 -0.1130
27241W        W47521   6.108   2.156   3.684 -0.1270  0.1038  0.2430
27242W        W47522   4.621   5.847  13.160 -0.0985  0.1618  0.1186
27243W        W47523   6.330   6.708   3.185  0.0058 -0.3226  0.0071
27244W        W47524   5.824   3.512   1.177 -0.1252  0.1418  0.2002
27245W        W47525   2.217   6.029   3.427  0.0172 -0.0961  0.0170
27246W        W47526   4.038   7.220  13.180 -0.1143  0.1532 -0.1018
27247W        W47527  15.675  16.733   1.086  0.2384  0.1277  0.0835
27248W        W47528  12.733  14.883  12.379  0.0590 -0.2390 -0.1249
27249W        W47529   9.099  13.356   3.844 -0.0887  0.1127 -0.0388
27250W        W47530  13.128   9.098   1.503  0.0378 -0.2057 -0.1166
27251W        W47531   1.118  10.231  16.032 -0.0378 -0.0311  0.1647
27252W        W47532   5.718   5.440   3.096  0.1926 -0.2715  0.2169
27253W        W47533   9.480   3.605  16.289 -0.1349  0.2045  0.0431
27254W        W47534   6.188   2.292  14.380 -0.0427  0.3453  0.1169
27255W        W47535   7.458  10.994  12.698  0.1274 -0.0652  0.2448
27256W        W47536  12.749   8.747   0.593  0.0990 -0.0476 -0.1208
27257W        W47537  16.967  14.061   1.073  0.0287 -0.3621 -0.2744
27258W        W47538   7.062  12.392   3.907  0.0327 -0.1473  0.0810
27259W        W47539   5.954   7.873  14.454  0.0597  0.1148  0.1243
27260W        W47540   2.361  10.460   1.558  0.1718 -0.1452 -0.4278
27261W        W47541  13.411   7.258   0.334 -0.0284 -0.2925 -0.0337
27262W        W47542   8.792   5.128  12.431 -0.0527 -0.0617  0.3249
27263W        W47543   2.743  16.703   0.600  0.1409 -0.2780 -0.0721
27264W        W47544  12.546   1.200   4.170 -0.0328 -0.1750  0.0237
27265W        W47545  13.562   5.117  11.774  0.0991 -0.2022  0.0519
27266W        W47546  12.360  11.577   4.287 -0.1935  0.0919 -0.0797
27267W        W47547  17.198  10.069  14.954 -0.0768 -0.0921 -0.0622
27268W        W47548  14.606  16.832   2.023  0.3275 -0.3116  0.1268
27269W        W47549   1.408  14.061   0.548 -0.0669 -0.1778 -0.0782
27270W        W47550   3.229  14.002   1.350  0.3030  0.1670 -0.2151
27271W        W47551   2.678   0.044   2.785  0.2576  0.2911 -0.0241
27272W        W47552   7.318  14.512   4.561 -0.0653 -0.1888 -0.0093
27273W        W47553   5.703   7.854   0.693 -0.2291 -0.2809 -0.1133
27274W        W47554  13.828  12.821  14.814 -0.1848  0.1588 -0.1011
27275W        W47555   2.607   9.486   0.155  0.0039 -0.3906  0.1618
27276W        W47556   6.727   2.986   0.692 -0.0361 -0.0829  0.0702
27277W        W47557  12.302   8.569   2.631  0.1479 -0.0301  0.1818
27278W        W47558   4.893   3.835  12.378 -0.2310  0.0906  0.1208
27279W        W47559   0.567   8.897   3.880  0.3807 -0.1573  0.1222
27280W        W47560  13.806  11.598  16.124  0.2964 -0.2826  0.1900
27281W        W47561  16.321  13.669  14.840 -0.0692  0.1177  0.0700
27282W        W47562   7.773   1.214  13.154 -0.1999  0.2333 -0.0131
27283W        W47563   4.720   1.292   3.165  0.1163  0.0056 -0.0169
27284W        W47564  17.970   0.485  15.959 -0.1043  0.1985  0.1790
27285W        W47565  10.844  12.014   2.777 -0.1200  0.2194 -0.3548
27286W        W47566   9.109  13.195   1.216 -0.1619 -0.3434  0.1473
27287W        W47567   4.024  15.779  15.904  0.3594  0.0059  0.3262
27288W        W47568  10.893   2.473   4.804 -0.0063 -0.1404  0.0852
27289W        W47569   8.081   9.324   2.060 -0.0315  0.1082  0.0497
27290W        W47570   9.126   4.526   2.873 -0.3147  0.1728 -0.1858
27291W        W47571  13.314   4.401   0.106 -0.0281 -0.0981 -0.0346
27292W        W47572  15.652   7.242  13.712  0.0952  0.1002 -0.2072
27293W        W47573   3.149  15.838  14.636 -0.1184 -0.2349  0.1200
27294W        W47574   5.999   5.019   3.349 -0.2615  0.0230 -0.0490
27295W        W47575   6.290  16.675   3.733 -0.0082 -0.1276  0.3375
27296W        W47576  12.914   0.198   2.948 -0.4505  0.1709  0.3301
27297W        W47577  17.762  12.699   4.593 -0.0784 -0.0606 -0.0109
27298W        W47578  11.150   9.451   2.770  0.4123 -0.1548  0.1139
27299W        W47579  10.848  13.479  15.267  0.2110 -0.3187 -0.1126
27300W        W47580   8.682  11.149  12.804 -0.1125  0.1042  0.0727
27301W        W47581   2.167   5.028   4.881 -0.0993 -0.1744  0.1307
27302W        W47582   5.754   0.461  15.070  0.1374 -0.2776  0.0579
27303W        W47583  15.098   6.553  15.432 -0.2518  0.0530 -0.0928
27304W        W47584   8.210  16.388   3.588  0.1090 -0.0568 -0.1422
27305W        W47585   8.568  16.612   5.466 -0.0270  0.1622  0.0971
27306W        W47586  17.364  16.922  14.335 -0.0479 -0.0685  0.0571
27307W        W47587  16.244  11.276   1.892  0.0658 -0.2415  0.0248
27308W        W47588   6.941   6.134   1.221  0.3112 -0.0730  0.0005
27309W        W47589  10.283   9.391   2.438 -0.2541  0.1627 -0.1764
27310W        W47590   9.615   3.652  11.002  0.1378  0.2311 -0.0223
27311W        W47591   0.132  13.304   3.504  0.0104 -0.0992 -0.0948
27312W        W47592   5.747  14.886  13.285 -0.2097  0.2562 -0.2615
27313W        W47593   6.874   8.518  13.223  0.5440  0.6148  0.0328
27314W        W47594  16.146  12.340   3.574 -0.0976  0.1391 -0.2048
27315W        W47595   0.222  14.288  12.379 -0.0535 -0.1240  0.1013
27316W        W47596   8.553   8.863  12.532 -0.0354  0.1417 -0.0168
27317W        W47597  15.840  13.099   4.618 -0.1201 -0.2491  0.2285
27318W        W47598  13.897   5.185   1.758  0.0771 -0.0088  0.0644
27319W        W47599   4.709  16.944  16.050 -0.2315  0.0387 -0.1697
27320W        W47600  10.458   3.371  11.788 -0.1296 -0.1338  0.2184
27321W        W47601  16.841  12.237   2.877  0.0233 -0.3166  0.2922
27322W        W47602   2.110  11.206   3.355 -0.0394  0.0682  0.0204
27323W        W47603   0.335   6.492   1.538  0.1121 -0.1508 -0.0658
27324W        W47604   7.023   5.353  14.306  0.2036 -0.4226 -0.1149
27325W        W47605   2.667  16.789  16.309  0.0059  0.0084  0.0468
27326W        W47606  11.954  13.801   1.688 -0.1273  0.0209 -0.1284
27327W        W47607  12.007   3.580  12.517 -0.0260  0.1147  0.2290
27328W        W47608  15.853   5.799  14.576  0.4184 -0.2123 -0.2109
27329W        W47609  10.944  12.031   1.672 -0.2777  0.1449 -0.1347
27330W        W47610  15.995   8.340   4.646 -0.1256 -0.1290 -0.0609
27331W        W47611   7.535  16.814  13.913 -0.2247 -0.0501 -0.0433
27332W        W47612  14.717  11.227  12.484  0.0658 -0.0279 -0.1833
27333W        W47613  16.232  10.342   5.041  0.1270  0.2122  0.3495
27334W        W47614  10.920  14.781  13.543  0.1741 -0.1823 -0.0966
27335W        W47615   7.226   5.780   2.127 -0.0522 -0.0231  0.1130
27336W        W47616   9.098   9.059   1.781  0.1688  0.1232 -0.0868
27337W        W47617  16.525  12.431   2.523  0.1920  0.0890  0.0608
27338W        W47618   8.108   6.859  14.895  0.1577 -0.1376 -0.2845
27339W        W47619  15.743  13.595   3.838 -0.0933  0.0335  0.0707
27340W        W47620  17.493   8.181   0.466 -0.0868  0.0441 -0.1223
27341W        W47621   5.925   5.952   2.862  0.0519 -0.3523 -0.0735
27342W        W47622  11.067   8.067   4.486 -0.0617 -0.0949 -0.1734
27343W        W47623   7.369  14.208   5.165 -0.1368 -0.0855 -0.2203
27344W        W47624   7.878  10.719   3.188 -0.0910  0.1447 -0.1389
27345W        W47625   4.094   3.837   2.272 -0.1731  0.0544  0.0809
27346W        W47626   3.552   9.408  13.619 -0.0104 -0.3177 -0.0832
27347W        W47627   9.306   9.330  14.397  0.0169  0.0470 -0.2770
27348W        W47628   0.944   4.386  13.523  0.2788  0.0153 -0.2819
27349W        W47629   5.522   0.857   3.709 -0.0038  0.1549  0.0860
27350W        W47630   6.200  16.543   3.068 -0.0872  0.1652 -0.3430
27351W        W47631  10.679  16.063   2.913 -0.0966  0.0550 -0.1610
27352W        W47632  12.009   6.140  15.578  0.0085 -0.0066  0.2387
27353W        W47633   9.217   6.770  13.074  0.0420  0.2099 -0.1033
27354W        W47634  17.103   1.716  14.599 -0.2775 -0.0048 -0.1791
27355W        W47635  16.277  11.976   1.445 -0.1570  0.0861 -0.2136
27356W        W47636   4.510  10.493   3.625  0.0926  0.1414  0.0992
27357W        W47637  14.707   7.754   3.063 -0.1942  0.0439 -0.2436
27358W        W47638   0.466  11.779   2.772 -0.0461 -0.3218  0.0519
27359W        W47639  14.510  17.067   1.584 -0.1010  0.0602  0.0624
27360W        W47640   1.419   7.006   4.735 -0.2636 -0.0881  0.3463
27361W        W47641   6.944   0.693   4.772  0.2893  0.0775  0.1065
27362W        W47642   4.623  15.716   1.071 -0.0837  0.3165  0.1705
27363W        W47643   4.031   5.494   2.820 -0.0131 -0.0439  0.0083
27364W        W47644   8.781  17.771   0.392  0.0500 -0.0910 -0.0408
27365W        W47645   6.972   3.208   1.074 -0.2489 -0.2478 -0.1093
27366W        W47646   3.679   7.375   3.343 -0.0627 -0.0675  0.3170
27367W        W47647  10.727   1.307   3.260 -0.2648 -0.3518 -0.0625
27368W        W47648  17.242  13.145  14.213  0.0904 -0.2518  0.0291
27369W        W47649   9.331   9.469   4.698 -0.2111  0.0193  0.3570
27370W        W47650   1.610  14.406   1.555 -0.1425 -0.2824  0.0802
27371W        W47651   4.849   8.368   0.094  0.1489  0.1155  0.0290
27372W        W47652  12.370   7.817  12.521 -0.4986 -0.1770 -0.1212
27373W        W47653  12.281   5.735   3.542  0.2146  0.3503 -0.1832
27374W        W47654  13.030  12.133   1.487 -0.6406  0.0939 -0.1117
27375W        W47655   9.279  12.063   2.621 -0.0322 -0.0996  0.1856
27376W        W47656   1.032   0.755   2.720  0.1177  0.0214 -0.0519
27377W        W47657  14.235  12.703   0.388 -0.0329  0.2003 -0.0606
27378W        W47658  12.925  15.955   5.001 -0.0257 -0.2433  0.0420
27379W        W47659  15.990   6.106  16.537 -0.0059  0.1672  0.0970
27380W        W47660   6.087   4.877  13.369  0.1287 -0.1933  0.1924
27381W        W47661  10.910  14.277   0.035 -0.1711 -0.2514  0.2266
27382W        W47662   6.862   1.884   2.398  0.1304  0.0049 -0.1299
27383W        W47663   0.132   7.966  14.659  0.2354  0.0900  0.2338
27384W        W47664   2.649   1.118  15.744 -0.0875  0.0881 -0.2079
27385W        W47665  12.615   9.317   0.622  0.1647 -0.1647  0.1711
27386W        W47666  10.645  14.218  14.974  0.0947 -0.0518 -0.1484
27387W        W47667  17.772   8.009   1.166 -0.0080  0.1276 -0.0223
27388W        W47668  12.758   8.766  12.667 -0.1107  0.1373 -0.4079
27389W        W47669   9.658   2.920   2.201  0.0143  0.2374  0.6448
27390W        W47670   0.381  16.516   3.959  0.2477 -0.1204 -0.2171
27391W        W47671   1.828   7.291  12.284 -0.1842  0.2449  0.0707
27392W        W47672   2.810   6.668   3.455  0.0513 -0.1550  0.0918
27393W        W47673   9.842   2.648  14.098  0.1205  0.2117  0.0062
27394W        W47674   1.010   5.827   4.782  0.1100 -0.1789 -0.1844
27395W        W47675  13.007   7.990  13.714 -0.1883 -0.1415  0.1791
27396W        W47676  12.603  10.649   4.715  0.1454 -0.2916  0.1917
27397W        W47677   6.368   8.604  16.055 -0.2646 -0.1063 -0.2384
27398W        W47678  15.692   4.243  14.628  0.2599 -0.0520  0.2428
27399W        W47679   2.531   0.190  15.435  0.3036  0.1741 -0.1881
27400W        W47680   2.804   6.773  15.361  0.0037  0.0574  0.0519
27401W        W47681   2.189  17.675  13.769  0.0785  0.0359 -0.3584
27402W        W47682  10.328   5.349  16.562 -0.1387  0.0512 -0.1684
27403W        W47683   5.556   0.634   2.167 -0.0544 -0.0727  0.0821
27404W        W47684  16.087   0.875   3.330  0.2279  0.0675 -0.2425
27405W        W47685   1.494  16.464   3.174 -0.2080  0.0425 -0.0190
27406W        W47686   9.112   2.940  12.007 -0.5178  0.4668 -0.0545
27407W        W47687   8.787   0.868   4.773 -0.0235 -0.0754  0.0967
27408W        W47688  12.237  16.271  12.048 -0.0380  0.1710  0.0333
27409W        W47689  15.781  17.723  14.724  0.1743 -0.0564  0.1719
27410W        W47690  11.129  15.790   3.115 -0.0406  0.1128  0.0656
27411W        W47691  10.456  12.000   3.072 -0.1065  0.0486 -0.1512
27412W        W47692   6.989   7.880  13.128 -0.1739  0.1194  0.1120
27413W        W47693   0.242  13.889  13.768 -0.1502  0.1290 -0.0753
27414W        W47694   4.052  11.617  12.837  0.1684 -0.0143 -0.0735
27415W        W47695   1.684   2.831  14.551 -0.0003  0.0958 -0.0707
27416W        W47696  17.762   7.773   4.875  0.0707  0.2057  0.1088
27417W        W47697  12.262  14.108  14.308 -0.3162  0.2759  0.3798
27418W        W47698   6.800  10.802   2.379 -0.1236 -0.1380 -0.0490
27419W        W47699   0.882   8.625  14.883 -0.0029  0.2880  0.1592
27420W        W47700  11.637   6.537  15.763  0.3059  0.2192  0.0652
27421W        W47701  15.070  14.888  13.468  0.1776  0.0164  0.3145
27422W        W47702  14.347  15.876   4.468 -0.0052 -0.0292 -0.1683
27423W        W47703  17.349  10.800  12.427 -0.0908 -0.1244  0.1332
27424W        W47704  15.246  11.553   4.365 -0.2433 -0.2058 -0.0357
27425W        W47705  10.410  10.084  14.902 -0.1711  0.0650 -0.3087
27426W        W47706   5.015   4.740   2.372 -0.2763 -0.0446  0.1050
27427W        W47707   0.290  10.403   3.004  0.0372 -0.0130  0.0493
27428W        W47708   2.750  17.072   4.545 -0.2247 -0.2014  0.2141
27429W        W47709   7.111   1.277  15.726  0.0799  0.1971 -0.0136
27430W        W47710  16.600   3.617   1.989  0.0729  0.2624 -0.1384
27431W        W47711  13.595  13.445  16.229  0.1788  0.2159  0.0326
27432W        W47712   4.085   5.179   4.049  0.4866 -0.0825  0.1884
27433W        W47713  16.146   3.990  14.530 -0.2251 -0.2927 -0.1214
27434W        W47714   0.471   3.717   2.464  0.0368 -0.1244  0.0476
27435W        W47715  13.804  10.942   0.581  0.1416 -0.0963  0.1438
27436W        W47716   9.387  10.989   4.100  0.1445 -0.0255  0.3202
27437W        W47717   6.001  12.292  12.218  0.1267 -0.2591 -0.0998
27438W        W47718   8.423   6.941  13.042  0.2426 -0.2946  0.1009
27439W        W47719  16.941  13.462   3.273  0.2269  0.1238  0.0250
27440W        W47720   7.724   7.208  16.476 -0.1515  0.0869 -0.1145
27441W        W47721   1.005   4.329   4.520  0.2280  0.0389 -0.0839
27442W        W47722   9.166  13.303  15.677  0.2235 -0.1975  0.2355
27443W        W47723   6.234   7.483   4.327  0.0287 -0.2429 -0.0815
27444W        W47724   3.836   4.515   1.919  0.5195 -0.1454 -0.0018
27445W        W47725   8.939  17.248   2.483 -0.1040 -0.0159  0.1610
27446W        W47726  14.622  14.882  15.669  0.1713 -0.1264 -0.1305
27447W        W47727  10.779   3.609   4.232 -0.0476  0.0127 -0.1153
27448W        W47728   5.889   2.442   3.981  0.1043 -0.2741 -0.3057
27449W        W47729  12.094  15.554  12.698  0.3596 -0.2178  0.1036
27450W        W47730  11.148   7.575  11.957 -0.1825  0.2542  0.3262
27451W        W47731   5.081   3.930   3.433  0.2050  0.4112  0.0871
27452W        W47732  17.454   1.486  16.592  0.0535  0.1838 -0.1560
27453W        W47733  17.621  10.537  16.319  0.0823 -0.1369 -0.1103
27454W        W47734  11.858  15.288   3.052  0.0680 -0.1182  0.0132
27455W        W47735  10.960   5.343  16.556  0.1957 -0.0067  0.0896
27456W        W47736  13.956   1.670  13.328  0.0172  0.0986  0.2841
27457W        W47737   1.068   2.889  16.546 -0.2782  0.1425 -0.3760
27458W        W47738  15.838  11.090   2.053  0.3266  0.0223  0.1232
27459W        W47739  14.386  10.813  13.770 -0.2655  0.0889  0.1577
27460W        W47740   6.858  11.617   2.009  0.0359 -0.1041 -0.1505
27461W        W47741   4.761  12.596  14.171  0.2314  0.2031  0.0785
27462W        W47742  16.871  17.220  12.052 -0.0347 -0.1051  0.2587
27463W        W47743   5.451   1.033  14.165  0.0184 -0.0211  0.0683
27464W        W47744   1.315   1.619  14.108 -0.0120 -0.3687 -0.1017
27465W        W47745   4.927  10.831   1.029 -0.4046 -0.1406  0.1120
27466W        W47746  13.681  12.944  13.157 -0.1939  0.2537  0.1641
27467W        W47747  11.807  12.051   3.723 -0.1307  0.3507 -0.0309
27468W        W47748   7.424  11.794   4.518  0.2775  0.1217  0.2786
27469W        W47749   8.157   8.954  15.619 -0.0360  0.1473  0.0454
27470W        W47750   1.136  15.186  13.314 -0.1598  0.0476  0.1900
27471W        W47751   0.182  16.292  13.985 -0.1097 -0.2059  0.0500
27472W        W47752  14.816  16.518   3.591 -0.1607 -0.0664 -0.0164
27473W        W47753   0.971   6.374  14.867 -0.0716 -0.0058  0.0528
27474W        W47754   9.886  16.333  13.833  0.1819  0.0444  0.1622
27475W        W47755   9.889   3.981   3.568 -0.3207 -0.2208  0.0403
27476W        W47756   2.301   5.308   0.310  0.1941 -0.4366 -0.3500
27477W        W47757  17.715   4.334  16.032 -0.0309  0.2109 -0.1547
27478W        W47758   3.398   3.865   1.175 -0.2332 -0.2124 -0.0190
27479W        W47759  17.226  13.291   4.861 -0.1972 -0.1435 -0.2946
27480W        W47760  16.929  15.708   1.776 -0.0271 -0.1683 -0.2915
27481W        W47761  14.459   9.438  14.493 -0.0236  0.1419  0.0467
27482W        W47762   8.825   9.862   0.310  0.0796  0.3519 -0.1069
27483W        W47763  14.709   3.564   0.800  0.1544  0.1683  0.0962
27484W        W47764  15.130   4.360   2.768  0.3105  0.1479 -0.2616
27485W        W47765   4.800  17.387   2.253  0.2462  0.0857 -0.0744
27486W        W47766  14.631   7.558   2.599  0.1977 -0.1763 -0.0380
27487W        W47767  16.592  12.335   4.128 -0.0141 -0.0435  0.0219
27488W        W47768   0.156   2.425   2.157  0.1066 -0.1804  0.0532
27489W        W47769   4.130  16.798  15.525  0.2035  0.1040 -0.1338
27490W        W47770   8.947   0.316   4.824  0.1585 -0.1026 -0.0168
27491W        W47771   9.903   1.081   2.647  0.1879 -0.0822  0.0611
27492W        W47772  15.674   1.062  12.364 -0.0487  0.0590 -0.0280
27493W        W47773  17.942   3.889  15.365  0.2347 -0.0029 -0.1741
27494W        W47774   0.424   1.470   1.387 -0.1998 -0.1250 -0.1849
27495W        W47775   3.079   1.614  15.104 -0.2228  0.3935  0.3885
27496W        W47776   2.102  15.406  13.523 -0.2385 -0.3671  0.0610
27497W        W47777   1.135  12.450  13.452 -0.4905 -0.1315 -0.0172
27498W        W47778   6.443   2.900  12.134  0.0894 -0.2247  0.0475
27499W        W47779  16.423   4.223   2.820  0.0033  0.1628  0.0232
27500W        W47780   8.139   6.017   4.646  0.0113  0.3425 -0.0452
27501W        W47781   9.759   4.149   0.325  0.2426  0.1965  0.0057
27502W        W47782   4.532   0.952  12.232  0.1093 -0.1141 -0.1020
27503W        W47783  14.178  17.519  14.684 -0.0729  0.0331  0.1690
27504W        W47784   3.308  12.320   3.507 -0.0619 -0.0837  0.3566
27505W        W47785   3.444   9.198   0.633 -0.1798  0.1889  0.1220
27506W        W47786   8.663  13.130   0.314 -0.0837 -0.2333  0.1581
27507W        W47787   2.704   0.688  15.275 -0.2227  0.0012  0.0646
27508W        W47788   1.876   6.762   1.612  0.0116 -0.0274 -0.1732
27509W        W47789   3.679  12.464  15.172 -0.0789 -0.2715  0.0632
27510W        W47790   2.146   3.074   2.371 -0.1777 -0.4091  0.0123
27511W        W47791  10.167  15.431  12.260 -0.1997  0.4111  0.0747
27512W        W47792  15.394   0.798   4.021  0.1248 -0.2874 -0.2579
27513W        W47793  17.102  11.184   0.456 -0.0155  0.1319 -0.1127
27514W        W47794   1.041  10.141   4.228 -0.0367 -0.0780  0.3462
27515W        W47795   7.309  16.114   2.248 -0.0078  0.2660  0.1955
27516W        W47796   0.038   3.383  14.524 -0.0823  0.0562  0.2786
27517W        W47797  15.872   3.940   1.786  0.1010 -0.1705 -0.1674
27518W        W47798   3.570  17.411   1.490 -0.1038  0.1025  0.0281
27519W        W47799  10.271   1.560  10.543 -0.1326 -0.2444  0.0515
27520W        W47800  11.497   4.803  15.784  0.0005 -0.1161  0.1593
27521W        W47801   7.698  13.510   4.778  0.0347  0.1430 -0.2123
27522W        W47802   1.924  12.740  13.032 -0.2538 -0.1476  0.0374
27523W        W47803  16.503   1.105   4.656  0.1531 -0.2034 -0.0459
27524W        W47804   6.006  14.540  13.547 -0.0367  0.3252 -0.0717
27525W        W47805   4.990  16.945   2.133 -0.0191 -0.0673  0.0262
27526W        W47806   3.741  11.155   4.285 -0.0311 -0.3106  0.1967
27527W        W47807  14.927  12.647  15.451 -0.1099  0.0050  0.1077
27528W        W47808   4.654   9.688  16.643 -0.2374 -0.0765 -0.2730
27529W        W47809  10.503  11.278  13.364 -0.2101  0.3015 -0.1943
27530W        W47810  12.225  14.940   3.256 -0.0057  0.0771 -0.0930
27531W        W47811   9.683  16.767  12.871  0.2162 -0.1944  0.1782
27532W        W47812   1.694   8.373  13.598 -0.0106 -0.0412 -0.0966
27533W        W47813   5.230   4.679  15.547  0.4323  0.0107 -0.3962
27534W        W47814   6.409   0.082   3.823  0.2611 -0.1793  0.1016
27535W        W47815  12.202  15.107  16.695 -0.0732 -0.1283 -0.1071
27536W        W47816  10.485   4.771   0.578 -0.0338  0.0313  0.3352
27537W        W47817   8.603  12.748   1.776  0.0224  0.2450  0.1397
27538W        W47818  16.254   6.129  14.465  0.0805  0.0314  0.3412
27539W        W47819   6.738   7.933  12.742 -0.0798 -0.4635  0.0435
27540W        W47820  15.816  14.853   2.960 -0.1224 -0.3470  0.0950
27541W        W47821   9.816  17.313   2.032 -0.0760  0.1154 -0.0412
27542W        W47822  14.104  16.958  13.482 -0.2026  0.2199  0.1018
27543W        W47823   5.612  16.461   1.962 -0.0585  0.1806  0.3764
27544W        W47824   7.848   8.342  13.554  0.1851  0.1180  0.0934
27545W        W47825   9.347  11.625   4.801 -0.1857  0.0598 -0.1674
27546W        W47826   5.087  10.964   2.181  0.2779 -0.0096  0.0155
27547W        W47827   0.811   4.285   2.773  0.1716  0.0106 -0.2743
27548W        W47828   6.624   7.849  12.218  0.0224  0.0576  0.1562
27549W        W47829   5.789  16.755   4.296  0.0375  0.0009  0.0931
27550W        W47830   5.990   0.520  14.617  0.2404  0.1211 -0.0947
27551W        W47831   7.901  11.867  15.388  0.2432 -0.0194  0.0080
27552W        W47832   9.656   6.303  13.191  0.0940 -0.2081  0.0110
27553W        W47833   8.872  15.719   2.943 -0.2132  0.0491  0.4007
27554W        W47834  12.189   6.307  13.008  0.1465  0.0768  0.2070
27555W        W47835   2.501  12.857  15.491  0.0644  0.1389 -0.0693
27556W        W47836   3.344  10.696   0.507  0.3161 -0.0062  0.1103
27557W        W47837   7.521   9.160   3.292  0.1889 -0.2975 -0.1529
27558W        W47838  16.710   2.869   1.448  0.0814  0.0557 -0.3295
27559W        W47839  11.982   1.504   1.356  0.2295 -0.1430 -0.2470
27560W        W47840  11.147  12.287  16.076  0.1598  0.0025 -0.1956
27561W        W47841   5.988   3.124  12.219  0.1880 -0.0667 -0.1000
27562W        W47842   2.661   1.804  14.281  0.1316 -0.0806 -0.0619
27563W        W47843  13.986   0.900   0.520  0.2544 -0.1403 -0.0803
27564W        W47844   4.472  15.825  16.213  0.0919  0.4142  0.0774
27565W        W47845   4.563   7.469   3.486  0.2462  0.1476  0.0282
27566W        W47846   0.031  17.476  16.036 -0.3246 -0.2194  0.1643
27567W        W47847  15.503   5.105   3.944 -0.0830 -0.1399  0.0166
27568W        W47848   0.114  12.962  12.802 -0.2067  0.0048  0.3437
27569W        W47849   4.014  15.080   4.982  0.0429  0.4580 -0.0730
27570W        W47850  12.239  13.588   4.883 -0.0491 -0.1252 -0.0763
27571W        W47851   5.422   9.992   2.512  0.2812  0.1894  0.2429
27572W        W47852   0.134   0.787  13.612 -0.2341  0.3461 -0.1911
27573W        W47853  14.981  10.856   2.029 -0.3067  0.0738 -0.2064
27574W        W47854  17.437   0.715  15.109  0.1466  0.1882  0.1450
27575W        W47855   7.607   5.227  13.466 -0.4508 -0.2726 -0.1125
27576W        W47856  10.054  17.329  16.676 -0.1067  0.2187 -0.2729
27577W        W47857   8.094   0.938   2.077 -0.0137  0.2381 -0.0611
27578W        W47858  16.648   8.589  15.991 -0.1068  0.0035  0.2654
27579W        W47859   0.196   0.097   3.012 -0.0499  0.2172  0.1191
27580W        W47860   3.908  12.560  15.609  0.1511  0.1156 -0.1228
27581W        W47861   5.390   6.458  15.016 -0.0291 -0.0922  0.1886
27582W        W47862   0.707  17.968   2.197  0.2852  0.1200  0.1221
27583W        W47863   5.016   1.810  11.321  0.3470 -0.0422 -0.4068
27584W        W47864   7.551   6.230  14.425 -0.2508 -0.2647 -0.0610
27585W        W47865   7.851   6.800  12.475  0.3211  0.2004 -0.0176
27586W        W47866  12.563   5.229  12.547  0.0305  0.0143 -0.1443
27587W        W47867   4.721   9.542   0.916 -0.1094  0.0525 -0.0199
27588W        W47868  16.548   3.783   3.612 -0.0614 -0.1299  0.0298
27589W        W47869  16.021  14.419   4.122  0.0946  0.1825 -0.2488
27590W        W47870   3.003  12.617   3.214  0.1100 -0.1004  0.4454
27591W        W47871  13.248   9.403   3.673  0.0118  0.2952 -0.3784
27592W        W47872  10.152  10.193  14.173 -0.4046 -0.0859 -0.0338
27593W        W47873   7.906   2.797   2.169 -0.2485 -0.2631  0.0490
27594W        W47874  10.166  15.902   4.199 -0.1688 -0.3019  0.1859
27595W        W47875   9.195  10.259   4.531 -0.1210 -0.0182 -0.0413
27596W        W47876  15.182  11.314   1.077  0.0279 -0.0415  0.1149
27597W        W47877   2.052   2.328  15.316 -0.1042 -0.0921  0.0434
27598W        W47878  17.219   3.100  14.200  0.2278  0.3888  0.0553
27599W        W47879  15.023  11.790   0.847 -0.0961 -0.0054  0.0625
27600W        W47880   0.778   5.184   1.756  0.2277 -0.0263 -0.0263
27601W        W47881  16.512  16.422  13.064 -0.1284 -0.1323  0.1220
27602W        W47882   0.375  14.014  14.292 -0.3005  0.1154 -0.3638
27603W        W47883  14.078   0.020  14.788  0.0547  0.1543 -0.0740
27604W        W47884   8.875  10.940   3.417 -0.0028  0.0945  0.3672
27605W        W47885  16.717  14.652  12.692  0.0590  0.0280 -0.2150
27606W        W47886   7.143  16.497   3.854 -0.0556 -0.1176  0.0064
27607W        W47887   1.172  14.343  12.671 -0.1327  0.1155  0.0568
27608W        W47888   2.040   0.367   2.291  0.2123 -0.1410  0.1374
27609W        W47889   1.516  14.781   0.375 -0.0999 -0.1696  0.2035
27610W        W47890   4.768  16.256  14.482  0.0539 -0.0048  0.1458
27611W        W47891   9.261   1.693   3.177  0.0511  0.0187 -0.0234
27612W        W47892   6.370   6.687  15.052  0.3114  0.2028  0.4702
27613W        W47893   2.201  12.461  15.424  0.1721 -0.3655  0.1120
27614W        W47894   5.952   7.665   2.212  0.0186 -0.1566 -0.0880
27615W        W47895   2.099   8.076   4.911  0.2560 -0.1406  0.0290
27616W        W47896   8.665  17.384   0.710  0.1429 -0.1393 -0.5562
27617W        W47897  11.084   9.463  15.837 -0.0956 -0.2804 -0.0345
27618W        W47898   5.841   5.571  16.271 -0.2006  0.2072  0.2143
27619W        W47899   1.420  10.605   3.201  0.1369  0.0449  0.1794
27620W        W47900   5.259  11.419   1.686  0.2744  0.1952  0.0661
27621W        W47901   7.043   4.731   3.197 -0.1375 -0.1146 -0.0769
27622W        W47902  11.531  14.650   1.535 -0.1633  0.1153 -0.5588
27623W        W47903   8.038   5.898   1.380 -0.0950 -0.1219  0.1124
27624W        W47904   3.501  16.491  16.657 -0.1758 -0.0955 -0.0194
27625W        W47905   9.954   6.773   1.069 -0.2165  0.0325 -0.3812
27626W        W47906  15.771  13.074   3.401 -0.2191 -0.1304  0.1767
27627W        W47907   1.306   3.199  12.258 -0.1840  0.0555 -0.2489
27628W        W47908  15.250  16.289   0.194  0.4277  0.2987 -0.0291
27629W        W47909  15.470  12.581  12.541  0.1850  0.3076  0.3066
27630W        W47910   2.441   7.980  12.262  0.0825 -0.0819  0.0635
27631W        W47911  15.662   7.170  15.022  0.0940 -0.2798  0.1076
27632W        W47912  12.451  12.649  16.249 -0.2912 -0.2583 -0.0005
27633W        W47913   6.963   5.334  16.461  0.2343  0.1365 -0.0122
27634W        W47914   2.166  14.905  12.232  0.0460  0.1831  0.0744
27635W        W47915   0.670   7.088  12.114  0.4695 -0.0312  0.0321
27636W        W47916   0.682  16.430  12.809  0.2586  0.1255 -0.0782
27637W        W47917   2.374   3.559  15.029  0.3940  0.0389 -0.1391
27638W        W47918   9.372   6.603  14.793  0.2272  0.3196 -0.0839
27639W        W47919  16.367   5.214   3.799  0.0298  0.4127 -0.0721
27640W        W47920   4.638  14.734  13.532 -0.1441  0.0365  0.1269
27641W        W47921  17.766   4.708  14.264  0.0954 -0.1573  0.0829
27642W        W47922  11.051   9.863   1.258 -0.2858  0.0600  0.1113
27643W        W47923  11.319   2.415  13.422  0.0484 -0.0386  0.3002
27644W        W47924   6.222  15.267   1.177 -0.0971  0.1429 -0.1753
27645W        W47925  14.931   3.552  12.312 -0.0515 -0.0788 -0.1867
27646W        W47926   2.388  12.191   1.951  0.2889 -0.0578  0.2301
27647W        W47927  10.731   1.801  16.121  0.2202  0.1872  0.0111
27648W        W47928   0.770  16.757  16.641 -0.1677 -0.0059  0.3205
27649W        W47929   0.099   3.138   3.370 -0.1473 -0.1888 -0.1812
27650W        W47930  11.137   1.128  12.052 -0.1270 -0.1161  0.0156
27651W        W47931  12.688  14.384  12.451  0.0301  0.0824  0.1079
27652W        W47932  16.986  17.841  13.364  0.0728  0.0504  0.1757
27653W        W47933   4.360  12.294   4.528  0.1404 -0.1810  0.1250
27654W        W47934   9.530  17.836  15.084 -0.4000 -0.1525  0.0101
27655W        W47935   7.186   9.777  16.035 -0.0131  0.0408  0.0289
27656W        W47936  17.598   8.428  12.679 -0.0144  0.2826 -0.2450
27657W        W47937   8.754  12.146   0.769 -0.2449  0.0006  0.0733
27658W        W47938  13.326   5.796   2.317  0.1095 -0.1017  0.0156
27659W        W47939  15.843  11.844   0.170  0.4184 -0.0213 -0.1516
27660W        W47940   0.745   8.594  13.099 -0.1636 -0.0871 -0.1356
27661W        W47941   8.558   4.139   3.397  0.0460  0.0001 -0.1464
27662W        W47942   4.966  11.750   4.958 -0.0369  0.2441  0.1276
27663W        W47943  15.111  10.077   2.856 -0.1449 -0.2115  0.1690
27664W        W47944  11.339  10.909  14.244  0.0182  0.1464  0.0163
27665W        W47945  12.966   2.004  13.645  0.0033 -0.0860  0.2186
27666W        W47946   2.686  13.175  15.027  0.0845 -0.2389 -0.0705
27667W        W47947   4.113   6.459  16.499 -0.1012 -0.0082  0.1542
27668W        W47948  15.832  12.207   3.129  0.3941 -0.2645  0.1238
27669W        W47949  16.575  13.177  14.968  0.0083  0.1027 -0.1924
27670W        W47950  17.696   1.277   0.326  0.1778  0.0698 -0.2400
27671W        W47951  10.522  15.130   3.580  0.1612  0.0578  0.1227
27672W        W47952  14.413  10.358  15.447 -0.1027  0.0845 -0.1384
27673W        W47953  11.347   8.083  15.809  0.0946  0.1532  0.0652
27674W        W47954  10.800   4.934  15.780 -0.0671  0.2876 -0.1652
27675W        W47955   2.521  17.853   3.859  0.0942  0.0701 -0.0399
27676W        W47956  17.714   0.128  14.356  0.3188  0.0713 -0.2372
27677W        W47957   4.572   4.405  14.421  0.0414  0.1101  0.1418
27678W        W47958  14.062   3.613  12.157  0.1644  0.3930 -0.0842
27679W        W47959   4.330   4.744   3.993 -0.0066 -0.1017  0.1397
27680W        W47960  17.445  11.444  14.431 -0.1984  0.0674 -0.1376
27681W        W47961  16.797   2.970  14.556  0.0780  0.2924 -0.0802
27682W        W47962  14.490   8.305   0.692  0.2854 -0.0308  0.1217
27683W        W47963   9.586  15.019  16.323  0.2663  0.0724 -0.0458
27684W        W47964  13.626   7.953   1.484  0.1201 -0.2618 -0.2978
27685W        W47965   6.129   5.405  14.864  0.1507  0.1442  0.0782
27686W        W47966   1.051  13.499   2.657 -0.3392  0.0886  0.3056
27687W        W47967  17.126   1.916   1.529  0.3089  0.1481  0.1050
27688W        W47968   4.291   2.607  15.662  0.2392  0.0229 -0.2874
27689W        W47969   7.664   3.766   2.413  0.0131  0.2300  0.0306
27690W        W47970   6.634   0.025  16.389  0.2667 -0.2366  0.0342
27691W        W47971   8.931   4.837  16.210 -0.0840 -0.1977  0.2695
27692W        W47972   7.997  11.935   3.876 -0.0449 -0.0272 -0.1037
27693W        W47973   5.264   4.126   0.751 -0.1408 -0.2916  0.3691
27694W        W47974   4.522   3.600  15.283  0.2016  0.0718  0.0619
27695W        W47975  13.039  16.221  13.954  0.1433  0.0898  0.0896
27696W        W47976   3.899   6.355   0.902 -0.0307  0.0732 -0.1366
27697W        W47977  16.116   3.570  15.026 -0.0415 -0.0722 -0.0340
27698W        W47978   7.281   4.049   2.737  0.1831  0.2052  0.2151
27699W        W47979   5.362  17.324  14.928 -0.1232 -0.0152  0.0679
27700W        W47980  12.492   4.308   2.590  0.2824 -0.0054 -0.1344
27701W        W47981   1.045   5.962  16.411  0.1390  0.1063 -0.1162
27702W        W47982   1.474   2.274  15.912  0.0579 -0.2411  0.2119
27703W        W47983  11.811  11.296  13.019 -0.0133 -0.1123 -0.1319
27704W        W47984   2.612   3.035  12.752 -0.1838 -0.2606 -0.0965
27705W        W47985   5.332  16.205   3.227  0.1343  0.0178  0.1510
27706W        W47986  15.059   6.240  16.605 -0.3847  0.0053 -0.3365
27707W        W47987   0.180  11.194  16.580  0.1828  0.0013 -0.1762
27708W        W47988  10.580  11.833  12.180 -0.1549 -0.3169  0.0976
27709W        W47989   8.232  10.450   0.982  0.0568  0.0160 -0.1554
27710W        W47990   8.380   2.355  12.169  0.1967  0.1971 -0.1563
27711W        W47991  15.301   5.589   1.153  0.0536  0.0087  0.2207
27712W        W47992  12.248   8.854  12.474  0.0642 -0.0932  0.0617
27713W        W47993  14.278  17.581   4.559  0.0031  0.0218 -0.2761
27714W        W47994  10.265  13.030   3.973 -0.0770 -0.2588  0.1909
27715W        W47995   6.982   6.756   3.935 -0.1280 -0.1987 -0.0780
27716W        W47996   4.840  16.659  12.728 -0.0656 -0.1425 -0.0538
27717W        W47997   0.947  13.185  15.398 -0.1418  0.0387 -0.1137
27718W        W47998  11.385   6.434  14.480 -0.3957  0.1053 -0.0517
27719W        W47999   2.292  17.221  13.704 -0.0879 -0.2312  0.1037
27720W        W48000   8.303   4.801  14.171 -0.2347  0.1130  0.1557
27721W        W48001   9.137   5.151   3.217 -0.0255 -0.0836  0.2389
27722W        W48002  13.424  11.009  15.659 -0.2739 -0.0341 -0.2924
27723W        W48003  17.919   5.549   3.611  0.0175  0.0713 -0.0191
27724W        W48004  13.332   9.713   2.091  0.0108  0.2197  0.1485
27725W        W48005   1.230   4.660  15.010  0.1583 -0.0971  0.1232
27726W        W48006  16.917   1.469  15.297  0.1021 -0.3280 -0.1694
27727W        W48007   1.139  12.731   0.155  0.0603 -0.2761 -0.0446
27728W        W48008   6.152  12.338  16.514  0.0743 -0.2097 -0.0749
27729W        W48009   6.363   0.815  13.780  0.0967  0.0293  0.1668
27730W        W48010  15.282  12.098  15.944  0.0187 -0.2880 -0.0253
27731W        W48011   4.678  13.270   0.324  0.4657  0.0270  0.1548
27732W        W48012   6.224  13.270   2.802  0.1371 -0.0927  0.2085
27733W        W48013  12.722   8.904  15.056  0.1026  0.1510 -0.0177
27734W        W48014  12.860   5.328   1.539 -0.0441  0.3256 -0.0589
27735W        W48015  15.610   2.089   3.842  0.0783 -0.0105  0.0350
27736W        W48016   2.089   6.608  13.187  0.0605  0.1906  0.0646
27737W        W48017   2.325   7.872  14.449  0.0060 -0.0430 -0.0232
27738W        W48018   7.029   8.460  14.126 -0.2817 -0.0688 -0.0347
27739W        W48019  14.218   0.386  15.510  0.1730  0.1884 -0.1070
27740W        W48020  12.755   4.662   1.672  0.0837 -0.0407  0.1066
27741W        W48021   8.234   0.768   0.916 -0.1996 -0.0967 -0.0229
27742W        W48022  10.041  14.308  13.456 -0.0103 -0.0602 -0.1357
27743W        W48023  15.084   9.716   4.497  0.1138 -0.0330  0.2125
27744W        W48024  14.238  14.964   0.654  0.0138 -0.1965 -0.2849
27745W        W48025  14.209   3.498   4.046 -0.0072 -0.1668  0.0380
27746W        W48026   4.604  14.522   2.672 -0.1609 -0.1727  0.0233
27747W        W48027  10.107   5.827   1.236  0.2861  0.1782 -0.2772
27748W        W48028   2.539  11.751   3.044  0.0055  0.0884 -0.0022
27749W        W48029   5.560  11.641   2.613  0.1071  0.1814 -0.2048
27750W        W48030   4.172  11.076   0.742 -0.1857 -0.0809  0.0713
27751W        W48031   4.676   3.338  12.522 -0.0215 -0.2019  0.1940
27752W        W48032  13.835  13.507  15.209  0.2648 -0.0776  0.0463
27753W        W48033   2.524  15.294   3.716 -0.0099 -0.1103 -0.2392
27754W        W48034   9.212  12.882   4.273 -0.0955 -0.0947 -0.1301
27755W        W48035  11.641   8.914   1.424  0.4158 -0.0781  0.1595
27756W        W48036   2.869  16.287   2.474  0.1249 -0.0325 -0.1437
27757W        W48037   6.291  13.123   0.555  0.0107 -0.0968  0.0501
27758W        W48038  12.365  15.476  13.650 -0.1963  0.0649 -0.3696
27759W        W48039   1.564   9.043   0.869  0.1478  0.0697 -0.0200
27760W        W48040  16.851   4.706  16.222  0.0235  0.0088  0.2179
27761W        W48041   3.966   6.690   5.263 -0.0695 -0.2590 -0.3555
27762W        W48042  13.755  15.304  12.690 -0.0398 -0.1978  0.2862
27763W        W48043   1.380   5.327   2.480 -0.1067 -0.0202 -0.0045
27764W        W48044  10.581   9.235   2.000 -0.0893  0.0329  0.0078
27765W        W48045   9.325  14.574   0.362  0.2987 -0.0215  0.0628
27766W        W48046   9.206   3.069   2.053  0.0291  0.3030  0.3189
27767W        W48047  14.543   0.276  13.721  0.0126  0.0046 -0.1448
27768W        W48048   6.894   5.881   2.464 -0.1576  0.1200  0.0036
27769W        W48049  10.104  10.462  15.088  0.2454 -0.0627 -0.0127
27770W        W48050   3.608   2.500  14.928 -0.1581 -0.0066 -0.0279
27771W        W48051   3.493   9.258   3.765  0.0634  0.2286  0.1947
27772W        W48052   1.999   8.678   2.826 -0.2561  0.0483 -0.2044
27773W        W48053   6.304  10.674   1.223 -0.0487  0.1583 -0.1479
27774W        W48054   1.512  14.888   0.845 -0.1588  0.0047  0.0766
27775W        W48055   5.942  12.616   5.084 -0.0240 -0.2522  0.0648
27776W        W48056   3.042   4.742  13.013 -0.1688 -0.2093  0.1006
27777W        W48057   9.666   6.363   0.941 -0.4513  0.1137  0.0480
27778W        W48058  13.808  11.632   3.184 -0.1508 -0.0387 -0.0451
27779W        W48059   5.797  17.147   0.718  0.0763 -0.1607 -0.0875
27780W        W48060   9.997   7.127   0.111  0.0491 -0.1303  0.1198
27781W        W48061   2.520  16.474  14.805 -0.1943  0.0104  0.1894
27782W        W48062   3.732  13.814   1.219 -0.3995  0.0306 -0.0493
27783W        W48063  10.689   6.053  13.319 -0.0926  0.0505 -0.1182
27784W        W48064   6.499   0.919   1.845  0.0858  0.1498  0.1234
27785W        W48065   0.465   9.438   4.564 -0.2427 -0.3360 -0.2166
27786W        W48066   5.819  15.665  13.035  0.1459 -0.2332 -0.0721
27787W        W48067  15.855  17.307   2.276 -0.0809  0.1339 -0.3107
27788W        W48068   2.683   5.966   3.023  0.0855 -0.2838  0.2021
27789W        W48069  13.930   3.961  13.051 -0.0404  0.1773 -0.0428
27790W        W48070  16.505  15.439   1.803 -0.1286 -0.1370  0.0852
27791W        W48071  13.436  17.626   1.521 -0.3163 -0.1510 -0.0657
27792W        W48072   7.025   2.275  16.466 -0.0064  0.0803 -0.2136
27793W        W48073   5.119  13.564  12.644  0.1994  0.0919  0.0735
27794W        W48074   8.191   5.098  14.813 -0.0853  0.0683 -0.1030
27795W        W48075   2.245   4.076   3.264 -0.0710  0.2178 -0.0197
27796W        W48076   0.792  14.094   1.987 -0.0362 -0.0267  0.2610
27797W        W48077   1.467  10.086   4.504 -0.1615  0.1647  0.3090
27798W        W48078   8.760  13.022  15.559 -0.1000  0.5204 -0.0659
27799W        W48079   3.583   7.099   1.307 -0.0610 -0.1818 -0.1070
27800W        W48080  14.122  13.610   0.235 -0.0309  0.0643  0.0682
27801W        W48081   7.750  12.031  12.494 -0.0842 -0.1058 -0.2118
27802W        W48082   1.592  10.854   4.306 -0.0056 -0.0097  0.3337
27803W        W48083  11.761   4.501  12.359 -0.0617 -0.0155 -0.0788
27804W        W48084  11.593  16.655   3.477  0.0686  0.1087  0.0081
27805W        W48085   2.827  16.442  12.989 -0.2441  0.1088 -0.0381
27806W        W48086   5.530   8.518  15.647  0.2526 -0.0047  0.1108
27807W        W48087   2.356   3.196   4.719 -0.1170  0.1039 -0.1635
27808W        W48088  17.142  16.557  16.563  0.2252  0.1826 -0.1242
27809W        W48089  15.060   4.048  15.505  0.0399 -0.0690 -0.0748
27810W        W48090   1.946  14.857   1.687  0.3499  0.1966  0.2580
27811W        W48091  12.389   4.267  12.644  0.1649 -0.0567 -0.3497
27812W        W48092  17.183   0.912  16.384 -0.2822 -0.0646  0.1257
27813W        W48093  16.276   6.001  12.026  0.2269  0.3333  0.2561
27814W        W48094   0.432   3.601  12.159  0.3605 -0.2470  0.1836
27815W        W48095  16.819  13.618  14.918  0.0849 -0.0848  0.0033
27816W        W48096   9.548   4.296  16.548  0.0395 -0.1388  0.0723
27817W        W48097  13.305   7.219  13.762  0.0779  0.1698 -0.4013
27818W        W48098  12.030   0.836  11.940 -0.1192 -0.5235  0.0653
27819W        W48099   0.498   8.101  13.027 -0.2347  0.1948  0.0882
27820W        W48100   3.595  15.096   2.653 -0.0220 -0.0546 -0.2597
27821W        W48101  11.122  11.080   3.085  0.2810 -0.1098 -0.0761
27822W        W48102   7.447   4.654   2.938  0.1412 -0.2291 -0.1719
27823W        W48103   1.917   3.349  13.483  0.2505 -0.0728  0.0867
27824W        W48104   6.534   8.269  15.230  0.0908  0.1223  0.1052
27825W        W48105   3.417   2.721  10.894  0.4583 -0.1636  0.1092
27826W        W48106  15.230  15.925   1.486 -0.1932  0.0016  0.1191
27827W        W48107   8.604  15.179  14.100 -0.1331  0.0415  0.2010
27828W        W48108   9.390   0.985  12.131 -0.1234  0.2524  0.2404
27829W        W48109  17.112  16.021   4.139  0.0203 -0.1941 -0.0663
27830W        W48110   9.982   9.800  13.279 -0.0333  0.0764 -0.0998
27831W        W48111   4.386   8.850  13.537 -0.2315  0.0862 -0.1351
27832W        W48112   1.397   0.216  15.296 -0.1823 -0.3913 -0.0323
27833W        W48113  12.862   3.435   3.055  0.0678  0.1796  0.4145
27834W        W48114  13.746  12.482  13.465 -0.2750  0.0648 -0.2010
27835W        W48115   0.127   4.741  12.937  0.0894  0.0985 -0.1041
27836W        W48116  16.325  11.183   4.784  0.1316 -0.1756  0.3943
27837W        W48117  15.925   5.908   2.153 -0.1543  0.1841  0.1119
27838W        W48118   1.046   5.437  16.545  0.0990  0.1315  0.2235
27839W        W48119   7.513   5.460  12.511  0.1771  0.3812 -0.5021
27840W        W48120   6.174  16.008   4.359 -0.0815  0.0361 -0.2159
27841W        W48121   9.691   3.333   3.889  0.1617  0.2411 -0.1457
27842W        W48122   0.634  13.775   2.412 -0.0486  0.0901 -0.2126
27843W        W48123   3.904   1.388  14.275 -0.0959  0.0204  0.2156
27844W        W48124   6.279   6.657   1.860  0.0873  0.3806 -0.1380
27845W        W48125  16.387   4.408   1.036 -0.0778  0.0258  0.0886
27846W        W48126   5.790   3.885   4.163 -0.0389  0.2184  0.1128
27847W        W48127  15.086   5.096   0.120  0.2485  0.0261 -0.4079
27848W        W48128   1.165   4.906  15.732 -0.0196 -0.2692 -0.2203
27849W        W48129  15.866   7.920  14.196  0.0386  0.0578 -0.3196
27850W        W48130  16.596   8.434   0.005  0.2708 -0.1103  0.0239
27851W        W48131   9.578  17.852   1.202  0.0535  0.0914  0.4194
27852W        W48132  11.373   5.374   3.032 -0.2839  0.1695 -0.0096
27853W        W48133   0.844  11.647   1.045  0.1081 -0.1688 -0.0484
27854W        W48134  17.604   8.072  13.178  0.1981  0.0939  0.1205
27855W        W48135  16.532  17.663  12.014 -0.3236  0.2673 -0.3471
27856W        W48136  10.160   6.250   1.487 -0.0003 -0.0032 -0.0250
27857W        W48137   1.727   0.466   3.453  0.1495 -0.1978 -0.2071
27858W        W48138  11.019  11.473  13.442 -0.2928 -0.0374  0.0154
27859W        W48139  16.255  12.905  16.489 -0.0744 -0.1768  0.3575
27860W        W48140  16.377  17.667  16.216 -0.0333 -0.0424 -0.2880
27861W        W48141  16.109  16.185  13.152  0.2008  0.0833  0.0997
27862W        W48142  12.080   3.688   3.285  0.1068 -0.2053  0.0777
27863W        W48143  13.749  17.768  12.164 -0.0872 -0.3098  0.2075
27864W        W48144  11.150  10.644  13.521 -0.0004  0.0885 -0.0680
27865W        W48145   4.384  15.794  12.613  0.0578 -0.0865 -0.0440
27866W        W48146   6.633   1.645   0.251  0.1683 -0.1506  0.0946
27867W        W48147   6.827  16.363   1.991  0.3126  0.2339 -0.2382
27868W        W48148  17.389  10.462   4.243  0.1096  0.2614  0.0042
27869W        W48149   8.041   0.432  13.700 -0.2010  0.0066  0.2424
27870W        W48150  13.691  13.996  13.228 -0.0389 -0.0643 -0.2089
27871W        W48151  12.899  13.700  12.816 -0.1098  0.2823 -0.0290
27872W        W48152  16.828   6.935   3.693 -0.0460 -0.1281  0.0370
27873W        W48153   8.304  14.659  13.107  0.2160  0.1672 -0.1025
27874W        W48154   4.279  16.397   0.196 -0.0495 -0.1502  0.1555
27875W        W48155  14.782  13.120  12.703 -0.1258 -0.1834  0.0324
27876W        W48156  15.346   9.147   4.519  0.0667 -0.1437  0.0649
27877W        W48157   6.698  15.219   4.509 -0.0938  0.2568 -0.1127
27878W        W48158  15.381   0.928   2.632  0.0041  0.1492  0.0484
27879W        W48159   4.917   4.789   4.201  0.2781 -0.0620  0.1189
27880W        W48160  13.668   5.543   3.752 -0.0620 -0.2761  0.0290
27881W        W48161   3.914   3.034   1.007  0.1442 -0.0174  0.3114
27882W        W48162  13.141  12.459   4.729  0.0511  0.2793 -0.3000
27883W        W48163  13.232  11.944  14.171  0.1621 -0.2623 -0.0074
27884W        W48164  10.307   6.701  14.558  0.1056 -0.2731  0.1196
27885W        W48165   8.351   8.389  16.627 -0.2250 -0.0194  0.2886
27886W        W48166   9.090   0.414   3.939 -0.0319 -0.0875  0.1929
27887W        W48167  17.611  15.933  15.359 -0.3117 -0.0654  0.0179
27888W        W48168  14.796  11.536  16.603  0.0205 -0.2167  0.0461
27889W        W48169  10.901   6.255   0.839 -0.2246 -0.2268 -0.0853
27890W        W48170   3.823   6.860   3.751  0.0165 -0.0882  0.2103
27891W        W48171  14.650  15.055  15.172  0.2833  0.1362  0.0243
27892W        W48172  11.005  17.328   2.854  0.1747 -0.3025 -0.0136
27893W        W48173  16.543  15.086  12.366 -0.1623 -0.1063  0.1075
27894W        W48174   7.448   0.491   4.609  0.0196 -0.1625 -0.0738
27895W        W48175  11.593   7.848   2.892 -0.1455  0.1210  0.0500
27896W        W48176   7.016   2.744   1.138  0.0608 -0.1895 -0.3364
27897W        W48177   9.844   1.138   0.731 -0.1307 -0.3051  0.1694
27898W        W48178  16.935  12.695  15.417  0.2740 -0.3915 -0.0966
27899W        W48179   4.136   4.575  15.190 -0.1195  0.0664  0.0424
27900W        W48180   0.336  17.867  13.148 -0.1110  0.0446  0.0419
27901W        W48181   5.760   6.981  15.634 -0.1848  0.2952 -0.0468
27902W        W48182   3.943  10.042   2.497  0.0034 -0.0040 -0.1007
27903W        W48183  14.668   0.392   1.677 -0.1700 -0.0288  0.1424
27904W        W48184  17.448  12.816   4.165 -0.0144  0.0809  0.0019
27905W        W48185   2.899  12.906   1.380  0.1316 -0.0949 -0.1505
27906W        W48186  16.926  13.016   0.730 -0.0351 -0.0627 -0.1810
27907W        W48187  11.397  16.569  14.175  0.1532 -0.0862  0.1994
27908W        W48188   5.540  16.995   2.730 -0.0743 -0.5281 -0.2956
27909W        W48189   9.309  12.819   0.177 -0.0138 -0.1274 -0.0746
27910W        W48190  14.085   3.480  12.916  0.2171 -0.1828 -0.0469
27911W        W48191   0.649   5.649  14.351  0.1058  0.0148 -0.2774
27912W        W48192  16.213   0.933   1.475  0.1177 -0.1336  0.0324
27913W        W48193  12.360  14.286   0.107 -0.1904 -0.3723  0.0360
27914W        W48194   3.680  15.638  15.433 -0.1126  0.1244  0.3548
27915W        W48195   8.619  14.239  14.839  0.0194 -0.0679 -0.3439
27916W        W48196  17.864  17.011  14.418 -0.0699  0.0157 -0.1341
27917W        W48197   4.067   6.492   3.418  0.3730  0.1409  0.4267
27918W        W48198   3.550   5.889  16.458 -0.2474  0.1689 -0.1805
27919W        W48199  17.511  11.724  12.079  0.2344 -0.0434 -0.2189
27920W        W48200  11.379   3.147  13.680 -0.2390 -0.1951  0.1622
27921W        W48201  10.191   8.063   4.989  0.3158 -0.2207  0.1784
27922W        W48202  15.886   6.636  12.579  0.2317 -0.1516  0.0025
27923W        W48203   4.725  11.806   3.682  0.1194 -0.1089  0.1021
27924W        W48204   4.534   0.938  13.860  0.3112 -0.0614 -0.2724
27925W        W48205  10.328   2.668  15.359  0.2608  0.0266  0.0043
27926W        W48206   0.951   4.662   4.150 -0.1651  0.4820  0.2208
27927W        W48207   4.918   2.864  12.510 -0.2364 -0.1514  0.0383
27928W        W48208   8.143   1.875   3.638 -0.0127 -0.0417 -0.1313
27929W        W48209   6.522   9.959   4.732 -0.0252  0.0740 -0.1904
27930W        W48210   5.053  17.090  15.702  0.1940 -0.2351 -0.0486
27931W        W48211   8.203   8.057  13.710 -0.0884  0.0102 -0.0694
27932W        W48212   1.931   9.302  15.765 -0.2022 -0.0308  0.1888
27933W        W48213  16.709  16.840  16.561 -0.0792 -0.0822 -0.0543
27934W        W48214   9.114  10.339  15.064 -0.0651 -0.0531  0.2339
27935W        W48215  10.155   3.458   5.693  0.0752  0.0940  0.2613
27936W        W48216   2.895   2.059  15.098 -0.2569 -0.3402  0.0674
27937W        W48217  16.590   9.003  16.333 -0.0107  0.1113 -0.2348
27938W        W48218   9.508  13.113  13.136 -0.0958  0.1278  0.1372
27939W        W48219   5.191  11.165  13.747 -0.1954 -0.2063 -0.1060
27940W        W48220   2.892   6.478   3.979 -0.2408 -0.2258 -0.2015
27941W        W48221  13.118   1.291   4.392 -0.0254  0.4152  0.1927
27942W        W48222   7.598  15.769  14.058  0.0916  0.0834 -0.1962
27943W        W48223   0.472  14.508   3.615 -0.1298 -0.0995 -0.0710
27944W        W48224  13.280  10.586   1.528 -0.0732 -0.2118 -0.0002
27945W        W48225  17.556   1.391   2.265 -0.0111  0.0730 -0.0022
27946W        W48226   6.439  14.953  12.835 -0.1594  0.0823  0.1131
27947W        W48227  10.694  16.845  14.017  0.2360  0.1592 -0.0153
27948W        W48228   6.325  16.293   0.349  0.0007  0.2467  0.3433
27949W        W48229   5.436  16.553  14.014 -0.1774 -0.1383 -0.0386
27950W        W48230  14.096  16.057  15.686  0.2661  0.0929  0.1545
27951W        W48231  11.353   5.408   0.769  0.1087 -0.2002  0.1759
27952W        W48232  13.881  16.319   2.901 -0.0878  0.0290  0.2770
27953W        W48233   4.820   2.799   2.021 -0.0257 -0.2357  0.1903
27954W        W48234  14.558   8.727   3.456  0.1680  0.2665 -0.2848
27955W        W48235   8.668   0.662   4.344 -0.1744 -0.1833 -0.0997
27956W        W48236   5.970   1.804   1.333  0.0974  0.1424 -0.0298
27957W        W48237   3.545  13.571   4.264 -0.1507 -0.0571 -0.5156
27958W        W48238  13.665   3.198   1.361  0.0210  0.0131 -0.3986
27959W        W48239  13.152   3.715  13.454  0.0891  0.4008 -0.1949
27960W        W48240   6.582   7.720   0.548  0.0731  0.0460 -0.2605
27961W        W48241  13.867  16.562   4.705 -0.0979  0.2262  0.2906
27962W        W48242   3.710  15.295  14.204  0.3036  0.3444  0.1643
27963W        W48243  11.032   8.507   1.454  0.2501 -0.1702 -0.2077
27964W        W48244   6.560  12.023  16.227 -0.0696  0.2554  0.0269
27965W        W48245  15.474  10.777   2.947 -0.0145 -0.1575  0.2901
27966W        W48246   9.894   3.824  15.942  0.0960  0.1407  0.0661
27967W        W48247  10.746  11.133   4.109  0.0285 -0.0752 -0.0099
27968W        W48248   1.239   8.346  15.161 -0.1885  0.1628 -0.0670
27969W        W48249  11.143  16.475  15.421 -0.2353 -0.0321 -0.0917
27970W        W48250   7.549  17.895  12.614  0.0411 -0.1119 -0.3880
27971W        W48251  16.632  10.066   1.850 -0.1211 -0.1082  0.2084
27972W        W48252   7.814   3.816  12.270 -0.1171 -0.1173  0.0520
27973W        W48253  15.232  16.170  14.879 -0.1329 -0.0447 -0.0588
27974W        W48254   8.273  12.106  16.569 -0.0519  0.0764 -0.1362
27975W        W48255   1.042   9.833   1.183  0.1730  0.0816  0.1702
27976W        W48256   4.149   0.005  13.046 -0.1592 -0.1696  0.1414
27977W        W48257   2.909   7.464  16.684 -0.0065  0.0309 -0.1671
27978W        W48258   9.965   1.981  14.783  0.0182 -0.0982  0.2350
27979W        W48259   1.245   6.031   1.534 -0.1189 -0.2995  0.0497
27980W        W48260   6.807   2.269  13.219  0.2427 -0.0690 -0.1790
27981W        W48261  14.280   4.792  13.363 -0.1841  0.2328 -0.1502
27982W        W48262  13.540  13.121  15.105 -0.1456  0.0938 -0.0605
27983W        W48263  10.687   2.666  16.072  0.1315  0.3248  0.2213
27984W        W48264   1.495   3.120  13.290  0.0580 -0.0257 -0.0800
27985W        W48265  13.458   4.598   3.758  0.0824 -0.2464  0.3213
27986W        W48266  15.641   9.727   0.237 -0.2061  0.2419  0.0414
27987W        W48267  13.906   0.663   0.963 -0.1039  0.2050 -0.3406
27988W        W48268  16.560   0.572  15.029  0.1608  0.1734  0.2105
27989W        W48269  16.391   3.983   1.714  0.0692  0.4833  0.0255
27990W        W48270   5.249  12.638   0.847  0.3303  0.3612  0.0611
27991W        W48271   4.171   6.227  15.980 -0.2632  0.0729  0.0951
27992W        W48272   2.172   8.352  15.664 -0.2942 -0.4563  0.3460
27993W        W48273   8.730  15.709   2.446 -0.1090 -0.1578  0.0031
27994W        W48274   7.505   9.261  12.722 -0.0777 -0.1489  0.1053
27995W        W48275  12.657  17.822   3.041  0.3269  0.1360 -0.1116
27996W        W48276   0.826  13.864   3.662 -0.1451 -0.0293  0.2950
27997W        W48277  17.611   3.260   3.530 -0.0585  0.3588 -0.1676
27998W        W48278   0.889  17.067   2.768 -0.0074 -0.1756 -0.3744
27999W        W48279   2.180   2.472   3.762 -0.0819  0.0163  0.0864
28000W        W48280  12.324   6.098  14.475  0.0529 -0.0247  0.0607
28001W        W48281   3.824   8.911  15.835  0.1244  0.0021 -0.1833
28002W        W48282   9.656  11.409   3.369 -0.2998  0.2122  0.1147
28003W        W48283   8.934  15.286  13.595  0.1852  0.0648 -0.0599
28004W        W48284   5.135  16.989  14.527  0.0877  0.0048  0.1858
28005W        W48285   8.927   8.626   4.637 -0.0259  0.1325  0.1370
28006W        W48286   6.630  10.887  16.407  0.2152  0.1277 -0.0155
28007W        W48287  12.636  17.756   3.525 -0.0325  0.3111 -0.2099
28008W        W48288   6.381  12.075   3.173 -0.4993  0.4130 -0.0001
28009W        W48289   6.241  10.514   3.450 -0.2023 -0.2976 -0.0352
28010W        W48290   8.092  14.879   2.451  0.1806  0.1130 -0.0287
28011W        W48291  17.864   6.706   0.870 -0.1732 -0.0588  0.0123
28012W        W48292   5.206  17.582  15.282  0.1769  0.3894 -0.4412
28013W        W48293   0.006  14.803  14.023 -0.1893  0.1611 -0.1057
28014W        W48294  10.308  14.031   3.897 -0.0443  0.0123  0.1022
28015W        W48295   2.145  11.448  15.139 -0.2559 -0.0376  0.1542
28016W        W48296   9.761   1.965   1.528 -0.1898  0.0493  0.4282
28017W        W48297   6.169   0.758   4.117  0.2174 -0.1397  0.2834
28018W        W48298  13.652   1.530   1.522 -0.0204  0.2349 -0.3117
28019W        W48299   8.565  11.700   4.506 -0.0162  0.1581 -0.2573
28020W        W48300   7.969  17.974  14.004  0.0683  0.1349  0.0938
28021W        W48301   8.946   8.628  12.395  0.0790  0.1824 -0.0612
28022W        W48302  16.404   1.168  13.149 -0.1365 -0.0933  0.0427
28023W        W48303  10.361   0.316  16.510 -0.0946 -0.1412  0.1196
28024W        W48304   3.682   7.128   2.228  0.1915  0.0310 -0.2268
28025W        W48305   8.635  17.041   3.640 -0.1044  0.3037 -0.2710
28026W        W48306   7.553  10.950  16.592 -0.0248  0.2085  0.0962
28027W        W48307  15.631   9.015   2.215 -0.0493  0.0679  0.0111
28028W        W48308  12.761   2.920  15.258  0.2793  0.2407 -0.0072
28029W        W48309   7.763   9.161   1.220  0.3579  0.1839 -0.0460
28030W        W48310   1.464   1.759  12.682 -0.1601 -0.0363  0.0150
28031W        W48311   5.028   2.145  13.152 -0.1321  0.1802 -0.1627
28032W        W48312   0.355   2.119  14.253  0.1161 -0.0356  0.1255
28033W        W48313  14.850   2.934  14.770  0.0890  0.0847  0.3073
28034W        W48314   2.516  13.152  15.871 -0.2837  0.4927  0.2959
28035W        W48315   8.755   6.503   2.260 -0.3849 -0.0976 -0.3226
28036W        W48316   4.623  14.003  15.985  0.1933 -0.1605 -0.0933
28037W        W48317  15.960  10.293  15.864  0.3408  0.2969  0.0574
28038W        W48318   1.526   4.099  15.781 -0.2588 -0.2548 -0.2644
28039W        W48319  17.061  12.525   3.944 -0.2237  0.1371 -0.0704
28040W        W48320   0.261   0.220   1.803  0.0193  0.0680 -0.1431
28041W        W48321   1.566   4.891   2.335 -0.2706  0.1944 -0.1254
28042W        W48322  16.671   0.695  12.074 -0.3569  0.0457 -0.2295
28043W        W48323   3.991   3.479   1.833 -0.1106  0.2558  0.2981
28044ION     NA48324   9.490  13.257  16.665 -0.2617 -0.2629 -0.0636
28045ION     NA48325   8.998   0.909   5.639 -0.2377  0.2998 -0.0652
28046ION     NA48326  15.167   8.739  14.947  0.4204  0.0392  0.1101
28047ION     NA48327  17.576  13.615   4.922  0.1419  0.1931  0.1316
28048ION     NA48328  12.362  12.488   5.630  0.1711 -0.3991  0.2703
28049ION     NA48329   1.020  16.999  14.892 -0.1917  0.1920 -0.2509
28050ION     NA48330   3.980   1.961  10.994  0.1721  0.1813  0.1163
28051ION     NA48331  14.224  11.131   5.602  0.3322  0.0246 -0.0751
28052ION     NA48332   2.425  11.214  11.168  0.1453  0.1224  0.2055
28053ION     NA48333  14.459   1.534   0.845 -0.1532  0.0778  0.1087
28054ION     NA48334   9.506  16.872  11.107  0.1343  0.0023  0.1530
28055ION     NA48335  13.158  10.437  11.078 -0.2527 -0.2172  0.1765
28056ION     NA48336   1.476  17.762   5.696  0.0630 -0.2569  0.2101
28057ION     NA48337   3.429  11.167  11.142  0.3385  0.0011  0.1361
28058ION     NA48338   4.154  14.266   5.917  0.0042  0.0221  0.0086
28059ION     NA48339  13.743  14.799  15.853  0.0123 -0.0012 -0.1964
28060ION     NA48340   3.977   5.596   5.805 -0.1607  0.5652 -0.1374
28061ION     NA48341  10.456   9.424  10.996 -0.1058  0.0340  0.1086
28062ION     NA48342   5.778  12.556   5.535 -0.4314  0.5553 -0.1173
28063ION     NA48343   1.892   6.528  11.495 -0.0344 -0.0915  0.5112
28064ION     NA48344  11.694  15.099   0.903 -0.2848 -0.1175  0.2936
28065ION     NA48345  12.645  11.218   5.417  0.1485 -0.3137  0.3043
28066ION     NA48346  14.454   3.027  10.996  0.3600  0.0827 -0.0673
28067ION     NA48347  16.958  16.495   2.255 -0.0301 -0.3559 -0.1895
28068ION     NA48348  10.448  16.698  12.245  0.2430  0.0423  0.1007
28069ION     NA48349  12.402   0.059  10.948 -0.0396  0.0219  0.1022
28070ION     NA48350   5.556   2.641  11.089 -0.0039  0.1600 -0.0983
28071ION     NA48351  12.955   3.589   5.615 -0.1918 -0.0395 -0.1904
28072ION     NA48352   1.432  14.024  14.099 -0.0054  0.2519 -0.0529
28073ION     NA48353   5.382   6.748   1.485 -0.3116 -0.5249  0.0116
28074ION     NA48354   6.606  15.998  12.882  0.0289  0.0286 -0.2169
28075ION     NA48355  15.450   1.381  13.404  0.2623 -0.0517 -0.4227
28076ION     NA48356   7.438   0.604   5.612 -0.2023  0.0945 -0.0535
28077ION     NA48357  13.913  16.946  11.187 -0.0874 -0.1676 -0.0888
28078ION     NA48358  11.673  16.501  11.271  0.3065  0.3394  0.1500
28079ION     NA48359  14.948  10.316  11.024 -0.0362 -0.1929  0.0265
28080ION     NA48360   8.512   9.673   5.819 -0.1537 -0.1112 -0.0985
28081ION     NA48361  14.937  14.317  11.384  0.3070  0.0604 -0.2632
28082ION     NA48362   4.581  11.010   4.233  0.1030  0.1389  0.3750
28083ION     NA48363  13.434   6.726   5.670  0.1995  0.1252  0.0110
28084ION     NA48364   8.014   2.157  10.792 -0.3168 -0.0047 -0.2187
28085ION     NA48365   7.996   3.993  10.810 -0.1804  0.4005  0.0808
28086ION     NA48366   3.658  17.100  14.653  0.2496 -0.0571 -0.1129
28087ION     NA48367   3.263  10.741   6.177 -0.1559  0.0421  0.0316
28088ION     NA48368   3.017   0.969   3.131 -0.2583 -0.0562  0.3454
28089ION     NA48369  12.606   5.494  10.829  0.0510 -0.0364 -0.2412
28090ION     NA48370   9.042   7.200  11.035 -0.0463 -0.1790  0.0895
28091ION     NA48371  13.864  16.089  11.421  0.3119 -0.0505 -0.1563
28092ION     NA48372  12.652   1.340   5.505  0.4945  0.0103  0.1388
28093ION     NA48373   2.354   7.678   6.019 -0.2689  0.1176 -0.3298
28094ION     NA48374   2.749   0.549  13.449  0.3245  0.2518  0.0876
28095ION     NA48375  13.591   2.774  10.834 -0.0253 -0.3786  0.2572
28096ION     NA48376  14.233   8.338   2.680 -0.0718 -0.0894 -0.1679
28097ION     NA48377   6.294   5.085   5.336  0.0323 -0.0489  0.0704
28098ION     NA48378   1.912   7.346   6.032 -0.0259 -0.1869  0.2109
28099ION     NA48379  10.478   1.322   4.720  0.3109  0.0947 -0.0789
28100ION     NA48380   4.027   1.764   5.690  0.1163  0.3440  0.2240
28101ION     NA48381   7.018  14.309   0.433 -0.0580 -0.1882 -0.0889
28102ION     NA48382  15.737  16.593  11.336  0.3586  0.0601  0.3927
28103ION     NA48383   1.321  17.199   5.379  0.0854  0.3402  0.2470
28104ION     NA48384   6.883   1.400  11.249 -0.0731  0.2024 -0.0478
28105ION     NA48385   9.553  14.529  11.191  0.0885 -0.2020 -0.1164
28106ION     NA48386   0.499   0.158   5.468  0.0944  0.1877  0.3016
28107ION     NA48387   0.608   8.964  11.329 -0.1596  0.0976 -0.0355
28108ION     NA48388   1.426  15.354  11.343  0.0805  0.0516  0.0471
28109ION     NA48389  13.242   5.586   3.491 -0.1055 -0.2416 -0.3104
28110ION     NA48390   6.902   0.151   3.735  0.1938 -0.0470 -0.1777
28111ION     NA48391   4.206   7.343  11.374 -0.0202  0.0186  0.3828
28112ION     NA48392  12.099   6.047  10.514 -0.0709 -0.2169  0.0712
28113ION     NA48393  10.591   6.943  10.985  0.0836  0.1676  0.0448
28114ION     NA48394   4.515   2.678   4.358  0.0691  0.1758  0.1506
28115ION     NA48395  12.247  12.888   0.223  0.0385 -0.2305 -0.1931
28116ION     NA48396   9.463   4.340   2.563  0.0552  0.0489 -0.0981
28117ION     NA48397   0.403   6.667  11.265 -0.5135  0.2647 -0.0566
28118ION     NA48398  12.148   9.321   4.239  0.4349  0.0129 -0.0391
28119ION     NA48399  17.912   8.495  11.252  0.1310 -0.0135 -0.0631
28120ION     NA48400  17.655  16.530   5.568 -0.0710 -0.6984 -0.0291
28121ION     NA48401  12.119  12.855   2.776 -0.0591 -0.4164 -0.0637
28122ION     NA48402   1.113   4.207   3.987  0.1419 -0.3784 -0.1819
28123ION     NA48403   9.421   1.708  10.511 -0.3393 -0.1242  0.3516
28124ION     NA48404   6.918   3.249   3.395  0.2092  0.0095 -0.1893
28125ION     NA48405   7.610   3.497   5.397  0.0584 -0.1287  0.0395
28126ION     NA48406   9.012   0.015  11.184  0.3446  0.0253 -0.0758
28127ION     NA48407   8.526   6.488  10.969 -0.1871 -0.0677  0.1354
28128ION     NA48408   9.705   3.536   5.447  0.0058 -0.2089 -0.1582
28129ION     NA48409   5.910   6.268  14.241  0.2230  0.1234 -0.2233
28130ION     NA48410   0.518   3.992  11.125 -0.0173 -0.0431  0.0930
28131ION     NA48411   8.338  13.511   1.524  0.0218  0.2358  0.1842
28132ION     NA48412  16.436  15.291   3.033 -0.1077  0.2485  0.0449
28133ION     NA48413  11.638   6.220  10.465  0.1498 -0.2727  0.0140
28134ION     NA48414   8.269  15.787   5.439 -0.0874  0.0397  0.2406
28135ION     NA48415   4.648   1.556   5.136 -0.4004  0.3800  0.0429
28136ION     NA48416   9.691   7.382  10.934 -0.3789 -0.0845 -0.2576
28137ION     NA48417   9.017   8.589  11.283  0.1985  0.4352 -0.1206
28138ION     NA48418  15.317  12.281   5.544  0.2568 -0.0118  0.0481
28139ION     NA48419   2.146  11.623  11.211  0.0552 -0.0169  0.1760
28140ION     NA48420   9.860   2.155   5.634  0.1535  0.1167 -0.3329
28141ION     NA48421  17.800  11.268   5.768 -0.0817 -0.0386  0.0997
28142ION     NA48422  13.380   3.229  10.749 -0.0581  0.0388  0.2104
28143ION     NA48423  14.009  13.290  16.459 -0.1354 -0.1672  0.2779
28144ION     NA48424  17.719  14.268  11.432 -0.2102  0.4839 -0.0152
28145ION     NA48425  10.728   2.215   5.656 -0.1326 -0.0735 -0.0431
28146ION     NA48426  12.408  16.197  10.984  0.0834  0.1080 -0.0561
28147ION     NA48427   7.305   5.693  15.784  0.1224  0.1051 -0.1097
28148ION     NA48428  14.674  11.694   5.545 -0.1064 -0.3754  0.4914
28149ION     NA48429  13.016  12.767   5.487 -0.0621  0.0075 -0.0349
28150ION     NA48430  11.098   6.935  10.955 -0.2833  0.1772  0.0390
28151ION     NA48431   5.713   4.531   5.415 -0.0454 -0.0204  0.0516
28152ION     NA48432  11.242   9.830   5.403  0.0472  0.1066  0.1474
28153ION     NA48433  13.099  17.450  10.987  0.0891 -0.0597 -0.0493
28154ION     NA48434   9.006   1.944   5.567 -0.0839  0.0838 -0.3682
28155ION     NA48435  10.832   6.542   5.410  0.1013 -0.0307  0.1440
28156ION     NA48436   7.009  12.387  11.169 -0.1979 -0.2173  0.0136
28157ION     NA48437  17.966  14.130   5.724  0.1436  0.0379 -0.2743
28158ION     NA48438  15.680   2.156   4.350 -0.2183 -0.1766  0.1357
28159ION     NA48439   2.971  13.413  12.485 -0.1895  0.4336  0.0866
28160ION     NA48440  15.672   3.430   5.495 -0.0309  0.0416  0.0993
28161ION     NA48441   1.113   4.946  11.401 -0.0341 -0.1337  0.3447
28162ION     NA48442   3.385  13.692   5.759 -0.0157  0.1104  0.0594
28163ION     NA48443   8.082   8.438   5.662 -0.3362 -0.0151 -0.2580
28164ION     NA48444   2.064   5.154  11.374 -0.1415  0.4855 -0.1362
28165ION     NA48445  11.515   1.912  13.299 -0.1985  0.0819  0.2472
28166ION     NA48446   6.070   5.762  11.147  0.0025  0.1791 -0.2801
28167ION     NA48447  10.289   5.252  10.643  0.0243 -0.1512 -0.3005
28168ION     NA48448  17.642  11.638  11.240  0.1855  0.0002 -0.0155
28169ION     NA48449   6.799   8.312  11.125  0.0337  0.1954 -0.1151
28170ION     NA48450  10.672  10.429   3.622  0.2275 -0.1096 -0.0744
28171ION     NA48451   6.320   2.018   5.593 -0.0299  0.0525 -0.2689
28172ION     NA48452  14.123  13.855  11.498 -0.1197  0.3622  0.1813
28173ION     NA48453  16.634  10.193   5.568 -0.0876  0.0523 -0.1517
28174ION     NA48454   1.006  16.659  11.818 -0.3815  0.2572 -0.2035
28175ION     NA48455   2.252  13.375  11.066 -0.3307 -0.1210 -0.0812
28176ION     NA48456  10.836   5.646  12.079 -0.3296  0.0366 -0.0315
28177ION     NA48457   5.065  14.952  11.342 -0.3133 -0.1872  0.1506
28178ION     NA48458   0.366   2.498  11.123 -0.2010  0.0618 -0.2544
28179ION     NA48459   3.561  17.141   5.436 -0.2325  0.1765 -0.1522
28180ION     NA48460   4.749   2.407  11.156 -0.0352  0.0428 -0.3487
28181ION     NA48461   3.342  16.780  11.107 -0.1706  0.1816  0.0480
28182ION     NA48462   8.570  16.661  11.191 -0.0576  0.2321  0.0690
28183ION     NA48463  10.385  16.942  10.943 -0.0709 -0.0428  0.0763
28184ION     NA48464   8.381  17.922  16.012 -0.1213  0.1064 -0.1438
28185ION     NA48465  15.820   0.601   5.334  0.3161 -0.0335 -0.3317
28186ION     NA48466  13.514   3.264   1.924  0.2232 -0.0324 -0.1009
28187ION     NA48467   8.104  14.668   5.072 -0.2265 -0.0958  0.3059
28188ION     NA48468   8.245   9.317  13.399 -0.1675  0.0318 -0.0131
28189ION     NA48469   1.158   4.754  14.525 -0.1582  0.3984  0.0615
28190ION     NA48470   9.456  11.954  13.668 -0.2107  0.1494  0.2162
28191ION     NA48471  12.688   4.360  12.238 -0.1076 -0.3115  0.0482
28192ION     NA48472   9.919  15.302  11.205 -0.0976  0.0291  0.2011
28193ION     NA48473  12.413  17.499  11.727 -0.0414 -0.0956  0.1656
28194ION     NA48474  10.528  13.555  11.328  0.0423 -0.0271 -0.0777
28195ION     NA48475   0.413  12.119  11.163  0.2482 -0.1254 -0.2223
28196ION     NA48476   2.944   6.387   1.061  0.2238 -0.1370 -0.0101
28197ION     NA48477   0.305   5.172   5.710 -0.0317 -0.1983  0.2023
28198ION     NA48478   1.887   1.558   0.952 -0.0875  0.0224  0.3101
28199ION     NA48479   3.048   1.900  16.243  0.1126  0.0856 -0.3611
28200ION     NA48480  15.182  12.036  11.211 -0.0826  0.0034 -0.0947
28201ION     NA48481   9.266   4.031   5.079 -0.2446  0.0024  0.0974
28202ION     NA48482  14.350   7.439   1.240  0.1022 -0.1734  0.1573
28203ION     NA48483   5.004   9.830  15.355  0.0798  0.2766  0.0234
28204ION     NA48484  17.097  11.552  11.146  0.3635  0.0799  0.2953
28205ION     NA48485  14.542   5.607  12.145 -0.0296 -0.1173 -0.0746
28206ION     NA48486   3.289  14.686   5.596 -0.1662  0.1213 -0.2144
28207ION     NA48487  10.054   6.943  10.885 -0.0387  0.1360 -0.3198
28208ION     NA48488  10.227   8.793  14.661 -0.2361 -0.1526  0.0319
28209ION     NA48489   3.557  12.950  11.233  0.1295  0.0662 -0.1819
28210ION     NA48490  17.819   3.389   5.559  0.1048 -0.0324 -0.1376
28211ION     NA48491  13.339   4.494   1.032 -0.1813 -0.3342 -0.1042
28212ION     NA48492   8.321   9.108  11.633  0.0800 -0.0050  0.2963
28213ION     NA48493   9.424  16.968   5.500 -0.0826 -0.1894  0.0077
28214ION     NA48494  14.149  15.766   0.881 -0.0932 -0.1472  0.1388
28215ION     NA48495  11.303   4.491   5.572 -0.0904  0.0749  0.1204
28216ION     NA48496   7.360   0.283  11.088  0.2870 -0.2034 -0.1102
28217ION     NA48497  16.008  12.646  11.272  0.0047  0.0225 -0.2390
28218ION     NA48498  12.343   4.690  10.741  0.1622 -0.1880  0.1872
28219ION     NA48499   1.219  15.938  16.196 -0.1869  0.3352  0.1899
28220ION     NA48500  14.591  16.875  11.876 -0.1515 -0.0672 -0.4024
28221ION     NA48501  16.045   0.479  14.081  0.0782  0.1269 -0.2868
28222ION     NA48502   8.684  14.884   5.653 -0.2898  0.0562 -0.2752
28223ION     NA48503  11.703   3.225   5.703  0.2510 -0.0511  0.1770
28224ION     NA48504  10.247   9.687  14.141  0.1766 -0.1365  0.2665
28225ION     NA48505   5.766   6.714  11.382  0.0992  0.1184 -0.2887
28226ION     NA48506   3.356  15.379  11.144  0.0870 -0.0781  0.1042
28227ION     NA48507   8.674  13.482  11.403 -0.0368 -0.4046  0.2540
28228ION     NA48508   1.312   9.285  11.231 -0.2220 -0.0574  0.2520
28229ION     NA48509   1.416  12.165  11.448 -0.1185 -0.0068 -0.1562
28230ION     NA48510   4.170  10.347   6.296 -0.0332 -0.1356 -0.0448
28231ION     NA48511   0.937  10.969  11.723  0.0552  0.0943 -0.1105
28232ION     NA48512   3.398  16.554   1.270 -0.0116 -0.0701  0.2424
28233ION     NA48513   1.788   6.042   2.315 -0.0548 -0.0727  0.3405
28234ION     NA48514   5.562   2.655   5.708 -0.0437  0.0891 -0.1267
28235ION     NA48515   1.874  16.789  11.194 -0.2994  0.0821  0.0448
28236ION     NA48516  16.832   0.461  11.166  0.2646 -0.1557  0.0779
28237ION     NA48517   3.222  12.076  11.406  0.2059  0.3134  0.1336
28238ION     NA48518  14.940   6.019   5.480  0.2735 -0.1744 -0.2121
28239ION     NA48519  17.175   6.154   5.609 -0.0012 -0.0860  0.0646
28240ION     NA48520   6.232  12.168   1.984 -0.0250  0.1104 -0.1927
28241ION     NA48521   5.908   9.902  11.141 -0.0305 -0.1052 -0.0294
28242ION     NA48522   5.175  17.245  12.212  0.3802  0.3924 -0.0033
28243ION     NA48523  13.271   7.696  11.029 -0.0214  0.1575 -0.2164
28244ION     NA48524   1.380  10.025   5.159  0.0637  0.0391 -0.1140
28245ION     NA48525   6.819  16.009   2.886  0.2840  0.3381 -0.1035
28246ION     NA48526  13.319   9.418  11.138  0.0925 -0.0405  0.0182
28247ION     NA48527   4.932   0.430  11.151 -0.0155  0.1460 -0.1453
28248ION     NA48528  16.254   1.340   5.670 -0.2168  0.2298  0.0123
28249ION     NA48529   2.959  15.084   5.831  0.3902  0.1147  0.2809
28250ION     NA48530   6.400   2.746  14.517  0.3370  0.0527  0.0677
28251ION     NA48531   7.822   6.266   5.508 -0.0782 -0.2732 -0.0290
28252ION     NA48532   7.256  16.548   4.979  0.0130  0.1607 -0.3315
28253ION     NA48533  13.006  14.659   5.655 -0.0119 -0.3651 -0.3778
28254ION     NA48534  10.641   1.510   5.649 -0.1249  0.1355 -0.1481
28255ION     NA48535   0.940   2.430   5.610  0.0069  0.1892  0.0257
28256ION     NA48536  10.185   0.002   5.629  0.1356 -0.0731  0.0397
28257ION     NA48537   6.250  16.606  11.079  0.1310  0.0295  0.0914
28258ION     NA48538  15.140   7.488   5.456 -0.1736  0.2253 -0.2771
28259ION     NA48539   1.023  15.848  13.389  0.1851  0.2403 -0.0555
28260ION     NA48540  13.068   5.219   5.695  0.2258 -0.2185  0.1651
28261ION     NA48541  17.292   0.718  13.661 -0.1173  0.1224 -0.1484
28262ION     NA48542   7.315   6.877   5.591  0.1462 -0.0653 -0.0138
28263ION     NA48543   7.537   1.677   5.437  0.0069  0.0610  0.3687
28264ION     NA48544  16.179   1.162  12.061  0.1561  0.0778 -0.1717
28265ION     NA48545   8.567  10.083  11.437 -0.0115  0.2093 -0.0143
28266ION     NA48546   1.614  16.172  11.184 -0.0873  0.1639 -0.1927
28267ION     NA48547   4.971  10.918  16.495  0.0499 -0.0704 -0.1768
28268ION     NA48548   8.446  11.054  13.955 -0.1357  0.1861  0.1262
28269ION     NA48549  12.013  11.477  12.402  0.1750  0.0447 -0.3234
28270ION     NA48550   0.545   9.701  14.603  0.1554 -0.0736  0.0743
28271ION     NA48551   0.014   9.278   4.959 -0.0153  0.2523 -0.2572
28272ION     NA48552   8.780   0.522  14.735 -0.2445  0.0620 -0.1296
28273ION     NA48553   6.050   3.207   4.813 -0.0079 -0.4206 -0.3483
28274ION     NA48554   6.447   8.911   5.830 -0.0939  0.0824 -0.2628
28275ION     NA48555   7.639   3.335   2.932 -0.3311 -0.0750 -0.0083
28276ION     NA48556  12.183  12.573  11.197 -0.2495 -0.3807 -0.0350
28277ION     NA48557  11.422  13.072  12.792 -0.2158  0.0020 -0.3339
28278ION     NA48558  15.013   6.838  11.101  0.0063 -0.4096  0.0096
28279ION     NA48559   4.780  15.645  11.164  0.1295  0.2296 -0.0229
28280ION     NA48560   7.962  10.684  11.233  0.2249  0.4066  0.0539
28281ION     NA48561  10.931  11.186  11.118  0.1998  0.0814  0.0214
28282ION     NA48562   4.818  14.130  11.289  0.0124  0.0271  0.4240
28283ION     NA48563   7.763  13.044  11.391  0.0835 -0.2953 -0.2186
28284ION     NA48564  16.558   4.241  16.140 -0.2998 -0.1391 -0.0370
28285ION     NA48565  13.124  11.218  11.064  0.0743  0.1572 -0.0537
28286ION     NA48566  11.557   1.467  10.704  0.3008  0.2250 -0.2493
28287ION     NA48567  14.669   4.029  11.120  0.1763  0.2757  0.0595
28288ION     NA48568  10.395  14.566  11.350  0.0814 -0.1952  0.3088
28289ION     NA48569   4.416   8.699  11.346 -0.1337  0.0665  0.2715
28290ION     NA48570  16.988  11.656   5.776 -0.0795  0.0346 -0.2621
28291ION     NA48571   4.620  16.573  11.079 -0.0478  0.0508  0.0354
28292ION     NA48572  12.185  15.136   5.429  0.0130  0.2315 -0.0145
28293ION     NA48573   3.883  14.446  11.154 -0.2410  0.0492 -0.0723
28294ION     NA48574  17.056  14.840   5.939  0.0613  0.1187  0.0964
28295ION     NA48575   3.955  17.964   5.319 -0.2072 -0.0190 -0.0519
28296ION     NA48576   9.773  15.159   5.789 -0.0963  0.0486  0.1073
28297ION     NA48577   0.692   4.298   5.382 -0.3679  0.3268 -0.1531
28298ION     NA48578  12.873   2.254   0.034 -0.0520  0.0962  0.0209
28299ION     NA48579  12.453   9.781  11.286  0.0367  0.0658 -0.1423
28300ION     NA48580   2.496   2.470  11.229  0.0748 -0.1704  0.0819
28301ION     NA48581   3.865  13.487   5.709 -0.0255 -0.0260  0.3149
28302ION     NA48582   1.604  17.187  11.343 -0.1747 -0.0600 -0.2913
28303ION     NA48583  15.166   2.191   4.149  0.1344  0.2709 -0.0088
28304ION     NA48584   4.701  12.078  14.417  0.1490  0.1316 -0.4381
28305ION     NA48585   4.809   3.348  11.177  0.0117  0.2017  0.5366
28306ION     NA48586  17.622  17.097   5.538  0.6223 -0.0132  0.0254
28307ION     NA48587  12.983   9.556   5.638 -0.0427  0.0563 -0.0962
28308ION     NA48588  16.232   2.884   5.276  0.1124 -0.0009  0.0053
28309ION     NA48589   2.262  11.017   6.001  0.0156 -0.0912 -0.0510
28310ION     NA48590  14.485   0.451   2.770  0.0748 -0.0957  0.0787
28311ION     NA48591  11.911   0.981   5.763  0.0974 -0.1302 -0.1620
28312ION     NA48592  12.604  17.636   5.575 -0.0721 -0.3965 -0.1093
28313ION     NA48593   5.186  12.345   0.456 -0.1562 -0.2460 -0.1159
28314ION     NA48594   1.300   7.052  11.419  0.1659  0.0220  0.1483
28315ION     NA48595  13.573  13.582   4.323 -0.4253 -0.2123 -0.0205
28316ION     NA48596   3.066  17.552   1.861 -0.1656  0.3089  0.0589
28317ION     NA48597   6.478   4.032   5.379  0.1446  0.2169  0.0198
28318ION     NA48598  14.481   6.771  11.060  0.0107  0.0604 -0.2218
28319ION     NA48599   8.809   3.849  11.622  0.2591  0.1525  0.5387
28320ION     NA48600  13.816  10.568  11.377  0.0713 -0.1092  0.1668
28321ION     NA48601  10.910  17.436   5.547 -0.2025 -0.2169  0.0377
28322ION     NA48602  17.527  17.082  11.368  0.0141  0.0808 -0.1047
28323ION     NA48603   3.842   6.531  11.242 -0.0216  0.1206 -0.2003
28324ION     NA48604   0.715   7.948  11.272 -0.1004 -0.0159 -0.1283
28325ION     NA48605  11.535   8.603  13.090  0.0289  0.1204 -0.2603
28326ION     NA48606  16.776   9.299  11.221  0.1734 -0.1028 -0.1260
28327ION     NA48607   7.013   1.374   5.516  0.1432 -0.2209 -0.2213
28328ION     NA48608  11.228   1.186   2.442  0.1848  0.1566  0.0415
28329ION     NA48609   6.375  15.610   5.786 -0.0762 -0.2836  0.0200
28330ION     NA48610   6.495   8.737   2.659  0.0099 -0.1081 -0.0362
28331ION     NA48611  14.403  15.739  14.458  0.1665 -0.2961  0.2043
28332ION     NA48612   7.930   2.525   5.420 -0.4510 -0.1441 -0.1300
28333ION     NA48613  10.874   4.116   4.399 -0.3966 -0.0288  0.0708
28334ION     NA48614   6.665   9.970   0.529 -0.0298  0.0326 -0.0983
28335ION     NA48615   9.697  12.818   5.878 -0.0481  0.0323 -0.0021
28336ION     NA48616   4.235   5.064   0.861 -0.0350 -0.0121 -0.4072
28337ION     NA48617   7.781  11.642   5.827  0.0972  0.0730 -0.1331
28338ION     NA48618  14.826   5.886  10.898 -0.0855 -0.2232  0.2769
28339ION     NA48619   8.603   5.010  10.733  0.0541  0.0712  0.1900
28340ION     NA48620   2.936   4.884  11.586 -0.0220 -0.1635 -0.1373
28341ION     NA48621   6.284  16.871  12.904 -0.0681 -0.1393  0.4450
28342ION     NA48622   6.408   9.453   6.016 -0.0139 -0.3549 -0.2269
28343ION     NA48623  11.961   3.253  10.697 -0.1522  0.2182  0.0167
28344ION     NA48624   4.017  13.921  11.235 -0.0675  0.2410  0.0814
28345ION     NA48625  13.754   0.482   4.558 -0.3999  0.0036  0.0994
28346ION     NA48626   2.659   5.431   1.812 -0.0392 -0.1346 -0.2892
28347ION     NA48627  10.155   0.206   2.660  0.0444 -0.1499 -0.1774
28348ION     NA48628   0.515  11.883   5.822  0.1956 -0.0107  0.1572
28349ION     NA48629  14.869  13.329  11.343  0.0496  0.1457  0.2269
28350ION     NA48630   0.685  15.323   5.814  0.0905  0.0109 -0.0360
28351ION     NA48631   0.542  14.744  13.825  0.4597  0.3603 -0.0717
28352ION     NA48632   2.807  14.683  11.185  0.0826 -0.2204  0.0027
28353ION     NA48633   9.420   4.863  10.612  0.2284  0.2168 -0.1531
28354ION     NA48634  12.563   4.630   2.162  0.1044 -0.1118  0.3695
28355ION     NA48635  14.888  10.587   5.486 -0.0347 -0.0146 -0.1120
28356ION     NA48636   7.933  12.211  11.520 -0.0783 -0.2396  0.0052
28357ION     NA48637  13.554   1.416  10.894 -0.1730 -0.0293 -0.2816
28358ION     NA48638   1.998   3.317  16.136 -0.0553 -0.0933  0.1043
28359ION     NA48639   7.462   0.044   5.533  0.0451 -0.0690 -0.0122
28360ION     NA48640  16.005   9.772  12.984  0.2405  0.1851  0.1061
28361ION     NA48641   7.798  14.712  11.312 -0.3855 -0.0032  0.1262
28362ION     NA48642   1.432  14.734   5.729  0.0004  0.0468  0.0065
28363ION     NA48643   5.082   1.261  11.130  0.0655  0.2138 -0.2128
28364ION     NA48644  15.792   3.278  15.930 -0.2033  0.1226  0.1624
28365ION     NA48645  13.311   7.064   1.894 -0.3492 -0.0735 -0.1389
28366ION     NA48646  16.866   7.649   5.799 -0.1516 -0.0752  0.0185
28367ION     NA48647  16.119  17.958   5.533 -0.0257  0.1196 -0.3900
28368ION     NA48648  12.313   7.845  11.001 -0.2580 -0.1614  0.0976
28369ION     NA48649   1.036   1.328  12.903  0.3575  0.3118  0.0093
28370ION     NA48650  10.328   2.841  10.346  0.1298  0.0427  0.0685
28371ION     NA48651  11.659   3.189   2.731  0.1985  0.0618 -0.2090
28372ION     NA48652   4.021  15.925  11.179  0.2056 -0.0884  0.4741
28373ION     NA48653  12.939  10.297   5.322  0.0693  0.2643  0.1761
28374ION     NA48654  12.237   7.017   5.541  0.1171 -0.2725  0.0805
28375ION     NA48655  16.529   6.688  11.105  0.1948 -0.0483  0.0844
28376ION     NA48656  10.201  13.003  11.866  0.2104  0.3257 -0.2120
28377ION     NA48657  15.515   6.764   5.157  0.4577  0.1578  0.0654
28378ION     NA48658   4.101  17.248  10.986 -0.0181 -0.0791  0.1986
28379ION     NA48659   7.947   1.453  11.901  0.0343  0.0010  0.0605
28380ION     NA48660   3.949   3.350   5.618  0.0459 -0.0248  0.2797
28381ION     NA48661  16.489   9.118   3.580 -0.1337  0.0698 -0.0215
28382ION     NA48662   8.654  14.229   5.733 -0.0020 -0.0884 -0.1616
28383ION     NA48663   3.099  15.825  11.370 -0.0181  0.0247 -0.4281
28384ION     NA48664  12.475   0.909  12.316 -0.0951 -0.0483  0.0998
28385ION     NA48665   5.497  17.208   5.479 -0.0743 -0.1489 -0.0481
28386ION     NA48666   2.227   2.495   4.779  0.0902 -0.2480  0.2003
28387ION     NA48667   5.909  14.927   4.316 -0.0269  0.1931  0.1042
28388ION     NA48668  16.702  14.063   5.747 -0.2251 -0.3416 -0.0753
28389ION     NA48669   4.445   7.238   5.912  0.2563 -0.1963 -0.0777
28390ION     NA48670   8.582  16.495   4.935  0.1589  0.0721  0.2141
28391ION     NA48671  10.927   9.899   2.711 -0.0737 -0.2124 -0.1562
28392ION     NA48672   6.689  14.836  11.356 -0.2375  0.0288 -0.2198
28393ION     NA48673   5.796  17.965   5.418  0.0075  0.2377  0.1180
28394ION     NA48674  17.461  16.363   3.662  0.2253 -0.2820 -0.2137
28395ION     NA48675  11.108   4.268   1.721  0.0796  0.0496 -0.5267
28396ION     NA48676  13.080  17.102   1.909  0.2796  0.0825 -0.1897
28397ION     NA48677   8.281   9.182  11.162  0.0481  0.0468 -0.0159
28398ION     NA48678   9.491  12.992  11.301  0.2021  0.1053 -0.1147
28399ION     NA48679   4.323  13.292  12.136 -0.1893 -0.1157 -0.0795
28400ION     NA48680  14.635   9.498   2.260  0.1700  0.2818 -0.1604
28401ION     NA48681  17.788   1.337   5.616  0.0837 -0.2092  0.2944
28402ION     NA48682   3.960  15.319  16.042 -0.3607  0.1673 -0.1166
28403ION     NA48683  13.968   5.336   5.418 -0.2620 -0.0724  0.2006
28404ION     NA48684  16.140  16.823  11.258  0.1413 -0.1238  0.0922
28405ION     NA48685  15.879   0.406  10.976  0.1763  0.2022  0.1712
28406ION     NA48686   0.074   8.594   5.901 -0.0404  0.0732 -0.0476
28407ION     NA48687  15.856  13.849   5.624  0.1466  0.0828 -0.2088
28408ION     NA48688   3.860  10.607   4.170 -0.1590 -0.0596 -0.0403
28409ION     NA48689  10.968   6.324  13.586  0.0914  0.1208 -0.2570
28410ION     NA48690   8.820   4.706   5.652  0.3201  0.0277  0.2066
28411ION     NA48691   1.299   1.778  11.193 -0.0114 -0.0274  0.0509
28412ION     NA48692  12.744  15.728   5.425 -0.0600  0.3788  0.0213
28413ION     NA48693   3.802   7.901  11.524  0.1176  0.0186 -0.0559
28414ION     NA48694   0.576  13.548  13.483  0.1528  0.1879  0.0991
28415ION     NA48695   0.847  10.151  11.276  0.1012 -0.0273  0.1368
28416ION     NA48696   5.734  16.437  12.120  0.0545 -0.2364  0.1213
28417ION     NA48697   9.253  15.962  11.254  0.0481  0.0032 -0.4500
28418ION     NA48698  15.949   7.495   5.508 -0.2238 -0.0773 -0.0654
28419ION     NA48699  14.618   1.811   5.537 -0.0674 -0.1302 -0.1732
28420ION     NA48700   6.526   1.095   0.379  0.1098 -0.1232  0.1164
28421ION     NA48701  14.774  14.588   5.964  0.2880 -0.1664 -0.0702
28422ION     NA48702  16.840   7.448   4.016  0.1396  0.2966  0.2907
28423ION     NA48703  13.974   7.372   3.702 -0.2454  0.1750  0.3017
28424ION     NA48704   7.674   9.796  11.244  0.1344 -0.1618  0.1457
28425ION     NA48705   5.926   6.106   2.307  0.0735  0.3452 -0.1527
28426ION     NA48706   4.635  15.849   5.774  0.1718  0.0238 -0.0905
28427ION     NA48707   0.825  13.281   6.054 -0.1060 -0.1345  0.0582
28428ION     NA48708   7.071   2.335   5.405 -0.1811  0.0797 -0.2502
28429ION     NA48709  17.716  12.136   5.728 -0.1555 -0.0988 -0.0303
28430ION     NA48710  16.209  13.295   2.823  0.4837  0.0565 -0.1580
28431ION     NA48711  17.351   0.962   4.729 -0.4050  0.3492  0.1879
28432ION     NA48712   2.509  13.265   5.983 -0.0523 -0.1873  0.0233
28433ION     NA48713  12.710   7.774   2.998 -0.0808  0.0801  0.0747
28434ION     NA48714   6.216   9.129  11.275 -0.0708 -0.0085  0.4018
28435ION     NA48715  15.703   9.809   5.590  0.0188 -0.3010  0.3947
28436ION     NA48716  10.079  11.940   5.825  0.0781  0.0944 -0.0381
28437ION     NA48717   2.009   7.742  11.462 -0.0808  0.0307  0.0144
28438ION     NA48718  16.036   7.976   5.564  0.3246  0.3482 -0.3719
28439ION     NA48719   2.221  12.386   2.513 -0.1693 -0.0868 -0.0431
28440ION     NA48720  15.909   3.607  10.912 -0.1381 -0.3704 -0.1904
28441ION     NA48721  17.841   6.326  11.230 -0.2600 -0.1460  0.1491
28442ION     NA48722   5.337   8.062  11.194 -0.2349  0.3830  0.1741
28443ION     NA48723   5.714   7.501   5.788 -0.1495 -0.1588 -0.0407
28444ION     NA48724   8.199   8.241  11.316  0.1234  0.1598 -0.1231
28445ION     NA48725  11.173  15.855   5.068 -0.0740 -0.1107  0.2465
28446ION     NA48726  16.246   2.101  10.949 -0.0686 -0.1007 -0.1715
28447ION     NA48727   1.616   8.153  15.564  0.0533  0.0686  0.1991
28448ION     NA48728  10.689  12.794   4.321  0.0686  0.0900 -0.0504
28449ION     NA48729  11.940  10.687  15.754 -0.1067  0.1141 -0.1093
28450ION     NA48730   9.438   6.518   5.238 -0.0502  0.0479  0.4453
28451ION     NA48731  13.429  16.702   4.841 -0.0257 -0.2602  0.1412
28452ION     NA48732   7.581  11.415  11.001  0.1321  0.1311  0.0041
28453ION     NA48733   6.847   5.347  11.284  0.3671  0.3429 -0.0338
28454ION     NA48734   6.668  13.991   5.722  0.1169  0.3407  0.1510
28455ION     NA48735  15.513   0.758   1.472  0.0842 -0.1947  0.0540
28456ION     NA48736   8.575  15.259  11.333 -0.0205  0.0313 -0.2201
28457ION     NA48737   0.464   3.123  11.742 -0.1079  0.0226 -0.0164
28458ION     NA48738   2.060   8.772   4.570  0.3202 -0.2978 -0.1947
28459ION     NA48739   7.415  17.350  10.891  0.0464 -0.2968 -0.2098
28460ION     NA48740   5.523  16.848  11.172  0.0923 -0.2317 -0.1673
28461ION     NA48741   9.995   6.020  10.568 -0.1077 -0.3423 -0.0970
28462ION     NA48742  10.281  16.902   5.443 -0.3010 -0.1208 -0.1623
28463ION     NA48743   6.501  15.510  15.049 -0.1052  0.1148 -0.2672
28464ION     NA48744   5.540   6.020   5.494  0.0698 -0.6322  0.1512
28465ION     NA48745  11.529   9.411  11.116  0.0671 -0.2640  0.0450
28466ION     NA48746   2.254   0.585  11.418  0.4481 -0.1217 -0.0012
28467ION     NA48747   5.996   5.424   5.450 -0.1805  0.0940 -0.3193
28468ION     NA48748   7.266   2.152  12.466  0.0471 -0.1223  0.1956
28469ION     NA48749   8.926  10.648   3.009  0.0752 -0.0783 -0.2645
28470ION     NA48750  17.465  17.967  11.312  0.1443  0.0866 -0.2460
28471ION     NA48751  11.638  12.087  11.165 -0.1132 -0.3416 -0.1259
28472ION     NA48752   8.556  10.496   5.170 -0.1238  0.1460 -0.3064
28473ION     NA48753  11.949  13.363   5.578  0.0730 -0.2419 -0.2055
28474ION     NA48754  17.917  15.061   5.823  0.0655 -0.1835  0.0083
28475ION     NA48755   1.641  12.913   6.069 -0.0796  0.1306 -0.3618
28476ION     NA48756  17.716   1.791  10.999 -0.1848 -0.1026 -0.0118
28477ION     NA48757   9.417   5.385   5.612  0.1586  0.0512 -0.2305
28478ION     NA48758  12.726   2.629  10.858  0.2205  0.2209  0.3759
28479ION     NA48759   8.670   2.652  10.762 -0.0180  0.0074  0.1117
28480ION     NA48760  16.670   0.653   5.358  0.4026  0.0153  0.3448
28481ION     NA48761   8.940   3.632   4.156  0.4735 -0.1180 -0.0210
28482ION     NA48762  16.337   4.430  11.178  0.0440 -0.1538 -0.0975
28483ION     NA48763   7.844  10.098   5.316  0.1229  0.0560 -0.1350
28484ION     NA48764  16.040   8.285  14.549  0.0535  0.2082  0.1471
28485ION     NA48765   2.337  16.836  11.101 -0.1948 -0.1134  0.1256
28486ION     NA48766   2.841   2.714  16.077 -0.0728 -0.2230  0.0957
28487ION     NA48767  17.019   3.115   5.751 -0.2361  0.1981  0.2553
28488ION     NA48768   7.230  15.638  11.210  0.3829 -0.0639 -0.0821
28489ION     NA48769   7.346   6.770  16.615 -0.2815  0.0995 -0.0070
28490ION     NA48770   4.968  11.839  11.149 -0.2491  0.3036  0.3781
28491ION     NA48771  13.647  17.134   0.609 -0.0311  0.3136 -0.1276
28492ION     NA48772   5.147   5.633  11.389  0.1245 -0.0707  0.1514
28493ION     NA48773  14.185   6.380  14.000  0.0383  0.0215  0.0601
28494ION     NA48774  10.524   4.090   5.225  0.1973  0.1124 -0.0602
28495ION     NA48775  16.846  12.464   5.789 -0.1389  0.1296  0.1614
28496ION     NA48776  11.643   1.327  11.373  0.2427  0.0106  0.2121
28497ION     NA48777  13.433  16.221   0.504 -0.0433  0.1189  0.3488
28498ION     NA48778  15.738   6.070   5.448 -0.0726  0.0591 -0.2669
28499ION     NA48779  17.418  16.230  11.282 -0.3805  0.0295  0.1765
28500ION     NA48780  15.252  15.778  11.322  0.0489 -0.2835 -0.2236
28501ION     NA48781   4.909   9.515   5.963  0.2551 -0.0165 -0.0272
28502ION     NA48782  13.616  13.349   5.726  0.1441  0.1535  0.1858
28503ION     NA48783   1.226   5.896  11.452 -0.0654 -0.0600  0.0883
28504ION     NA48784   4.047  13.486  16.197 -0.0506  0.0132 -0.1743
28505ION     NA48785   2.656   2.777   5.870 -0.1709 -0.0934  0.1808
28506ION     NA48786  11.958   7.002  10.790 -0.1156 -0.0445  0.2309
28507ION     NA48787   8.539  17.013  11.532 -0.3112  0.0418 -0.0076
28508ION     NA48788   8.323  11.648  11.264 -0.0825  0.0343 -0.2193
28509ION     NA48789   5.442   6.045   3.255  0.0117  0.1521 -0.1542
28510ION     NA48790   3.319  17.651  11.064  0.0619  0.0450 -0.1373
28511ION     NA48791  15.846   6.870  15.406  0.5039 -0.0123 -0.3029
28512ION     NA48792  17.707   7.846   5.396 -0.0398 -0.1272  0.0092
28513ION     NA48793  17.362   5.272   5.397 -0.0094 -0.1235 -0.1969
28514ION     NA48794   5.451   0.736   1.513 -0.0917  0.0848 -0.1041
28515ION     NA48795  14.057  10.272   5.467  0.0077 -0.1810  0.1549
28516ION     NA48796  15.190  11.087  10.996  0.1030  0.1188  0.0585
28517ION     NA48797   4.817   1.341   2.651  0.1650 -0.1402  0.0960
28518ION     NA48798  16.279   8.113   3.676  0.1092 -0.2592 -0.0537
28519ION     NA48799   3.979   2.770  14.627  0.3540 -0.1991  0.0746
28520ION     NA48800  14.270   2.759   3.064  0.3344 -0.0159 -0.0212
28521ION     NA48801  10.274  13.664   2.474  0.0273  0.0324 -0.0428
28522ION     NA48802   7.939  17.824   5.700  0.0038 -0.1674  0.0281
28523ION     NA48803   2.377   8.076  11.415  0.1046  0.3488  0.0370
28524ION     NA48804   5.757  11.828   5.975 -0.1567 -0.0360  0.1010
28525ION     NA48805   5.846  10.185   5.962 -0.4017  0.1838  0.1613
28526ION     NA48806   9.068   4.575   4.194 -0.2086 -0.2531  0.1401
28527ION     NA48807   3.823   9.152  16.349 -0.2018 -0.1254 -0.2048
28528ION     NA48808   9.577  16.855  14.612  0.0507 -0.2279  0.2394
28529ION     NA48809  16.758   0.585  16.432  0.0726  0.2169 -0.2571
28530ION     NA48810  11.310   5.389  10.782 -0.1727 -0.2415  0.1302
28531ION     NA48811  14.709  16.156  11.321 -0.0649  0.2301 -0.1642
28532ION     NA48812   3.734   7.745   5.981 -0.3139 -0.1694  0.1223
28533ION     NA48813  16.669  16.451  11.369  0.3077  0.1768  0.0393
28534ION     NA48814   5.244   4.640  12.852 -0.4564 -0.1671 -0.1979
28535ION     NA48815   2.154   0.751   5.008  0.0935 -0.0545 -0.0952
28536ION     NA48816  15.715   3.854  14.912 -0.3102 -0.0582 -0.0952
28537ION     NA48817   5.611   8.279   1.313  0.3288  0.0290 -0.1297
28538ION     NA48818  15.827   6.174  11.228  0.0318 -0.1764 -0.0237
28539ION     NA48819   3.340   4.130   5.883 -0.2465 -0.1846  0.0039
28540ION     NA48820   9.199   1.153   3.268  0.0451 -0.1380 -0.0473
28541ION     NA48821  16.156   0.853  15.294  0.3001  0.2059  0.1134
28542ION     NA48822  12.162   0.399   5.646  0.0874 -0.2520  0.1728
28543ION     NA48823   1.826   6.919  14.026  0.2003  0.1801 -0.0174
28544ION     NA48824  13.525  11.527  11.920 -0.1276  0.2283  0.1854
28545ION     NA48825   8.724  12.683  11.421 -0.2106 -0.1302 -0.0231
28546ION     NA48826   6.597   3.990   0.884  0.2474 -0.0595 -0.1490
28547ION     NA48827   0.221   2.163   5.363 -0.1661  0.0045 -0.0037
28548ION     NA48828  10.108   3.110  13.929 -0.2100  0.0651  0.1527
28549ION     NA48829   1.142  10.538  13.664  0.0529 -0.0778  0.0933
28550ION     NA48830   7.118  17.259   5.505 -0.3084 -0.1735 -0.0135
28551ION     NA48831   3.092  13.057  11.367 -0.2075  0.2450 -0.1712
28552ION     NA48832   1.821  14.092  11.245 -0.2032  0.3106 -0.1289
28553ION     NA48833   3.145  13.891  11.008  0.0346 -0.1746 -0.0728
28554ION     NA48834   8.678   8.250  15.186  0.3581  0.0191  0.1840
28555ION     NA48835  14.351   9.270   0.430 -0.2057  0.0459  0.1731
28556ION     NA48836   8.351   3.303   5.572 -0.1593 -0.1667  0.3343
28557ION     NA48837  10.911   3.427  10.752  0.0236 -0.2344 -0.0440
28558ION     NA48838   4.115  16.616   5.578  0.1477 -0.0991 -0.1960
28559ION     NA48839   5.262  14.172   4.186  0.1039 -0.0260  0.1621
28560ION     NA48840  14.244   0.718  11.133  0.3102  0.0104 -0.2757
28561ION     NA48841  14.530  14.207  13.740  0.1156  0.2234 -0.0184
28562ION     NA48842   8.873   8.766   5.662  0.0384  0.2226  0.0600
28563ION     NA48843   1.790   5.637   5.825  0.1281  0.0246 -0.2066
28564ION     NA48844  13.281  12.084  11.077  0.4915  0.0784 -0.0658
28565ION     NA48845   1.943   5.662   5.363  0.2648  0.0041 -0.2631
28566ION     NA48846  12.907  16.755   5.567 -0.0689 -0.0613  0.0493
28567ION     NA48847  16.730  11.560  14.032 -0.1794 -0.0425  0.0532
28568ION     NA48848   5.691   3.709   5.534  0.1419  0.2607 -0.1885
28569ION     NA48849   6.438  11.128  15.483 -0.0303  0.3721 -0.1318
28570ION     NA48850  12.124   4.008   5.738 -0.1854  0.0673  0.1263
28571ION     NA48851  17.329   7.522   2.578 -0.1655  0.0724 -0.2048
28572ION     NA48852   4.059   2.472   5.708 -0.0148 -0.0711 -0.1092
28573ION     NA48853  17.216   8.150  11.105  0.2111  0.1713  0.1223
28574ION     NA48854  10.992   8.737  10.996 -0.3137 -0.3452  0.1430
28575ION     NA48855   1.282   4.082   2.947  0.2120 -0.1342  0.1216
28576ION     NA48856   8.662  14.506  11.273 -0.2959  0.1308 -0.1293
28577ION     NA48857   0.542  17.091   5.584 -0.0847 -0.1656  0.1562
28578ION     NA48858   3.671  15.739   5.787  0.0087 -0.0630 -0.0092
28579ION     NA48859  10.268   1.002   2.096  0.0007  0.1562 -0.0269
28580ION     NA48860   9.048   2.805   5.456  0.1762 -0.2311  0.3965
28581ION     NA48861   4.534  12.684  11.276  0.0238 -0.1320 -0.1845
28582ION     NA48862   2.200   9.216   6.036  0.3460  0.0739 -0.0621
28583ION     NA48863  15.302   9.750  11.309 -0.0169 -0.3134 -0.1125
28584ION     NA48864   4.982   2.511  16.631 -0.2107  0.0731 -0.0845
28585ION     NA48865   9.489   1.922  12.344  0.2183  0.0107  0.1085
28586ION     NA48866   6.198   3.677  11.284 -0.0223  0.2804  0.2525
28587ION     NA48867   2.394   3.915   0.450  0.0959  0.0494 -0.1172
28588ION     NA48868  11.622  14.761  11.090  0.2846 -0.1001  0.1012
28589ION     NA48869   4.685   1.064   5.503 -0.0039  0.0989  0.0274
28590ION     NA48870  16.933   4.112  11.099  0.2303  0.0094  0.0740
28591ION     NA48871   9.168   2.654   1.705  0.1321  0.0656 -0.0893
28592ION     NA48872  10.850  15.270  11.148  0.1954  0.1615 -0.2599
28593ION     NA48873   5.683  12.866   5.918 -0.0871 -0.3028 -0.1614
28594ION     NA48874   2.221   9.058   5.199  0.1121  0.0569 -0.2283
28595ION     NA48875   2.602   1.773   5.845  0.1720 -0.0825 -0.0009
28596ION     NA48876  12.217  17.929  16.184  0.1527  0.2916 -0.2225
28597ION     NA48877   8.027   6.499  14.363 -0.0037 -0.1880  0.1827
28598ION     NA48878  11.490  12.153   5.661  0.0445 -0.1965 -0.2781
28599ION     NA48879  14.358  10.748  11.248 -0.2710  0.0118  0.1822
28600ION     NA48880  15.561  14.861  11.565 -0.1805 -0.5837  0.1731
28601ION     NA48881  12.828   7.760   5.636 -0.1113 -0.0101  0.0270
28602ION     NA48882  13.503   8.615   5.095 -0.2317  0.1464  0.1234
28603ION     NA48883   7.105  16.254   5.720 -0.1349  0.2178  0.0365
28604ION     NA48884   6.476  10.717  11.297 -0.1956 -0.0468  0.1836
28605ION     NA48885   3.368   6.569  15.609  0.2076 -0.1153  0.0798
28606ION     NA48886  14.330   2.099  11.094  0.0508  0.1386  0.0615
28607ION     NA48887   5.579  13.320   3.418  0.0367 -0.1360  0.1957
28608ION     NA48888   9.970   8.708  11.090 -0.0225  0.0824  0.2771
28609ION     NA48889   0.873  16.710  11.334 -0.2085  0.1645 -0.0804
28610ION     NA48890   0.543   7.698   5.862  0.0675 -0.0381  0.1936
28611ION     NA48891  10.617   4.941   5.522 -0.0857 -0.5535  0.2397
28612ION     NA48892  14.466   8.263  11.478  0.3236 -0.2301 -0.2291
28613ION     NA48893   7.665   6.455  11.159 -0.0915 -0.1259 -0.0531
28614ION     NA48894   5.028   6.650   5.898 -0.0218 -0.0927 -0.1088
28615ION     NA48895  13.807  12.165  10.921  0.2226  0.3766 -0.2895
28616ION     NA48896  16.719   8.680   5.688 -0.1357  0.0836 -0.1002
28617ION     NA48897   9.294  17.232   1.864 -0.0445  0.1751 -0.0742
28618ION     NA48898  16.278   5.435  11.196  0.2675  0.0080  0.1040
28619ION     NA48899  11.389  11.204   1.904 -0.2060  0.0061  0.0622
28620ION     NA48900   2.094   1.469  11.224 -0.4020  0.0840  0.1521
28621ION     NA48901  13.476   8.637   5.623 -0.1498 -0.0318 -0.1571
28622ION     NA48902   5.234   0.763  15.914  0.0832 -0.1460 -0.1069
28623ION     NA48903  11.561  17.666  10.719  0.0284  0.0588 -0.1617
28624ION     NA48904   8.366   5.215   2.594 -0.0457 -0.3331 -0.0580
28625ION     NA48905  15.898   2.081   5.508 -0.0631  0.2286 -0.0305
28626ION     NA48906  10.541  14.514   5.338 -0.3082 -0.0503  0.1661
28627ION     NA48907  10.498   8.152   5.355 -0.0925  0.2786  0.3501
28628ION     NA48908   9.817   4.537  10.430  0.0588 -0.1245 -0.0635
28629ION     NA48909   5.478  12.559  11.152 -0.2054 -0.0269  0.0710
28630ION     NA48910  10.068   7.813  10.989  0.0867 -0.0750 -0.0781
28631ION     NA48911   7.760   4.642  10.972  0.0883 -0.0446 -0.0956
28632ION     NA48912   8.987   8.909   0.793  0.0372  0.1907 -0.1388
28633ION     NA48913   1.473  10.498   2.043 -0.0370  0.1044 -0.1359
28634ION     NA48914   4.898  12.893   1.529  0.0033  0.1602 -0.0335
28635ION     NA48915   9.455   9.454   5.575 -0.0760 -0.2054 -0.0723
28636ION     NA48916  11.928   7.812   5.806  0.1238  0.1060 -0.0801
28637ION     NA48917  12.881   3.204   0.753  0.0717  0.1171 -0.0657
28638ION     NA48918  12.633   6.232   5.577 -0.3098 -0.1109  0.0683
28639ION     NA48919  10.341  13.619   5.824 -0.1412  0.0424 -0.1989
28640ION     NA48920   0.068   2.811   5.652 -0.1414 -0.3274  0.3143
28641ION     NA48921   4.509   4.870   5.652 -0.2226  0.0139  0.3181
28642ION     NA48922  16.721  17.123   5.567  0.0736 -0.1536  0.1760
28643ION     NA48923   2.747   3.338  11.103 -0.1331  0.0928  0.1720
28644ION     NA48924   5.247   1.493  14.268 -0.0135  0.0196  0.0407
28645ION     NA48925   4.441   4.003  11.783 -0.1492 -0.2182  0.1789
28646ION     NA48926   3.870   0.885   5.549  0.3065 -0.1212 -0.1199
28647ION     NA48927  13.444   4.368   5.449  0.0320 -0.0503 -0.1525
28648ION     NA48928   6.270  17.117   5.457 -0.1488 -0.1537  0.3162
28649ION     NA48929  10.551   1.751   3.106 -0.2604  0.0131  0.0520
28650ION     NA48930  12.266  15.277  11.050 -0.1363 -0.0785  0.1509
28651ION     NA48931   9.333   0.412   5.651 -0.1696 -0.0513 -0.0663
28652ION     NA48932  17.947   9.577   5.831 -0.1810 -0.1315  0.0849
28653ION     NA48933   9.330  11.403  11.684 -0.4314  0.0536  0.0369
28654ION     NA48934   2.162   1.576  13.515  0.3279 -0.0012  0.0847
28655ION     NA48935   2.846   9.878   0.337  0.2212  0.2128 -0.1593
28656ION     NA48936   3.294   4.144  14.280  0.1841 -0.1271  0.0816
28657ION     NA48937   4.660   3.119   5.650 -0.0507  0.0554 -0.0273
28658ION     NA48938   3.631  12.390   1.181 -0.1181 -0.1596 -0.0948
28659ION     NA48939   1.803   6.453   5.632 -0.3030  0.1078 -0.2469
28660ION     NA48940  14.754   0.556   5.349 -0.3044  0.2887  0.0149
28661ION     NA48941  14.902  17.061   5.617  0.0990 -0.0936  0.1080
28662ION     NA48942   5.185   5.951  11.803 -0.0258  0.0967 -0.0193
28663ION     NA48943  14.270  17.707   5.527  0.0671  0.2906  0.1006
28664ION     NA48944   9.466  11.902   4.300  0.2336  0.2421  0.0269
28665ION     NA48945  11.912  16.014   5.443  0.2614 -0.0809 -0.1122
28666ION     NA48946  16.171  16.388   5.723  0.1061 -0.1269 -0.0850
28667ION     NA48947   6.937  14.789   5.747  0.3833  0.0842 -0.1978
28668ION     NA48948  16.459  14.497  11.509  0.0991  0.1559 -0.0055
28669ION     NA48949   5.546   4.989  11.105 -0.0659  0.1694 -0.1626
28670ION     NA48950   7.317   8.998   4.881 -0.0799  0.3879 -0.1075
28671ION     NA48951   8.949  12.301   1.664  0.2446 -0.1536  0.2185
28672ION     NA48952   1.063  15.212   1.699 -0.1762  0.0868  0.2478
28673ION     NA48953   6.262   7.992   5.809 -0.3854 -0.1086  0.0759
28674ION     NA48954  15.298   9.121   5.570  0.1240 -0.0016 -0.0320
28675ION     NA48955   2.675   9.154  14.088  0.1797 -0.1420  0.1912
28676ION     NA48956   4.817   4.794  11.140  0.4827  0.1809 -0.0419
28677ION     NA48957   7.879  10.488  14.921 -0.2229  0.0814  0.0868
28678ION     NA48958  17.093   9.420   5.814  0.0993  0.0440  0.0264
28679ION     NA48959   0.716   6.665   5.906 -0.0171  0.3124  0.0904
28680ION     NA48960  13.776  15.194  11.219  0.0258  0.0457 -0.0324
28681ION     NA48961  11.690  17.686   5.506  0.0237 -0.0655  0.0625
28682ION     NA48962   3.035   1.166   5.668  0.0288  0.3050  0.1759
28683ION     NA48963  13.909  17.860  11.055  0.2884  0.4344  0.2323
28684ION     NA48964   7.108  11.372   5.791 -0.0483 -0.0253  0.2899
28685ION     NA48965   9.203   0.749  10.618 -0.0323 -0.3765 -0.0925
28686ION     NA48966  11.532   7.705  11.077  0.0718 -0.0565 -0.1195
28687ION     NA48967   6.629   7.344   5.545 -0.0145  0.2668 -0.0119
28688ION     NA48968   2.490   1.086  11.241  0.1285 -0.2190 -0.0097
28689ION     NA48969   1.133   1.908   5.206  0.2694 -0.0430  0.1672
28690ION     NA48970   3.905   2.773  12.593 -0.0442  0.1144 -0.1287
28691ION     NA48971  12.206  17.137  10.959 -0.5213  0.2796  0.3282
28692ION     NA48972   8.517   4.070   1.807  0.0176 -0.1681 -0.0489
28693ION     NA48973   7.908   5.021   5.364 -0.0037  0.4628 -0.2894
28694ION     NA48974  12.375   9.304  11.080  0.2986 -0.0648  0.0128
28695ION     NA48975  14.160   6.282   5.196 -0.0491 -0.0493  0.3841
28696ION     NA48976  15.983   6.992   2.220 -0.2387  0.1581  0.1098
28697ION     NA48977  13.397  10.912   5.673  0.0757  0.1840 -0.0906
28698ION     NA48978   5.495   1.635   5.399 -0.0146  0.0029  0.3577
28699ION     NA48979   5.853  11.789  11.069  0.2602 -0.1314  0.2017
28700ION     NA48980  14.098   2.327   5.482  0.0097 -0.1201 -0.2073
28701ION     NA48981  13.765  12.916   3.691 -0.1288  0.1702  0.2178
28702ION     NA48982   1.850   2.172   5.645 -0.1115 -0.1044  0.1886
28703ION     NA48983  16.840   1.599   5.454  0.0910 -0.0094  0.0715
28704ION     NA48984  11.795   8.524  11.226  0.0995  0.1922 -0.0760
28705ION     NA48985   0.418  12.685   5.941  0.1983 -0.0836  0.2027
28706ION     NA48986  12.170   2.438   5.552 -0.2240  0.0345 -0.0853
28707ION     NA48987   4.670   7.673  13.561  0.1530 -0.2663  0.3561
28708ION     NA48988   2.179   0.503   5.654  0.1115  0.2240 -0.1211
28709ION     NA48989   6.718   4.727   2.339  0.0230  0.1037 -0.4112
28710ION     NA48990  16.969   1.397  11.035 -0.1479  0.0791 -0.0049
28711ION     NA48991   8.399   0.400  11.139  0.0358  0.3756 -0.0055
28712ION     NA48992   2.756   3.772  12.052 -0.0854  0.3812  0.1443
28713ION     NA48993   2.361  14.869   5.758  0.1076 -0.0432  0.1581
28714ION     NA48994   5.020  10.291   6.230 -0.1518  0.2532  0.2068
28715ION     NA48995   7.248   3.633  10.982  0.0809  0.0385  0.0201
28716ION     NA48996  13.582  16.108   5.582 -0.0501 -0.0840 -0.2031
28717ION     NA48997   8.052   0.683  10.857 -0.2257 -0.3582 -0.1477
28718ION     NA48998  16.445   5.695   3.858 -0.1140 -0.0010  0.0853
28719ION     NA48999  16.916  12.419  11.272 -0.1484  0.3328 -0.4163
28720ION     NA49000  14.168   7.822   4.995 -0.2787  0.0444  0.0686
28721ION     NA49001  13.963   0.823   5.380  0.1654  0.0364  0.0642
28722ION     NA49002   8.262  11.921   5.548  0.0857  0.1564 -0.0084
28723ION     NA49003   4.668  11.055   6.431 -0.0602  0.0635 -0.1056
28724ION     NA49004  11.676   4.928   5.572  0.0211 -0.0768 -0.1937
28725ION     NA49005   1.274   4.059  11.229  0.0885 -0.1335 -0.1444
28726ION     NA49006  14.320   1.340   3.989 -0.2178 -0.2244  0.0134
28727ION     NA49007   0.255   7.115  11.225  0.0475  0.1227 -0.1664
28728ION     NA49008  13.280  14.973   1.686 -0.0727 -0.0269 -0.2006
28729ION     NA49009   9.209  11.195   5.183 -0.2983 -0.4732  0.1113
28730ION     NA49010   3.338   8.716  11.380 -0.0321 -0.0206  0.1545
28731ION     NA49011  15.003   0.973  11.178 -0.0041 -0.1978  0.1608
28732ION     NA49012  11.357  10.233  13.884 -0.0590  0.2442  0.2273
28733ION     NA49013   0.303  17.618  11.625 -0.2344 -0.1014 -0.0338
28734ION     NA49014  14.043   6.226   5.748  0.0957  0.1212  0.1309
28735ION     NA49015   9.858   0.241  10.841  0.0453  0.0710 -0.1147
28736ION     NA49016  13.398   4.943  13.125 -0.1276  0.0831 -0.0253
28737ION     NA49017   7.115   8.111   5.607 -0.1683 -0.0751  0.1014
28738ION     NA49018   5.702  14.353   5.015  0.0122 -0.1699 -0.0060
28739ION     NA49019   6.546  14.123  11.398 -0.0352 -0.3332  0.1009
28740ION     NA49020  11.857   4.571   3.338  0.1870  0.0760  0.1740
28741ION     NA49021   9.790   4.536   5.537 -0.0199 -0.1616  0.1915
28742ION     NA49022   6.175   9.503  13.886  0.1605  0.2299  0.1208
28743ION     NA49023  13.056  14.802  11.403  0.1181 -0.0659 -0.1976
28744ION     NA49024  10.311   2.634  10.822 -0.0093 -0.1594  0.0341
28745ION     NA49025  12.374   7.566   1.045  0.1230 -0.1170 -0.2175
28746ION     NA49026   6.851  11.734   0.066 -0.0318  0.0380 -0.1008
28747ION     NA49027   0.263  14.517  11.439  0.2116 -0.0508 -0.2000
28748ION     NA49028   2.498   0.197  11.246 -0.1313  0.0907  0.1888
28749ION     NA49029   2.457   3.579   5.628  0.2437  0.1668  0.2171
28750ION     NA49030  12.276   6.082   1.931  0.1659  0.0442  0.0234
28751ION     NA49031   4.527   5.938   5.727  0.0222  0.0694  0.3382
28752ION     NA49032   1.868  14.671  11.430 -0.0153 -0.1029  0.3179
28753ION     NA49033   8.853  15.725   0.833 -0.1582  0.1422  0.0049
28754ION     NA49034  14.054   8.941  11.098 -0.4705 -0.1627 -0.1677
28755ION     NA49035   2.045   3.048  11.214 -0.1354 -0.5132 -0.4535
28756ION     NA49036  17.154  11.727   5.290 -0.1428 -0.1490  0.2330
28757ION     NA49037  11.291   2.770   5.790 -0.0594 -0.1535 -0.1200
28758ION     NA49038  11.258   5.686   5.366  0.0377 -0.1676 -0.0140
28759ION     NA49039   7.412   0.025   1.718 -0.0572 -0.2398  0.2378
28760ION     NA49040   5.055   4.810   5.612 -0.1799 -0.0502  0.0180
28761ION     NA49041   6.498   0.526   2.666 -0.1449  0.2321 -0.0534
28762ION     NA49042  14.423   3.168   5.130 -0.2594  0.0173  0.2190
28763ION     NA49043   3.213   7.767   6.022  0.1910 -0.2248  0.1932
28764ION     NA49044   4.182   1.526  11.024  0.0359 -0.4290  0.0885
28765ION     NA49045  14.450  12.476  11.392 -0.4558  0.1795  0.1903
28766ION     NA49046  10.897   8.551   3.316 -0.1214 -0.0505 -0.0131
28767ION     NA49047   2.046  16.543   5.755  0.0733 -0.0323 -0.1154
28768ION     NA49048   9.717   8.149   2.404  0.0455 -0.0316 -0.0550
28769ION     NA49049   1.256  15.923   5.700  0.1379 -0.1598 -0.1505
28770ION     NA49050  12.633   8.606   5.763  0.3031 -0.1371 -0.0785
28771ION     NA49051  14.353   8.075   5.649 -0.2551 -0.0940  0.1349
28772ION     NA49052   8.820  17.786   5.576  0.0384  0.1556 -0.1549
28773ION     NA49053  14.925   4.980   5.656 -0.1553  0.0761 -0.0981
28774ION     NA49054   7.114  10.704   1.299 -0.2214 -0.2667  0.0564
28775ION     NA49055  12.218  14.419   3.374  0.2607 -0.1575 -0.2167
28776ION     NA49056  17.632   9.073  11.390  0.0601 -0.1191  0.0859
28777ION     NA49057  14.452   7.493  11.027  0.1287 -0.0381  0.1955
28778ION     NA49058   9.533  15.977   5.606  0.0285  0.1890  0.0481
28779ION     NA49059   1.418   8.178   5.938  0.2215  0.1733 -0.0333
28780ION     NA49060  10.561   6.422   4.210 -0.5996  0.0202  0.5146
28781ION     NA49061   5.590   0.295  11.262  0.2607 -0.1365 -0.0094
28782ION     NA49062   2.666   5.391  13.799 -0.2706 -0.1563 -0.0741
28783ION     NA49063   4.049   3.030   3.315 -0.1073 -0.0731 -0.0268
28784ION     NA49064  11.176   3.194   3.820 -0.1050  0.0254 -0.0239
28785ION     NA49065  10.738   0.250  10.717  0.0618  0.0226 -0.1365
28786ION     NA49066   0.329  16.035   5.809  0.2741  0.0291 -0.3459
28787ION     NA49067  11.844   3.204  14.421 -0.0183 -0.2402  0.0307
28788ION     NA49068   5.677   4.422  11.097 -0.0645  0.0324 -0.0078
28789ION     NA49069  10.569  12.783   0.819  0.1046 -0.1118  0.2592
28790ION     NA49070   1.704   3.153   5.774 -0.0938 -0.1445 -0.1566
28791ION     NA49071   2.866   6.803  11.234  0.0567  0.5302 -0.0704
28792ION     NA49072   1.437   7.192   5.993  0.0194 -0.1088 -0.1001
28793ION     NA49073   6.408   2.919   5.238  0.0568 -0.2590  0.1037
28794ION     NA49074   3.047  11.733  11.059 -0.1001  0.0513  0.0834
28795ION     NA49075  17.775   4.337   5.577  0.0525  0.1661 -0.1021
28796ION     NA49076   6.128   4.764   4.309  0.0912 -0.2253 -0.4243
28797ION     NA49077  14.356   4.644   5.496 -0.1159 -0.4474  0.0746
28798ION     NA49078   1.253  12.439  12.261  0.0850 -0.0134  0.0268
28799ION     NA49079  15.882  15.589   5.568  0.2848  0.0927  0.0401
28800ION     NA49080   6.060  17.507   0.449 -0.2938  0.0042  0.1973
28801ION     NA49081   0.331  14.899   0.072  0.0963  0.2013 -0.2504
28802ION     NA49082  16.388   5.796   1.011  0.0474 -0.3045 -0.2437
28803ION     NA49083  11.976  15.532  13.231 -0.1241  0.4001  0.2903
28804ION     NA49084   4.489  15.333   4.892  0.0892  0.4200 -0.1129
28805ION     NA49085  17.738   4.310  11.287  0.0666  0.0259 -0.1336
28806ION     NA49086   2.522   4.522   5.892  0.1262  0.0977  0.1742
28807ION     NA49087  12.694   4.770   5.712 -0.1980  0.0689  0.3459
28808ION     NA49088  17.030   4.555   5.828 -0.0146  0.0520  0.2069
28809ION     NA49089  17.026  12.981  11.216 -0.1337 -0.0314  0.0182
28810ION     NA49090   2.999   6.666   4.827  0.3585 -0.0130 -0.0446
28811ION     NA49091  14.933  15.494   5.520 -0.1191  0.0135  0.0796
28812ION     NA49092   3.337   6.179  11.354 -0.2021 -0.0789  0.0053
28813ION     NA49093  14.249   1.376   5.402 -0.2013  0.2541 -0.1853
28814ION     NA49094   0.570  12.968  11.386 -0.2864  0.1011  0.0389
28815ION     NA49095  10.215   9.753   5.617  0.0209  0.0014  0.1130
28816ION     NA49096   0.961   3.561   3.421 -0.2150  0.1851  0.0145
28817ION     NA49097  14.538   1.087  16.547 -0.0741  0.0043 -0.0500
28818ION     NA49098   9.579  17.546  14.697 -0.1035 -0.0960  0.2863
28819ION     NA49099   6.564   0.567  11.096 -0.1479 -0.1490 -0.0265
28820ION     NA49100   6.538  17.007  11.163 -0.0777  0.2671  0.0021
28821ION     NA49101  13.933   4.685  10.832 -0.1779 -0.1450 -0.2816
28822ION     NA49102   5.028  17.507  11.260  0.1380  0.1354 -0.1468
28823ION     NA49103   6.210   0.979   5.635 -0.1380 -0.2076  0.1861
28824ION     NA49104  15.171   1.532   5.605 -0.1064  0.0159 -0.2819
28825ION     NA49105   8.721  13.743  15.806  0.0572 -0.3685 -0.1035
28826ION     NA49106  15.970   9.053  11.150  0.0416  0.2791  0.2317
28827ION     NA49107  16.748   2.897  14.088 -0.1216 -0.2308 -0.1398
28828ION     NA49108  16.372   5.293   5.743 -0.0730 -0.0427 -0.0041
28829ION     NA49109   3.303   2.262   5.933 -0.0004  0.0700 -0.2102
28830ION     NA49110   4.456  10.169  11.249 -0.0180 -0.1918  0.0034
28831ION     NA49111  12.122   9.439   5.555  0.0289 -0.3974  0.1545
28832ION     NA49112  16.260   1.313  11.253  0.0566 -0.1510 -0.2527
28833ION     NA49113  17.601   8.698   5.714 -0.0250  0.0947  0.1050
28834ION     NA49114   1.674  10.739  11.096  0.0663  0.2130 -0.1879
28835ION     NA49115  13.329   5.943   5.402 -0.1324 -0.0019 -0.1527
28836ION     NA49116   8.666   6.947  12.047  0.1644  0.1724 -0.2561
28837ION     NA49117  12.285   2.295  16.132 -0.1608 -0.1302 -0.2704
28838ION     NA49118   7.068  10.732  11.096 -0.2193  0.1078  0.1263
28839ION     NA49119   8.620  17.095   5.678  0.0159 -0.0498  0.1417
28840ION     NA49120  14.084  16.952   5.647  0.0851  0.0848 -0.1689
28841ION     NA49121  13.812   3.914   5.433  0.0515 -0.1985  0.0215
28842ION     NA49122  13.769   6.833  10.800 -0.0297 -0.1908 -0.1669
28843ION     NA49123   2.290  17.684  11.127 -0.0045 -0.1389 -0.3082
28844ION     NA49124   3.253   2.762  13.790 -0.2652 -0.1860  0.4280
28845ION     NA49125   2.031   6.805   3.879  0.0680 -0.0907  0.1787
28846ION     NA49126   3.842  15.285   5.943 -0.0473  0.0438 -0.0483
28847ION     NA49127  14.704  17.365  11.204 -0.2700  0.0659  0.0857
28848ION     NA49128  17.487   2.072   5.159 -0.1421  0.1930 -0.1767
28849ION     NA49129   1.269   0.818   5.417 -0.1471 -0.1834 -0.1973
28850ION     NA49130   2.539   6.103   5.943  0.0455  0.1571 -0.3418
28851ION     NA49131  13.214  11.875   5.601  0.1164  0.2275 -0.1388
28852ION     NA49132   4.019  11.761  11.230 -0.1464  0.0372 -0.4269
28853ION     NA49133  13.286   1.119  12.389  0.0709 -0.0459 -0.0170
28854ION     NA49134   3.334   3.276   5.629  0.2499 -0.0114  0.2535
28855ION     NA49135  13.150  15.332   5.525 -0.2741  0.0580 -0.0166
28856ION     NA49136   5.479  10.997   6.003  0.2944  0.0905  0.0873
28857ION     NA49137   9.982  13.791  11.410  0.2857 -0.0047 -0.0192
28858ION     NA49138  11.693   2.843  10.502 -0.2178  0.2584  0.0487
28859ION     NA49139   6.511  13.028   5.787 -0.0745  0.2234  0.0730
28860ION     NA49140  13.213   8.123  11.335 -0.1277  0.3489  0.0353
28861ION     NA49141   7.777   4.473   1.632  0.0664 -0.0645 -0.1481
28862ION     NA49142  11.109   9.487  11.487  0.0318  0.1656 -0.2657
28863ION     NA49143   0.373   0.699   5.629  0.0990 -0.0807 -0.1189
28864ION     NA49144   4.294   5.777  11.405 -0.0033 -0.0395  0.1271
28865ION     NA49145  10.495  17.088  11.758 -0.0848 -0.0513  0.2232
28866ION     NA49146   4.939   9.933  14.034 -0.1399 -0.1325 -0.2859
28867ION     NA49147   9.193   8.954  11.004 -0.0738  0.0363 -0.1408
28868ION     NA49148  17.390  15.083   3.033 -0.1288  0.0423  0.0152
28869ION     NA49149   4.919  14.011   6.166  0.1595  0.0828  0.1348
28870ION     NA49150  12.317   5.494   5.418  0.4308 -0.4641 -0.0493
28871ION     NA49151  10.016  13.002   2.206 -0.0110  0.4491 -0.1419
28872ION     NA49152  16.880  16.431  13.567 -0.3917  0.0482 -0.0190
28873ION     NA49153   9.196   6.480  10.755 -0.2216 -0.0161  0.2061
28874ION     NA49154   4.520  17.271   5.572 -0.5521 -0.1049 -0.2576
28875ION     NA49155   4.805   7.728   5.821 -0.3244  0.2951  0.0851
28876ION     NA49156  12.846   7.015  10.990  0.2479 -0.0200  0.1764
28877ION     NA49157  17.583   3.448  11.006 -0.0585 -0.4987  0.1719
28878ION     NA49158   3.803   1.099   4.580 -0.0746 -0.0970  0.1398
28879ION     NA49159   8.702  10.911  11.703 -0.0936 -0.0697 -0.3263
28880ION     NA49160   2.004   7.272  11.285  0.1387 -0.0949 -0.4453
28881ION     NA49161   6.761  10.314   5.685  0.0498 -0.5737  0.0217
28882ION     NA49162  15.015   0.122  11.115  0.0893 -0.1137 -0.0747
28883ION     NA49163   9.208   8.229  11.008 -0.3098 -0.1286 -0.1786
28884ION     NA49164  12.097  16.990   5.715  0.1044  0.1009 -0.0338
28885ION     NA49165   0.017   7.199  13.441  0.2494  0.3482 -0.0091
28886ION     NA49166  16.494   3.828   5.534 -0.0200 -0.3498  0.1815
28887ION     NA49167   8.914  17.450  13.666  0.0812  0.0279  0.0555
28888ION     NA49168  15.859   6.781  13.571 -0.0580 -0.3866 -0.0756
28889ION     NA49169   8.547  14.413   0.982  0.1047 -0.0763 -0.1753
28890ION     NA49170  10.087   7.323   5.595 -0.0117  0.1212  0.2867
28891ION     NA49171  12.115  14.533   4.806  0.0390  0.2368 -0.0099
28892ION     NA49172   1.976   9.418  14.903 -0.1788  0.0827  0.2532
28893ION     NA49173  13.840  15.150   5.873 -0.3479  0.2135  0.2874
28894ION     NA49174   6.008  12.768  11.320  0.0274 -0.0738  0.0817
28895ION     NA49175  16.083  15.002  11.365  0.2307 -0.0800 -0.3503
28896ION     NA49176   1.883   8.357  14.091  0.0195 -0.3497 -0.1327
28897ION     NA49177   9.017  11.634   2.374 -0.0439 -0.2058  0.0147
28898ION     NA49178  17.656   2.807  11.323 -0.0084  0.0480 -0.3272
28899ION     NA49179   7.180   7.586  11.459  0.0063  0.0055 -0.1090
28900ION     NA49180  17.293   6.987   5.595  0.0454  0.3852  0.0091
28901ION     NA49181   2.064   1.179   5.330 -0.1206 -0.0576  0.0536
28902ION     NA49182  16.296   9.681   2.442  0.0321 -0.1318 -0.1544
28903ION     NA49183   9.440  10.440  11.432 -0.2985 -0.1145  0.2096
28904ION     NA49184  13.383  16.186  11.137  0.1767  0.2290 -0.1583
28905ION     NA49185   2.214   0.267   3.118 -0.0869  0.2512 -0.2106
28906ION     NA49186  14.188   7.056   5.476 -0.0707 -0.1177 -0.0961
28907ION     NA49187  14.047   5.423  10.773 -0.0294 -0.1735  0.1816
28908ION     NA49188  13.850  12.377   5.712 -0.0127 -0.1646 -0.0470
28909ION     NA49189  13.752  14.252  12.788  0.1112 -0.0667 -0.4460
28910ION     NA49190  15.722  17.530  11.274  0.0482  0.0549  0.3172
28911ION     NA49191   7.476  14.812  11.724  0.0802 -0.2574  0.1096
28912ION     NA49192  14.722   9.738   5.566 -0.0051  0.0573 -0.1995
28913ION     NA49193   2.112   4.404  11.752  0.2631  0.3668 -0.1384
28914ION     NA49194   7.587   9.758   5.855 -0.2202  0.1192  0.0564
28915ION     NA49195   1.584  10.494   5.872  0.0563  0.0606 -0.1603
28916ION     NA49196   3.454   3.203  11.151  0.0518  0.0674  0.0298
28917ION     NA49197  15.765  17.191   5.528  0.1701 -0.0110  0.2150
28918ION     NA49198   8.145   7.235  11.124 -0.1208 -0.2137 -0.0346
28919ION     NA49199   5.593  13.952  12.165  0.0270 -0.2924 -0.2635
28920ION     NA49200   1.268   8.130  12.716 -0.0312 -0.0372  0.3220
28921ION     NA49201  13.886   9.445   5.611  0.0626 -0.2723 -0.2247
28922ION     NA49202   0.324   0.415  11.213 -0.1849 -0.1870  0.0104
28923ION     NA49203   1.885   3.135  12.988  0.0697  0.1355 -0.1319
28924ION     NA49204   9.481   7.938   5.685  0.5461 -0.2740  0.0595
28925ION     NA49205   8.830   3.665  10.554  0.2444  0.0633 -0.0537
28926ION     NA49206  16.212   8.195  11.043 -0.0080  0.1184 -0.3270
28927ION     NA49207   2.627   5.824  11.451 -0.1841 -0.1471 -0.1275
28928ION     NA49208   9.847  13.583   5.976  0.0262  0.1645 -0.3125
28929ION     NA49209  11.389   6.611   5.202  0.2158  0.0608  0.0268
28930ION     NA49210   1.380   9.437  11.687 -0.1077  0.2683  0.1621
28931ION     NA49211   2.924   0.079   4.732  0.1055 -0.1653  0.0665
28932ION     NA49212   7.322   5.308   5.497  0.2167  0.0105  0.1295
28933ION     NA49213  14.440  17.754   1.086  0.0497  0.0486  0.1821
28934ION     NA49214   4.897   9.275  11.214 -0.1977 -0.0473 -0.4263
28935ION     NA49215  11.407   8.041  15.215 -0.2832 -0.0626  0.1478
28936ION     NA49216  16.572   2.000   0.697  0.1374  0.0360 -0.2475
28937ION     NA49217   2.157  15.451   5.680 -0.0602  0.0797 -0.3565
28938ION     NA49218  15.567  13.218   5.674  0.0455  0.0062 -0.0440
28939ION     NA49219  10.937  11.573   5.442 -0.0887 -0.2134 -0.1850
28940ION     NA49220  16.268   9.497   5.703 -0.2771 -0.1565 -0.1379
28941ION     NA49221   5.118   3.632   4.261 -0.1208  0.1251 -0.1133
28942ION     NA49222   1.128   5.010   5.958 -0.2716  0.1450 -0.0919
28943ION     NA49223   2.097  12.085   5.772  0.0201  0.0613 -0.2276
28944ION     NA49224   6.027   1.163   5.128  0.0875  0.1993  0.1785
28945ION     NA49225   8.182  13.508   5.668  0.0654  0.4113 -0.0050
28946ION     NA49226   2.612  15.401   4.947  0.3447 -0.0894 -0.2485
28947ION     NA49227   0.090  15.264  11.516 -0.5395 -0.0596 -0.1727
28948ION     NA49228  17.311  10.660   5.789 -0.1913 -0.0479  0.0873
28949ION     NA49229  12.434  11.628  11.220  0.0517 -0.3195  0.0345
28950ION     NA49230  15.071  13.161   5.775  0.1129  0.0388  0.1291
28951ION     NA49231  17.407   7.098  11.241 -0.0629  0.1762  0.2661
28952ION     NA49232   3.924   0.152  11.237  0.0760 -0.4405 -0.1386
28953ION     NA49233   9.719  11.514   5.801 -0.0181  0.0211 -0.0999
28954ION     NA49234   4.441   4.062   5.757  0.0419  0.2416 -0.0271
28955ION     NA49235   1.197   2.559  11.193 -0.0249 -0.0651 -0.2647
28956ION     NA49236   2.366  10.341  11.443  0.0944  0.1223 -0.1897
28957ION     NA49237  15.793  10.760   5.668  0.1361  0.0392 -0.3002
28958ION     NA49238   9.992   1.081  10.657 -0.0439 -0.2370 -0.2010
28959ION     NA49239   0.966  14.246   5.721  0.2187  0.3802 -0.2394
28960ION     NA49240  11.104  12.740  11.251  0.0096  0.3315 -0.2049
28961ION     NA49241  16.390  11.536   5.733  0.1294  0.0771 -0.2333
28962ION     NA49242  17.672   6.896   1.292  0.4391 -0.1497  0.1256
28963ION     NA49243  14.939   2.986   1.169  0.1282 -0.0489  0.0133
28964ION     NA49244   1.112  14.762  11.376  0.0459 -0.0573 -0.1242
28965ION     NA49245  12.196   4.298  15.172 -0.2893 -0.4237 -0.4102
28966ION     NA49246  14.946   3.780   2.919  0.1314 -0.1461 -0.1785
28967ION     NA49247   9.407  12.900   3.750 -0.4001 -0.1843  0.2643
28968ION     NA49248  17.953   3.609   3.253 -0.0042 -0.0957  0.1063
28969ION     NA49249  11.656   7.719  15.819 -0.0163 -0.0803  0.1385
28970ION     NA49250   2.318   9.391  11.348  0.0013  0.0023  0.1713
28971ION     NA49251   0.264   5.072  11.831 -0.1331 -0.0948  0.0055
28972ION     NA49252   1.380   9.178   5.806  0.1030  0.0116  0.0229
28973ION     NA49253  12.834  13.295  11.432  0.1494  0.0581 -0.0360
28974ION     NA49254  10.992   0.686   5.287 -0.0442  0.0010 -0.0072
28975ION     NA49255   6.104  14.796   5.955  0.1086  0.0502  0.2713
28976ION     NA49256   0.972   8.459   5.945 -0.4538 -0.1529 -0.0628
28977ION     NA49257  14.813   5.018  10.946 -0.0019  0.4950  0.1526
28978ION     NA49258   8.002  11.061   5.607  0.0569 -0.0148  0.0142
28979ION     NA49259  10.517  16.099   5.591 -0.0089  0.3857  0.0232
28980ION     NA49260   7.587   6.713   1.783  0.0017 -0.0598  0.3605
28981ION     NA49261  15.211  17.966   5.371  0.0085 -0.1472  0.0100
28982ION     NA49262  10.792   1.882  10.282 -0.1107  0.0409 -0.1649
28983ION     NA49263   1.040  15.511   5.341  0.2089  0.0910 -0.0304
28984ION     NA49264  10.644  12.042  11.163 -0.1693 -0.2154  0.1105
28985ION     NA49265   3.145   5.337   5.672 -0.0774 -0.2962  0.0189
28986ION     NA49266  16.769   9.331   0.565 -0.0992  0.1574  0.1349
28987ION     NA49267   3.484   6.854   5.890 -0.0364  0.0311  0.2599
28988ION     NA49268   7.279   9.061   5.805  0.1773  0.0834  0.2946
28989ION     NA49269   7.821  16.548   5.654  0.2107 -0.3235 -0.0687
28990ION     NA49270   6.573  16.791  15.010 -0.3584 -0.2803  0.1264
28991ION     NA49271   5.509  15.433   5.926  0.3283 -0.3565  0.1342
28992ION     NA49272   7.969   3.126  10.795 -0.1203 -0.0408  0.0082
28993ION     NA49273   7.318   1.144  10.974 -0.3001 -0.1534  0.1362
28994ION     NA49274  11.717   5.223  10.586  0.0880  0.2064 -0.0731
28995ION     NA49275  14.290  14.982   5.893 -0.0303 -0.3490 -0.0613
28996ION     NA49276  15.189   2.125  11.092  0.4246 -0.0463  0.2495
28997ION     NA49277  17.047   9.431   5.318  0.0316 -0.2081 -0.0693
28998ION     NA49278  13.695   3.065   5.532 -0.1400 -0.4057 -0.1506
28999ION     NA49279  11.432  15.572  11.089  0.1119 -0.1588 -0.1983
29000ION     NA49280  15.396   8.340  11.264  0.1108 -0.2271 -0.1902
29001ION     NA49281   6.682   4.405  11.284  0.0623 -0.1652  0.0121
29002ION     NA49282   2.894  16.670   5.454  0.0122  0.0587 -0.1286
29003ION     NA49283   2.002  11.936   6.222  0.1244  0.0254 -0.2411
29004ION     NA49284  16.396   2.315  16.487 -0.2410  0.2113  0.1514
29005ION     NA49285   2.150   4.092   1.299 -0.2984 -0.2044 -0.3339
29006ION     NA49286   4.887   7.898  11.421  0.2173 -0.1233 -0.3422
29007ION     NA49287  17.053   4.924  11.234  0.0673 -0.0098  0.2410
29008ION     NA49288   1.589  16.836   4.563 -0.0122  0.2637 -0.1224
29009ION     NA49289   8.751  11.284   5.558  0.1393  0.0526  0.1974
29010ION     NA49290   3.236  10.437   2.268  0.2929  0.1081 -0.0524
29011ION     NA49291   0.270  16.996   1.058 -0.1650 -0.1805 -0.0602
29012ION     NA49292   8.769   9.998   1.769  0.2231 -0.3125  0.0597
29013ION     NA49293  16.813  15.570  11.455 -0.1418 -0.0771 -0.1750
29014ION     NA49294   3.426  10.346  11.325 -0.1334  0.1442 -0.0444
29015ION     NA49295  15.042  13.940   6.000  0.1112 -0.2480  0.1812
29016ION     NA49296  15.169   0.174   2.283 -0.1116 -0.1214  0.2794
29017ION     NA49297   8.310   1.497   5.497 -0.1051 -0.2471 -0.0987
29018ION     NA49298   3.697   2.399  11.053  0.0285  0.0906 -0.0044
29019ION     NA49299   4.601  14.830   6.127 -0.0355  0.0831 -0.0156
29020ION     NA49300  11.849   5.872   2.532  0.1330 -0.0853 -0.1411
29021ION     NA49301  16.786   2.212  11.024  0.4233  0.3116  0.2214
29022ION     NA49302  10.543  12.290   5.767  0.3493 -0.0516  0.1137
29023ION     NA49303  16.436   6.777   5.480  0.0464  0.2137  0.2670
29024ION     NA49304  13.254   1.106   5.502  0.0197 -0.0606  0.0664
29025ION     NA49305   5.846   7.258  12.192  0.0871  0.0831  0.1214
29026ION     NA49306   8.059  13.478  15.112  0.0706 -0.1309  0.1633
29027ION     NA49307  16.656  15.613   5.824  0.1177 -0.0793 -0.1186
29028ION     NA49308   6.261   7.665  11.245  0.0648  0.0709 -0.0005
29029ION     NA49309   0.819  14.273  15.667 -0.0207 -0.0812  0.1020
29030ION     NA49310  11.087  10.691   5.497  0.2550  0.1323 -0.0718
29031ION     NA49311  15.110   5.742  15.628  0.0907 -0.0941 -0.2241
29032ION     NA49312  14.443   8.800   5.572 -0.3614  0.0164 -0.0118
29033ION     NA49313  11.456  16.963   4.265  0.2734 -0.2355  0.3312
29034ION     NA49314   4.376   9.533   3.213 -0.3429  0.3197 -0.0372
29035ION     NA49315  11.813   2.146   4.844  0.2917  0.4041 -0.0886
29036ION     NA49316   7.203  16.534  11.044 -0.2324 -0.1022 -0.0347
29037ION     NA49317   2.255   2.326  12.198 -0.0462  0.3305 -0.2409
29038ION     NA49318  11.446  14.881   5.543 -0.0595  0.0253 -0.2339
29039ION     NA49319  17.437   2.174   5.636  0.1877 -0.0372  0.1261
29040ION     NA49320   5.217  13.135   5.972  0.0863 -0.0373  0.0314
29041ION     NA49321   8.640  12.702   5.523  0.0516  0.4820 -0.0486
29042ION     NA49322  16.204  13.031  12.229 -0.1484  0.2250 -0.2618
29043ION     NA49323   0.488   1.263  10.961 -0.0163 -0.1896 -0.1160
29044ION     NA49324   2.072   8.934  11.411 -0.0250 -0.0868 -0.0978
29045ION     NA49325   1.936  14.063   5.576  0.1133  0.3196 -0.1005
29046ION     NA49326   8.257   9.067   2.553  0.0741  0.0375  0.2739
29047ION     NA49327   3.115   1.653  11.089 -0.2308  0.0373  0.3011
29048ION     NA49328   7.217   5.652  13.454 -0.1500 -0.2121 -0.2279
29049ION     NA49329   0.843   5.832   5.819  0.2134  0.2250  0.0018
29050ION     NA49330   9.325   1.336   5.628  0.0120  0.0402 -0.2972
29051ION     NA49331  16.969   5.967  11.211  0.0693  0.3627 -0.0895
29052ION     NA49332  17.501  13.033   5.698 -0.0498 -0.0538 -0.0357
29053ION     NA49333   0.292  11.169  11.110  0.0644  0.2075 -0.3797
29054ION     NA49334   1.407   8.488  11.648  0.1518  0.1028 -0.0705
29055ION     NA49335  14.346   8.482  13.506  0.1350 -0.1255 -0.1043
29056ION     NA49336  16.205   9.002   5.610 -0.1038 -0.0886 -0.2020
29057ION     NA49337   7.541   8.847  11.256  0.1597 -0.0367 -0.1657
29058ION     NA49338   5.159   9.413   1.045 -0.0685 -0.0787  0.0055
29059ION     NA49339  16.593  12.671  13.552  0.1878  0.2440 -0.3023
29060ION     NA49340   2.536   5.042  16.229 -0.1956 -0.0362  0.0106
29061ION     NA49341  15.312  14.357  15.180 -0.2800  0.1182  0.0266
29062ION     NA49342   1.394  13.689   3.534 -0.0055 -0.2233  0.0475
29063ION     NA49343  13.125   5.338   1.037 -0.0002  0.0170  0.1717
29064ION     NA49344   1.527   9.216  16.088  0.0345 -0.2166 -0.0053
29065ION     NA49345  17.953   6.047   5.853  0.0046  0.0469  0.3112
29066ION     NA49346   8.642   1.425  10.640  0.2988  0.0701  0.1822
29067ION     NA49347   1.572   4.717   5.814  0.0669  0.1140 -0.1892
29068ION     NA49348   7.293   4.311   5.440 -0.0607 -0.1358 -0.0458
29069ION     NA49349  11.235  16.980  13.937 -0.1011  0.0067  0.0883
29070ION     NA49350  13.099   0.358   5.483  0.3002  0.0909  0.4107
29071ION     NA49351   3.939  12.031   5.770  0.0396  0.0654 -0.1284
29072ION     NA49352  12.671   1.586   5.051  0.0066 -0.2250 -0.3702
29073ION     NA49353   8.012  15.161  11.167 -0.0922 -0.3617 -0.3027
29074ION     NA49354   2.910   4.480  15.773 -0.1247  0.1784 -0.1981
29075ION     NA49355   4.839  12.124   6.195  0.4067 -0.0246  0.1314
29076ION     NA49356  17.109  17.806   5.568  0.4981  0.2584  0.0081
29077ION     NA49357  15.023   0.917   5.514  0.1976 -0.3203 -0.2527
29078ION     NA49358   0.054  13.624  11.248  0.1156  0.2800 -0.1364
29079ION     NA49359   3.401   2.751   2.979 -0.0003  0.0275 -0.1370
29080ION     NA49360  15.727  13.578  11.350  0.0861  0.2388  0.0940
29081ION     NA49361   3.387   4.084  11.406 -0.3450  0.0989  0.2360
29082ION     NA49362  13.180   6.053  10.757 -0.3007  0.0810 -0.0547
29083ION     NA49363  17.444   0.439   5.235 -0.1283  0.0028  0.1156
29084ION     NA49364   8.963   7.162   5.603 -0.0896 -0.0457 -0.0633
29085ION     NA49365  10.383   2.965   5.597 -0.2967 -0.1759  0.0047
29086ION     NA49366  16.762  17.503  11.246 -0.1418 -0.4044  0.0454
29087ION     NA49367   0.008  17.804   5.649  0.1082  0.1800  0.2514
29088ION     NA49368   2.975   9.703  11.801  0.0909  0.1226  0.1084
29089ION     NA49369  17.973   9.937  11.122 -0.2837 -0.0466 -0.0380
29090ION     NA49370  14.751   9.092  11.456  0.4739  0.2297 -0.1452
29091ION     NA49371   7.331  13.416   5.704 -0.1073  0.2410 -0.0998
29092ION     NA49372   4.955  16.483   5.595 -0.1820 -0.0839  0.1398
29093ION     NA49373   1.346  11.351   6.160  0.1634 -0.0789  0.0739
29094ION     NA49374  14.523  14.929   2.502 -0.0078 -0.1736  0.2381
29095ION     NA49375  15.722  14.136  14.333 -0.1413 -0.1874  0.2229
29096ION     NA49376   5.720   9.253   5.476 -0.0386  0.0181 -0.3194
29097ION     NA49377  12.689   3.690  10.610  0.2099  0.0630  0.0519
29098ION     NA49378  12.264   1.757  10.729 -0.0009 -0.0978 -0.1866
29099ION     NA49379   8.359   7.480  15.833 -0.0053  0.3797  0.3747
29100ION     NA49380  14.369  12.473   5.760  0.4453 -0.0749 -0.0592
29101ION     NA49381   5.553  16.067  13.856  0.1340 -0.2847 -0.0633
29102ION     NA49382   8.466   7.949   5.678  0.1333  0.0042  0.1068
29103ION     NA49383  17.297   5.364   5.879 -0.0788 -0.0339 -0.2391
29104ION     NA49384   9.027   2.978  13.206  0.0895 -0.2474 -0.3794
29105ION     NA49385   4.878   3.893   5.457  0.1566  0.3542 -0.1146
29106ION     NA49386   2.578  17.053   5.407  0.1619 -0.0263 -0.1475
29107ION     NA49387  14.061  14.122   5.803 -0.2254 -0.0384  0.0928
29108ION     NA49388   7.815  11.351   1.926  0.2069  0.1424 -0.0358
29109ION     NA49389   3.363   7.533  15.663  0.0545 -0.0974 -0.1065
29110ION     NA49390  13.249  14.233  11.309 -0.1889  0.1735  0.3086
29111ION     NA49391  12.224  11.242  13.901  0.1767 -0.0433  0.0791
29112ION     NA49392   7.280   4.467  10.924  0.3206 -0.1069 -0.1979
29113ION     NA49393  11.251  17.463  11.165  0.0360  0.0135  0.1000
29114ION     NA49394   3.573  14.488   4.076 -0.0934  0.1028  0.0099
29115ION     NA49395  16.732   7.417  11.209 -0.1880  0.3014 -0.2735
29116ION     NA49396  10.876   9.056   5.438 -0.0381  0.1736 -0.2967
29117ION     NA49397  17.967   6.922   5.511  0.3381  0.0832  0.4492
29118ION     NA49398   0.118   5.029  11.288 -0.1049  0.1637  0.0575
29119ION     NA49399   9.543   7.522  11.795  0.1489 -0.0123 -0.0751
29120ION     NA49400   7.108   2.025  10.775  0.2271 -0.0029 -0.0814
29121ION     NA49401  11.405   2.108  11.555  0.0914  0.1325  0.1742
29122ION     NA49402   3.045   0.688   4.655 -0.1480  0.1105 -0.0490
29123ION     NA49403  13.163   5.636  13.307 -0.0153  0.1499 -0.0440
29124ION     NA49404   3.379   8.203   4.763  0.1044  0.2408 -0.0764
29125ION     NA49405  13.989   3.732  10.755  0.1038 -0.0790 -0.3858
29126ION     NA49406   6.268  11.003   5.882  0.2179  0.2064  0.2279
29127ION     NA49407   1.850   8.481   6.119 -0.1989 -0.1255  0.0245
29128ION     NA49408   9.509   5.854   5.408 -0.1361 -0.0315 -0.2501
29129ION     NA49409  17.104  13.566  11.164 -0.3120 -0.0752 -0.2836
29130ION     NA49410  16.539  10.799  11.360  0.0419  0.2232 -0.2780
29131ION     NA49411   9.190  17.603  11.414  0.0019  0.1815 -0.1752
29132ION     NA49412   6.248   1.716  16.164 -0.4407  0.0938  0.1783
29133ION     NA49413   8.323   2.355   5.251  0.0348  0.2552  0.2452
29134ION     NA49414  13.553   1.052  16.025  0.0810 -0.0696  0.0267
29135ION     NA49415  17.297   5.585  11.121 -0.0243  0.1943  0.0602
29136ION     NA49416  16.273   9.845  11.278 -0.2427 -0.4303  0.2614
29137ION     NA49417   5.310   3.570  11.229  0.0405 -0.0896  0.2286
29138ION     NA49418  16.559  15.673  13.703 -0.0113  0.1354 -0.0705
29139ION     NA49419   2.041   5.258   6.099 -0.4994  0.2131  0.3670
29140ION     NA49420  11.496   1.606   1.073 -0.0677  0.0223 -0.3522
29141ION     NA49421  11.667  10.219  11.116  0.1639  0.0941  0.1689
29142ION     NA49422   0.292  16.665  11.384 -0.1687  0.0362 -0.1643
29143ION     NA49423   1.505  13.130  11.437 -0.0306  0.1352 -0.3711
29144ION     NA49424   1.350  11.624  11.451  0.1432 -0.2401  0.0305
29145ION     NA49425   2.798  13.344  12.988 -0.0057  0.0256 -0.2374
29146ION     NA49426   5.658  14.162  11.229  0.3349 -0.0476 -0.3013
29147ION     NA49427  10.724  16.295  13.812 -0.2802 -0.2680  0.0443
29148ION     NA49428  15.750   4.394   5.437  0.2117 -0.1687 -0.0850
29149ION     NA49429  10.317   5.772   0.588  0.0197 -0.1293  0.1721
29150ION     NA49430   9.636   6.446  12.026 -0.0375  0.1081  0.1324
29151ION     NA49431  15.816  10.563  11.171  0.2327 -0.2169 -0.5616
29152ION     NA49432   1.147   4.118   5.800 -0.0733  0.3329 -0.0847
29153ION     NA49433  10.163  11.311  11.398  0.2208 -0.0170  0.1150
29154ION     NA49434  14.605   4.203   5.350  0.0949 -0.0533 -0.0351
29155ION     NA49435  17.300   1.247   3.616  0.2229  0.1611  0.1013
29156ION     NA49436   9.557  10.637  12.782 -0.1983 -0.0387 -0.2348
29157ION     NA49437   9.550  17.433   5.743 -0.1245  0.2719 -0.0279
29158ION     NA49438   4.284  13.349   0.643  0.1369 -0.1782  0.3600
29159ION     NA49439  11.818  15.092  11.914 -0.2860  0.3417 -0.1154
29160ION     NA49440  11.774  13.885   5.528 -0.2427  0.0623 -0.0590
29161ION     NA49441  10.998   7.468   5.182 -0.0900 -0.0149  0.0022
29162ION     NA49442   0.823  13.857  11.437 -0.0241  0.0496 -0.0670
29163ION     NA49443  15.810   5.093   4.926 -0.0638 -0.1076 -0.3154
29164ION     NA49444   4.161   0.632  11.099 -0.2597  0.1014  0.3795
29165ION     NA49445   6.283   2.646  10.944  0.0542  0.0287  0.0103
29166ION     NA49446  10.026   3.705  10.665  0.1952 -0.0827 -0.0803
29167ION     NA49447   7.573  13.645   4.340  0.1663  0.1796  0.0125
29168ION     NA49448   4.376   9.637   5.952 -0.2370  0.0432 -0.2213
29169ION     NA49449  10.606  10.293  11.168  0.1448 -0.0663 -0.0165
29170ION     NA49450  11.530   1.853   5.693 -0.1037 -0.0848  0.4099
29171ION     NA49451   2.638   5.646   3.505  0.0596  0.1446 -0.0327
29172ION     NA49452   8.379   5.463  12.398  0.2295  0.3677 -0.1309
29173ION     NA49453   5.809  16.244   5.543  0.0075 -0.2109 -0.2368
29174ION     NA49454  12.939   4.688  11.326  0.0489  0.1276  0.2466
29175ION     NA49455   0.607  13.819   5.890  0.2194 -0.2333  0.2433
29176ION     NA49456  10.012   5.300  14.364 -0.1257 -0.1076  0.0433
29177ION     NA49457   6.652   4.832   5.661  0.2582 -0.0607  0.2090
29178ION     NA49458  10.021   0.877   5.643 -0.0558  0.0182  0.1547
29179ION     NA49459   9.378   2.924  10.454  0.0626 -0.0828 -0.1255
29180ION     NA49460  12.529   3.291   5.590  0.0539 -0.2716 -0.2078
29181ION     NA49461   2.978   8.647   6.349 -0.3942  0.0541  0.0360
29182ION     NA49462   8.059   4.306   5.487 -0.0196 -0.3863  0.1627
29183ION     NA49463   8.024  12.350   4.647  0.0717 -0.3521  0.0728
29184ION     NA49464   9.908  10.547   5.561  0.0777 -0.0927  0.0619
29185ION     NA49465  15.325  11.503  13.328 -0.2405  0.0669  0.0388
29186ION     NA49466  12.985  15.650  11.101  0.0837  0.3055  0.1760
29187ION     NA49467   9.829   8.631  15.623  0.1282 -0.0055  0.3890
29188ION     NA49468   3.454   1.099  11.044 -0.0424 -0.1497 -0.3528
29189ION     NA49469   8.166  15.527   1.539  0.2187  0.1726  0.0962
29190ION     NA49470   8.034   5.760  11.123  0.3219 -0.1773 -0.2541
29191ION     NA49471  13.709   2.324  10.953  0.2670 -0.1635 -0.2881
29192ION     NA49472   3.258   1.118  15.180 -0.1415 -0.1881 -0.0454
29193ION     NA49473   5.208   2.344   5.632 -0.2453  0.2251 -0.0217
29194ION     NA49474   8.182   4.914   4.557  0.2764 -0.1412 -0.0690
29195ION     NA49475   9.337  14.465   2.463  0.1607  0.1824 -0.1642
29196ION     NA49476   2.254   0.016   5.586 -0.0647 -0.0889 -0.0245
29197ION     NA49477  17.201  14.750  12.474 -0.0953 -0.0591 -0.2413
29198ION     NA49478   7.628   7.252   5.525 -0.0658  0.1510 -0.2435
29199ION     NA49479  16.025  15.856  11.404  0.0055 -0.1223  0.3984
29200ION     NA49480   9.115  13.455   5.821  0.1281 -0.0511  0.1289
29201ION     NA49481   3.985   6.485  13.080 -0.1493 -0.4268  0.0564
29202ION     NA49482   2.584  12.574  11.134 -0.1339 -0.1469  0.0672
29203ION     NA49483  11.838  13.809  11.214  0.1760 -0.0211 -0.2546
29204ION     NA49484   3.116   2.446  11.210  0.3455  0.1699  0.0780
29205ION     NA49485   9.341   4.602  13.679 -0.0259 -0.0939  0.3060
29206ION     NA49486  12.390  10.641   2.159  0.3077  0.4216 -0.0195
29207ION     NA49487   2.142   3.951  11.417  0.1213  0.1555 -0.1447
29208ION     NA49488  15.410   4.482  11.200 -0.1179 -0.1441 -0.2956
29209ION     NA49489   0.636  15.466  11.206  0.0349 -0.4055 -0.0505
29210ION     NA49490  15.049   2.513   5.488  0.2841  0.0650  0.1127
29211ION     NA49491   3.243   0.695  11.239 -0.2459 -0.2791 -0.2121
29212ION     NA49492   6.213  13.619  11.274  0.0185  0.3053  0.1820
29213ION     NA49493   9.825   8.914   5.446  0.0849 -0.0710  0.0107
29214ION     NA49494   7.953  15.975  11.288  0.1309 -0.2368 -0.1439
29215ION     NA49495  11.419  13.542  11.126 -0.1145  0.0369  0.1987
29216ION     NA49496   7.853  12.663   5.794 -0.0099  0.0426 -0.0505
29217ION     NA49497  17.797   9.687  15.217 -0.0100  0.1727 -0.1347
29218ION     NA49498   7.667  14.493  15.025  0.1135  0.0848  0.1578
29219ION     NA49499  13.580   8.209   3.708  0.1509  0.0332  0.0196
29220ION     NA49500   6.784  17.609  11.050  0.0052 -0.2569  0.1125
29221ION     NA49501   4.456  11.079  11.269  0.0734  0.0419  0.0219
29222ION     NA49502   4.445   0.869   1.771  0.2942 -0.1742 -0.1642
29223ION     NA49503  13.390   9.362  13.845  0.0411 -0.1337 -0.1562
29224ION     NA49504   7.659   7.912  11.428 -0.3194  0.0824 -0.0197
29225ION     NA49505  10.735  15.268   5.714  0.0863  0.4497 -0.0184
29226ION     NA49506  16.053   2.309  11.327  0.1647 -0.0345 -0.0935
29227ION     NA49507   7.612  14.262   5.762 -0.2663 -0.1912 -0.2224
29228ION     NA49508  12.553  14.096   5.597  0.3042 -0.3266  0.0022
29229ION     NA49509   3.708   9.685  11.217  0.5014 -0.0526  0.3528
29230ION     NA49510  13.493   7.593   5.589  0.1760  0.3130 -0.0253
29231ION     NA49511   7.425   0.908  14.911  0.1955  0.0902 -0.2203
29232ION     NA49512   4.131  11.308   6.076  0.0516 -0.1292  0.0237
29233ION     NA49513  13.238   0.350  10.914 -0.1281  0.3257 -0.2380
29234ION     NA49514  16.096  12.118  12.081 -0.1305  0.0125 -0.0988
29235ION     NA49515   6.488  13.895  16.107  0.2229 -0.0946 -0.2121
29236ION     NA49516  11.761   0.583  10.748  0.1422  0.0937  0.0761
29237ION     NA49517  15.470  14.840  16.410 -0.1267  0.0091 -0.3369
29238ION     NA49518   0.459  10.868   5.819 -0.1175  0.2665 -0.0455
29239ION     NA49519   6.580   2.280   3.482  0.1976  0.1613  0.0624
29240ION     NA49520   8.748   2.112   4.325 -0.1153  0.0453 -0.1034
29241ION     NA49521   1.248  12.325   6.023  0.0465 -0.3358  0.1635
29242ION     NA49522   5.855  15.322  11.320  0.0107 -0.0078 -0.1274
29243ION     NA49523  13.470  17.567   5.654  0.0486  0.0817  0.1415
29244ION     NA49524  12.968  11.131  11.958 -0.0601  0.0453  0.2132
29245ION     NA49525   1.868  16.507   5.306 -0.0558 -0.0547  0.1937
29246ION     NA49526   6.672   6.825  11.227 -0.0798 -0.3645  0.1378
29247ION     NA49527   5.576  10.616  11.668 -0.1884  0.2460  0.1234
29248ION     NA49528  13.079   3.952   3.323  0.0864  0.0908  0.1010
29249ION     NA49529   5.184   1.160   3.389  0.0353  0.0221 -0.1135
29250ION     NA49530  13.630  13.743  11.504  0.1323 -0.3222  0.0215
29251ION     NA49531  17.763   2.018  14.340 -0.0988  0.0348 -0.2150
29252ION     NA49532   7.068   2.138  11.248  0.1019  0.1618  0.2527
29253ION     NA49533   5.783  13.797   5.715 -0.2048 -0.0714 -0.1117
29254ION     NA49534   8.663   7.215   3.049 -0.2103 -0.0830 -0.2735
29255ION     NA49535   0.120   9.828   4.245  0.0144 -0.1743 -0.1420
29256ION     NA49536  12.480   0.903  10.929  0.2513 -0.0440 -0.0198
29257ION     NA49537  15.433   8.998   5.051  0.1819  0.2506 -0.0246
29258ION     NA49538   9.421  12.237  11.630  0.1990  0.0995 -0.2013
29259ION     NA49539  17.799  12.780  11.176  0.1028 -0.2784 -0.2585
29260ION     NA49540  11.898  11.779   5.502 -0.1057 -0.1723 -0.1086
29261ION     NA49541   5.228   7.145  11.340 -0.0783 -0.1734  0.1959
29262ION     NA49542   8.956  11.055   0.103  0.0063 -0.0788  0.1219
29263ION     NA49543  14.277  12.579   4.905  0.2538  0.0574  0.1764
29264ION     NA49544   9.603  14.427   5.597 -0.0060 -0.0367  0.1626
29265ION     NA49545   5.864   0.962  11.259 -0.1843 -0.0199  0.1022
29266ION     NA49546   7.693   2.654  10.901  0.1977 -0.2268 -0.4041
29267ION     NA49547  17.562  15.525   5.366 -0.0534  0.1639  0.0544
29268ION     NA49548   0.506  16.682   5.282 -0.2075  0.1073 -0.1671
29269ION     NA49549   1.752  14.267   5.066 -0.1208  0.0482 -0.1572
29270ION     NA49550   4.115  17.541   3.720  0.0571  0.0178 -0.2424
29271ION     NA49551   9.966   7.917  14.379 -0.0545  0.3148 -0.3087
29272ION     NA49552   2.845  11.463   5.935 -0.1278  0.0004 -0.2128
29273ION     NA49553   9.268   3.760   5.600 -0.1516 -0.1860 -0.0798
29274ION     NA49554   8.609   6.337   5.472  0.1455  0.1116  0.2952
29275ION     NA49555   0.609   1.477   5.617 -0.2010 -0.1300  0.0209
29276ION     NA49556   2.726  16.222   5.530  0.1357 -0.0120  0.0196
29277ION     NA49557   8.928  16.301  15.685 -0.2168  0.5048 -0.2360
29278ION     NA49558   2.878  11.172   1.088  0.2325 -0.0129 -0.3196
29279ION     NA49559  14.564  15.203  11.460 -0.1758 -0.1554  0.0420
29280ION     NA49560   3.452   9.965   6.062  0.1436  0.1531 -0.0707
29281ION     NA49561   4.706   8.730   5.812  0.1614  0.2364  0.0503
29282ION     NA49562   5.107   6.932  15.244 -0.2212  0.1321  0.0893
29283ION     NA49563   3.877   8.283   6.104  0.2757 -0.0745  0.0462
29284ION     NA49564   6.248   4.510   3.550 -0.2595 -0.0125  0.1492
29285ION     NA49565   7.694   8.700  14.810 -0.0528  0.0545 -0.0395
29286ION     NA49566   9.756  10.001  11.418 -0.1153  0.0589 -0.0752
29287ION     NA49567  10.692   6.050  10.805  0.0903 -0.1360  0.1753
29288ION     NA49568  11.713   9.263   1.006 -0.0557 -0.3774 -0.2068
29289ION     NA49569   3.668   9.732   4.588  0.2406  0.0614  0.3970
29290ION     NA49570   7.755  16.458  11.086  0.0329 -0.1906 -0.0330
29291ION     NA49571  17.421  10.734  11.216  0.3020 -0.3177  0.0702
29292ION     NA49572  12.425   8.891  11.377  0.0229 -0.1500 -0.2701
29293ION     NA49573  14.397  16.133   5.441 -0.1029  0.3399 -0.2675
29294ION     NA49574   5.466   8.410   5.672  0.1365 -0.0427  0.2428
29295ION     NA49575   6.913   5.727   5.582  0.2001  0.0073 -0.0421
29296ION     NA49576   6.864  13.264  11.192  0.1171  0.1950  0.2981
29297ION     NA49577  14.771   8.824  12.693 -0.2797  0.3385 -0.0368
29298ION     NA49578  16.608  13.318   5.562 -0.0029 -0.2796 -0.0178
29299ION     NA49579   7.527  17.967  14.724 -0.0357 -0.0658  0.1588
29300ION     NA49580  11.388  10.733  11.288  0.0032  0.2394  0.0704
29301ION     NA49581  10.099  15.390   0.968 -0.2332  0.1097 -0.2348
29302ION     NA49582   3.116   7.183  12.024  0.1145 -0.5498 -0.2577
29303ION     NA49583  16.210  12.356   5.587 -0.0701  0.0869 -0.1706
29304ION     NA49584  11.134  13.112   5.684  0.0075  0.1441  0.2586
29305ION     NA49585  11.992  10.474   5.320 -0.4799  0.1778 -0.3240
29306ION     NA49586  13.328   9.837   1.167  0.0380  0.1229 -0.1095
29307ION     NA49587   4.673   3.502  13.960 -0.3258  0.0589  0.0084
29308ION     NA49588  12.427  10.704  11.223 -0.2207  0.1645  0.1240
29309ION     NA49589  12.787   9.819  11.767 -0.0658  0.1797  0.4228
29310ION     NA49590   0.858   0.367  10.975 -0.2217 -0.1224 -0.0708
29311ION     NA49591  13.546   4.291  10.740 -0.1356 -0.0300  0.0732
29312ION     NA49592  13.532   1.834   5.536  0.1397  0.1126 -0.0275
29313ION     NA49593  17.126   9.958  11.296  0.1225 -0.1163  0.5028
29314ION     NA49594  14.294   5.107   4.282 -0.0126  0.1001  0.1867
29315ION     NA49595  15.999  10.726  11.629  0.2279  0.1403  0.0834
29316ION     NA49596  12.283   0.043   0.937 -0.0370  0.0630 -0.0599
29317ION     NA49597   6.784   9.814  11.113 -0.1462 -0.1254 -0.0041
29318ION     NA49598   3.748  14.711  15.720 -0.1137 -0.0514 -0.1833
29319ION     NA49599   0.874  17.009   1.848  0.3414 -0.0810  0.0420
29320ION     NA49600   3.067   0.383   5.632 -0.0376 -0.0366  0.1956
29321ION     NA49601   2.975   6.934   6.083 -0.2475 -0.1638 -0.3957
29322ION     NA49602   5.404  15.930  11.060 -0.1889 -0.3561  0.2188
29323ION     NA49603  10.977   1.113  10.697  0.2692 -0.1595  0.1396
29324ION     NA49604   7.898  13.957  11.371 -0.0613  0.0493 -0.0304
29325ION     NA49605   8.449  11.270  13.381 -0.1052  0.0069  0.0661
29326ION     NA49606  13.071   2.509   5.212  0.1199  0.0655 -0.2175
29327ION     NA49607  10.186  12.715  11.153 -0.2868 -0.1611 -0.1349
29328ION     NA49608   4.975   0.015   5.610  0.1928  0.2583 -0.1598
29329ION     NA49609   1.969  10.324   1.206 -0.1749  0.0469  0.2912
29330ION     NA49610  16.361  11.795  11.333  0.2762  0.1489  0.1721
29331ION     NA49611  15.336  16.236   5.596  0.2373  0.1951  0.3411
29332ION     NA49612  14.670   6.977  13.392  0.1833  0.0301 -0.0651
29333ION     NA49613   9.518   5.820  13.175  0.1374 -0.0424  0.1541
29334ION     NA49614  15.712  16.485   3.679  0.0502 -0.0347 -0.1593
29335ION     NA49615  12.049   0.121   3.681 -0.1583 -0.2010  0.3207
29336ION     NA49616  13.812   0.769  11.443 -0.1459 -0.2395 -0.2771
29337ION     NA49617  13.833  16.557  14.881 -0.0280  0.3703  0.0602
29338ION     NA49618   9.160  16.262   3.884 -0.0595 -0.0972 -0.1567
29339ION     NA49619  17.646   0.877  11.070  0.1826  0.0073  0.1309
29340ION     NA49620   6.398   5.112   0.292  0.0910  0.1499 -0.0477
29341ION     NA49621   3.551  11.184  11.643  0.0209 -0.1857  0.1021
29342ION     NA49622   8.801   5.737  10.624  0.0198 -0.1777 -0.0806
29343ION     NA49623   6.477  12.105   5.743  0.1656 -0.1026 -0.0691
29344ION     NA49624  11.367   0.985   5.882  0.1029  0.1274 -0.1134
29345ION     NA49625   2.180  15.851  11.368  0.4574 -0.0682  0.2807
29346ION     NA49626  10.441   3.316   5.239 -0.0563 -0.2079 -0.0742
29347ION     NA49627   0.754   9.771   5.818 -0.0355 -0.3351  0.0368
29348ION     NA49628  11.664   8.132   0.144  0.2147  0.0069 -0.0290
29349ION     NA49629   9.180  12.100   5.561  0.1112  0.0391  0.0006
29350ION     NA49630   0.399   3.624   5.455 -0.1184  0.2564 -0.1561
29351ION     NA49631  11.581   7.230  14.948  0.1207 -0.1912 -0.0051
29352ION     NA49632  14.907   4.271   1.938  0.0156 -0.2516  0.3571
29353ION     NA49633   2.208   8.673  16.629 -0.1604 -0.0624 -0.2859
29354ION     NA49634  15.120   7.346  11.148 -0.2242  0.0449 -0.3430
29355ION     NA49635  15.592  14.692   5.757 -0.0164 -0.0110 -0.1862
29356ION     NA49636  12.371   4.719   4.126  0.0977  0.0965 -0.0051
29357ION     NA49637  14.098   9.777  11.258 -0.4874 -0.1004 -0.4362
29358ION     NA49638   6.673  17.963   5.518  0.2548 -0.0130  0.1265
29359ION     NA49639  11.996   8.063   2.667 -0.0159 -0.1535  0.3032
29360ION     NA49640  16.684   3.122  10.980  0.2426  0.0612  0.1100
29361ION     NA49641   7.550   7.501  15.184  0.1801 -0.1997 -0.0547
29362ION     NA49642   3.373   8.946   2.407  0.0484  0.3661 -0.4730
29363ION     NA49643   0.733  15.956  11.120  0.0334  0.2797 -0.2289
29364ION     NA49644  14.977   3.171  10.875 -0.2414  0.3780  0.0276
29365ION     NA49645  13.653  10.120   2.175  0.3371  0.2028  0.3109
29366ION     NA49646   4.965  12.060   2.136 -0.2139  0.5592  0.2412
29367ION     NA49647  10.364  14.368   5.843  0.0536  0.0905 -0.1297
29368ION     NA49648  12.637   9.238  15.896 -0.0219  0.0646  0.1440
29369ION     NA49649   3.432  12.168   5.925 -0.1320 -0.0932 -0.2243
29370ION     NA49650  13.759  15.765   3.010 -0.0362 -0.2691 -0.0560
29371ION     NA49651  15.239  12.886  11.357 -0.0005 -0.0380 -0.3191
29372ION     NA49652   6.092  11.006  11.164  0.2189 -0.1707  0.4601
29373ION     NA49653   6.973  17.567  12.794 -0.2175 -0.0479 -0.0849
29374ION     NA49654   6.769  11.612  11.117  0.1178  0.1173  0.0782
29375ION     NA49655   8.672  12.847  12.976  0.2993  0.1043  0.0975
29376ION     NA49656   7.243  12.262   5.743  0.0845  0.0116  0.3627
29377ION     NA49657   5.306  13.395  11.155 -0.1974 -0.0198 -0.2278
29378ION     NA49658  16.971  14.184   1.987 -0.1923  0.1015 -0.0491
29379ION     NA49659  10.401   7.658  16.225  0.1302 -0.2772  0.0453
29380ION     NA49660  13.650  16.744   5.309 -0.1412  0.2226 -0.2471
29381ION     NA49661  15.603  10.410   3.396  0.0442 -0.2098  0.5731
29382ION     NA49662   0.783  17.596  11.316  0.2244  0.1007  0.0484
29383ION     NA49663  10.073  16.134  11.153  0.0173  0.1596 -0.1934
29384ION     NA49664   0.811   5.157   1.252 -0.1599 -0.1271  0.5074
29385ION     NA49665  13.727  12.992  11.359  0.1900  0.4578  0.1075
29386ION     NA49666  11.764   8.654   5.699 -0.0920 -0.2080  0.0367
29387ION     NA49667  11.271  14.543  11.389  0.4349  0.0639  0.1321
29388ION     NA49668   5.226  11.028  11.072 -0.0685 -0.0577 -0.1470
29389ION     NA49669  15.761   1.317  11.043 -0.0970 -0.0311  0.3826
29390ION     NA49670  17.342  14.859  11.465  0.1803 -0.0200 -0.0768
29391ION     NA49671   6.732  16.637   1.145 -0.1044  0.2578 -0.0062
29392ION     NA49672   8.334   0.573   5.708  0.2018  0.0014 -0.0850
29393ION     NA49673   5.941  17.498  10.931  0.0519  0.1224  0.2160
29394ION     NA49674   2.716  10.803  11.325  0.1226  0.1685  0.0249
29395ION     NA49675  14.436  11.660  10.955 -0.1932  0.1411  0.3465
  17.99216  17.99216  16.69700
