INSANE! Membrane UpperLeaflet>loPI=1 LowerLeaflet>loPI=1
49675
    1loPI    C1    1   4.158   9.038  11.759  0.1011 -0.0503 -0.1712
    1loPI    C2    2   3.994   8.698  11.627  0.0817 -0.1483  0.0992
    1loPI    C3    3   4.237   8.693  11.945  0.1031  0.0874  0.0885
    1loPI   PO4    4   4.270   9.076  11.570  0.1021 -0.0178 -0.0101
    1loPI   GL1    5   4.341   9.260  11.169  0.2262  0.0813  0.2960
    1loPI   GL2    6   4.077   9.320  11.079  0.2034 -0.0504 -0.0661
    1loPI   C1A    7   4.485   9.022  10.906  0.0654 -0.0144 -0.0775
    1loPI   C2A    8   4.546   8.959  10.501 -0.2459 -0.4161  0.3800
    1loPI   C3A    9   4.541   9.024  10.030  0.2097 -0.0870  0.2899
    1loPI   C4A   10   4.534   8.889   9.572  0.0017 -0.0334 -0.0736
    1loPI   C5A   11   4.450   8.790   9.165  0.2919 -0.5128 -0.0762
    1loPI   C6A   12   4.306   8.387   9.055  0.0767  0.0839 -0.1820
    1loPI   C1B   13   3.993   9.023  10.732 -0.0782  0.0724  0.0087
    1loPI   C2B   14   4.068   8.995  10.250  0.2849 -0.1592 -0.4357
    1loPI   C3B   15   4.074   9.007   9.792  0.0538  0.2426 -0.1704
    1loPI   C4B   16   4.008   8.973   9.345 -0.0869 -0.1249  0.0306
    2loPI    C1   17  14.728  11.973  11.471  0.0423 -0.1061 -0.0360
    2loPI    C2   18  14.436  12.207  11.611 -0.0156 -0.0313 -0.2771
    2loPI    C3   19  14.463  11.827  11.733 -0.2120 -0.0383 -0.2518
    2loPI   PO4   20  14.726  11.981  11.237 -0.0856 -0.0499  0.0976
    2loPI   GL1   21  14.490  11.865  10.854 -0.4303 -0.1170 -0.2529
    2loPI   GL2   22  14.777  11.714  10.850 -0.5411 -0.0651 -0.2906
    2loPI   C1A   23  14.438  11.780  10.403 -0.1953 -0.0253  0.0222
    2loPI   C2A   24  14.470  11.770   9.912 -0.3547 -0.0736  0.0905
    2loPI   C3A   25  14.420  11.701   9.459 -0.0085 -0.0703  0.2684
    2loPI   C4A   26  14.392  11.549   9.097  0.1176 -0.3995  0.0168
    2loPI   C5A   27  14.120  11.374   8.761  0.0279 -0.1346 -0.1916
    2loPI   C6A   28  13.701  11.409   8.890 -0.1635 -0.1780  0.1989
    2loPI   C1B   29  14.930  11.778  10.451  0.0586 -0.2999  0.2919
    2loPI   C2B   30  14.960  11.744   9.980 -0.0900  0.0991 -0.1093
    2loPI   C3B   31  14.962  11.685   9.516  0.1051  0.1709  0.0702
    2loPI   C4B   32  15.012  11.682   9.108  0.2025  0.1500  0.1545
    3loPI    C1   33   2.719   5.833  11.630  0.1340 -0.0974 -0.1640
    3loPI    C2   34   2.921   5.635  11.913 -0.0109 -0.0056  0.0059
    3loPI    C3   35   2.540   5.540  11.836  0.0941 -0.1826 -0.3178
    3loPI   PO4   36   2.823   5.783  11.346 -0.1795 -0.0239  0.2845
    3loPI   GL1   37   2.821   5.670  10.902  0.2473 -0.2888  0.2746
    3loPI   GL2   38   2.559   5.793  10.841  0.0841 -0.0557  0.0113
    3loPI   C1A   39   2.924   5.599  10.477 -0.1851  0.2218  0.0976
    3loPI   C2A   40   3.035   5.576  10.144  0.0821  0.0611 -0.2030
    3loPI   C3A   41   3.043   5.505   9.669  0.1075  0.1292  0.0445
    3loPI   C4A   42   2.989   5.632   9.312 -0.1466  0.0358 -0.0260
    3loPI   C5A   43   3.131   5.518   8.989  0.2458  0.1562  0.1758
    3loPI   C6A   44   3.585   5.479   8.876 -0.0679 -0.0031 -0.1458
    3loPI   C1B   45   2.413   5.664  10.429  0.0718 -0.0743  0.3263
    3loPI   C2B   46   2.552   5.598  10.005  0.1434  0.1387  0.2720
    3loPI   C3B   47   2.537   5.673   9.533 -0.0265 -0.1579  0.2873
    3loPI   C4B   48   2.512   5.668   9.082  0.0128 -0.0562  0.1900
    4loPI    C1   49  16.700   2.840  11.797 -0.1187 -0.2770  0.1671
    4loPI    C2   50  16.374   3.047  11.901 -0.0227 -0.0478  0.0208
    4loPI    C3   51  16.735   3.167  12.024  0.0560  0.0083 -0.2577
    4loPI   PO4   52  16.707   2.812  11.558 -0.1406  0.0981  0.2024
    4loPI   GL1   53  16.673   2.748  11.134 -0.1291 -0.3022  0.0389
    4loPI   GL2   54  16.551   2.833  10.863  0.3104 -0.1082 -0.1418
    4loPI   C1A   55  16.757   2.441  10.746  0.0638  0.0414  0.0688
    4loPI   C2A   56  16.833   2.387  10.342 -0.1222 -0.0282 -0.0323
    4loPI   C3A   57  16.884   2.399   9.880  0.3696  0.1504 -0.2976
    4loPI   C4A   58  16.843   2.371   9.418 -0.1402 -0.1176  0.0475
    4loPI   C5A   59  16.837   2.231   8.985  0.0085  0.0136  0.0421
    4loPI   C6A   60  16.745   1.956   8.648 -0.2709  0.2691  0.2381
    4loPI   C1B   61  16.591   2.917  10.488 -0.0334  0.0492  0.3735
    4loPI   C2B   62  16.631   2.899  10.097  0.1944 -0.4027  0.0123
    4loPI   C3B   63  16.690   2.821   9.657  0.2177  0.1601  0.1136
    4loPI   C4B   64  16.604   2.796   9.228 -0.2376 -0.3414 -0.3268
    5loPI    C1   65   3.992   0.382  11.634 -0.0574 -0.1774 -0.0606
    5loPI    C2   66   3.761   0.112  11.451 -0.2666 -0.0696  0.0405
    5loPI    C3   67   3.663   0.245  11.815  0.0588 -0.1623  0.1657
    5loPI   PO4   68   4.042   0.577  11.422 -0.0285 -0.0650 -0.3401
    5loPI   GL1   69   4.152   0.580  11.030 -0.0420  0.0857 -0.1658
    5loPI   GL2   70   4.436   0.720  11.006 -0.2129  0.0550  0.1068
    5loPI   C1A   71   3.994   0.755  10.636  0.0594  0.2462 -0.6242
    5loPI   C2A   72   3.968   0.747  10.163  0.0129 -0.0094  0.1595
    5loPI   C3A   73   3.957   0.846   9.713 -0.1010 -0.0491  0.1671
    5loPI   C4A   74   3.949   0.935   9.375  0.3406  0.0375 -0.0329
    5loPI   C5A   75   4.030   0.933   8.889 -0.0169  0.0793 -0.0141
    5loPI   C6A   76   4.428   1.035   8.621  0.0723  0.0493 -0.0337
    5loPI   C1B   77   4.498   0.707  10.484  0.2388  0.2098 -0.1882
    5loPI   C2B   78   4.467   0.801  10.064  0.0700 -0.0365  0.2922
    5loPI   C3B   79   4.430   0.844   9.631  0.0590  0.1838 -0.1663
    5loPI   C4B   80   4.477   0.867   9.194 -0.2117 -0.1794 -0.2083
    6loPI    C1   81  17.041  13.625  11.414 -0.0132  0.1669 -0.0191
    6loPI    C2   82  16.965  13.580  11.803  0.1364  0.0146 -0.0064
    6loPI    C3   83  16.665  13.569  11.538  0.0203  0.2333  0.1131
    6loPI   PO4   84  17.255  13.830  11.448 -0.3098  0.0664 -0.1411
    6loPI   GL1   85  17.474  13.883  11.090 -0.2121 -0.0847  0.0680
    6loPI   GL2   86  17.817  14.062  11.049  0.2489 -0.0771  0.0223
    6loPI   C1A   87  17.473  13.740  10.597  0.1050  0.1115 -0.1613
    6loPI   C2A   88  17.520  13.701  10.164 -0.1535 -0.0316  0.0688
    6loPI   C3A   89  17.522  13.639   9.732 -0.3814 -0.0719 -0.0325
    6loPI   C4A   90  17.501  13.650   9.274  0.2377  0.0919 -0.1478
    6loPI   C5A   91  17.514  13.672   8.868 -0.1092 -0.0310 -0.2548
    6loPI   C6A   92  17.489  13.589   8.442  0.1134 -0.1176 -0.1214
    6loPI   C1B   93  17.692  14.204  10.718  0.0156  0.1114 -0.2339
    6loPI   C2B   94  17.741  14.133  10.327 -0.1459  0.0437  0.1065
    6loPI   C3B   95  17.740  14.099   9.898 -0.3517 -0.0611 -0.1305
    6loPI   C4B   96  17.818  14.107   9.450 -0.1716 -0.0497 -0.1025
    7loPI    C1   97   7.082   3.426  11.436 -0.0279 -0.1004 -0.1102
    7loPI    C2   98   7.081   3.033  11.510 -0.1427 -0.1028 -0.1227
    7loPI    C3   99   7.156   3.292  11.805 -0.4861 -0.1171 -0.0194
    7loPI   PO4  100   7.029   3.519  11.326  0.3853 -0.2586  0.0256
    7loPI   GL1  101   6.821   3.518  10.988  0.0545  0.1588 -0.2189
    7loPI   GL2  102   7.124   3.649  10.846  0.0208  0.1955 -0.0693
    7loPI   C1A  103   6.649   3.629  10.647  0.1528  0.1997 -0.2882
    7loPI   C2A  104   6.657   3.608  10.218 -0.0682 -0.3218  0.0520
    7loPI   C3A  105   6.660   3.675   9.750  0.0075 -0.1833 -0.2060
    7loPI   C4A  106   6.577   3.622   9.353  0.3062  0.0905  0.2399
    7loPI   C5A  107   6.707   3.556   8.880 -0.4573  0.4719 -0.0144
    7loPI   C6A  108   6.693   3.406   8.454  0.0160  0.0208  0.0268
    7loPI   C1B  109   7.208   3.537  10.424 -0.0967  0.3134 -0.1781
    7loPI   C2B  110   7.232   3.567   9.943  0.1832  0.0942  0.0458
    7loPI   C3B  111   7.073   3.515   9.548  0.1204  0.2190  0.0761
    7loPI   C4B  112   7.160   3.618   9.178 -0.3013 -0.0854 -0.0453
    8loPI    C1  113  17.511   8.494  11.854  0.0268 -0.0442  0.1656
    8loPI    C2  114  17.205   8.514  12.110  0.0073 -0.1781  0.1535
    8loPI    C3  115  17.545   8.335  12.219 -0.0474 -0.3530  0.0408
    8loPI   PO4  116  17.400   8.471  11.534 -0.1750  0.2837 -0.0354
    8loPI   GL1  117  17.470   8.669  11.126  0.0285  0.0313  0.1571
    8loPI   GL2  118  17.149   8.678  11.124 -0.1584  0.3079 -0.0665
    8loPI   C1A  119  17.560   8.693  10.679 -0.1560  0.1895 -0.1483
    8loPI   C2A  120  17.585   8.752  10.202  0.3389  0.1153  0.0668
    8loPI   C3A  121  17.648   8.629   9.789  0.0274 -0.1477 -0.2627
    8loPI   C4A  122  17.677   8.637   9.325 -0.0079 -0.3002  0.0597
    8loPI   C5A  123  17.736   8.805   8.868 -0.2143 -0.2628 -0.1817
    8loPI   C6A  124  18.001   8.975   8.647 -0.1482  0.1237  0.2694
    8loPI   C1B  125  17.008   8.625  10.763  0.1064 -0.3945  0.1571
    8loPI   C2B  126  17.064   8.695  10.329 -0.3852 -0.0704 -0.0170
    8loPI   C3B  127  17.156   8.767   9.895 -0.1151 -0.3559  0.2919
    8loPI   C4B  128  17.212   8.779   9.498 -0.0738  0.0172 -0.2942
    9loPI    C1  129  13.775   8.831  11.580 -0.1181  0.1775  0.0040
    9loPI    C2  130  13.684   8.651  11.925 -0.0136 -0.1876 -0.1545
    9loPI    C3  131  13.844   9.018  11.927 -0.4729  0.0210  0.1634
    9loPI   PO4  132  13.537   8.594  11.420 -0.1859  0.2474  0.2234
    9loPI   GL1  133  13.569   8.501  10.955 -0.2526 -0.1164  0.1286
    9loPI   GL2  134  13.523   8.182  10.823 -0.0724  0.0794  0.1822
    9loPI   C1A  135  13.804   8.690  10.471 -0.1409 -0.3026 -0.0719
    9loPI   C2A  136  13.741   8.716   9.959 -0.2942 -0.1627 -0.0056
    9loPI   C3A  137  13.762   8.661   9.598 -0.0510  0.3297  0.0983
    9loPI   C4A  138  13.675   8.642   9.147  0.1627  0.0724 -0.2850
    9loPI   C5A  139  14.022   8.820   8.821  0.1549  0.0873 -0.1452
    9loPI   C6A  140  14.133   8.755   8.432  0.1671  0.4876 -0.1549
    9loPI   C1B  141  13.430   8.351  10.479 -0.1470  0.2422  0.2577
    9loPI   C2B  142  13.423   8.377  10.031  0.0690 -0.0218  0.2323
    9loPI   C3B  143  13.412   8.241   9.555  0.1453 -0.1010  0.1184
    9loPI   C4B  144  13.474   8.203   9.108 -0.0564 -0.0291 -0.0751
   10loPI    C1  145   6.022   1.266  11.729  0.0838 -0.0126 -0.2359
   10loPI    C2  146   6.158   0.945  11.924 -0.0345  0.0011 -0.1296
   10loPI    C3  147   6.259   1.311  12.048 -0.0607  0.0086 -0.1304
   10loPI   PO4  148   6.055   1.210  11.465  0.0993  0.2869 -0.0665
   10loPI   GL1  149   6.105   1.000  10.987 -0.1519  0.0001  0.2356
   10loPI   GL2  150   5.833   1.010  10.879 -0.0796  0.1296  0.0982
   10loPI   C1A  151   6.270   1.007  10.544 -0.2432  0.0456  0.1984
   10loPI   C2A  152   6.315   0.974  10.106  0.2447 -0.1167 -0.3718
   10loPI   C3A  153   6.310   1.029   9.725 -0.2109 -0.0311 -0.1104
   10loPI   C4A  154   6.280   0.984   9.226 -0.3295 -0.5615 -0.0423
   10loPI   C5A  155   6.746   0.993   9.001 -0.3123 -0.1026 -0.0147
   10loPI   C6A  156   6.835   1.173   8.670  0.0344 -0.0793 -0.1570
   10loPI   C1B  157   5.822   1.088  10.417  0.0213 -0.0047  0.2521
   10loPI   C2B  158   5.871   1.053   9.986 -0.0874 -0.0190  0.1231
   10loPI   C3B  159   5.850   1.011   9.535  0.3360  0.1620  0.2957
   10loPI   C4B  160   5.761   1.092   9.100 -0.0617  0.0081  0.0140
   11loPI    C1  161  12.236   2.053  11.332 -0.0098 -0.0504 -0.1300
   11loPI    C2  162  12.133   2.011  11.717  0.0900 -0.1753 -0.1161
   11loPI    C3  163  12.152   2.376  11.553  0.0059 -0.1248 -0.0145
   11loPI   PO4  164  12.113   1.785  11.204 -0.0561  0.2039 -0.2931
   11loPI   GL1  165  12.141   1.526  10.871 -0.0009  0.0271 -0.0296
   11loPI   GL2  166  11.910   1.715  10.690  0.1820 -0.0167  0.1904
   11loPI   C1A  167  12.374   1.678  10.458  0.0095  0.0051  0.0527
   11loPI   C2A  168  12.226   1.660  10.060  0.2661  0.2125  0.0646
   11loPI   C3A  169  12.247   1.671   9.689  0.1140 -0.1140  0.2432
   11loPI   C4A  170  12.267   1.590   9.290 -0.0505 -0.1719 -0.1910
   11loPI   C5A  171  12.352   1.643   8.822 -0.1328 -0.0683 -0.0830
   11loPI   C6A  172  12.172   1.852   8.490  0.0081  0.1761 -0.1646
   11loPI   C1B  173  11.820   1.726  10.315  0.1012 -0.3104  0.0469
   11loPI   C2B  174  11.726   1.712   9.856 -0.1720 -0.1720 -0.1753
   11loPI   C3B  175  11.769   1.708   9.348 -0.1690 -0.3038  0.3176
   11loPI   C4B  176  11.794   1.763   8.899 -0.1410  0.1575 -0.2190
   12loPI    C1  177  12.265  10.843  11.559  0.1026 -0.0733 -0.1548
   12loPI    C2  178  12.153  10.570  11.829  0.0277  0.1105  0.0027
   12loPI    C3  179  12.506  10.755  11.866  0.1444 -0.0701 -0.1864
   12loPI   PO4  180  12.234  10.720  11.320  0.0840  0.3699  0.0219
   12loPI   GL1  181  11.918  10.578  10.911  0.0246 -0.1028  0.1113
   12loPI   GL2  182  11.568  10.598  10.930 -0.3517  0.5952 -0.1351
   12loPI   C1A  183  11.925  10.639  10.426 -0.3166 -0.0380  0.1125
   12loPI   C2A  184  11.870  10.811  10.000  0.1607 -0.0867  0.0940
   12loPI   C3A  185  11.951  10.701   9.524  0.0442 -0.1684  0.0331
   12loPI   C4A  186  12.012  10.817   9.025  0.0879 -0.0075  0.2881
   12loPI   C5A  187  11.919  11.114   8.598 -0.1489  0.1488 -0.0601
   12loPI   C6A  188  11.834  11.398   8.307  0.1086  0.0921  0.2784
   12loPI   C1B  189  11.406  10.775  10.514 -0.0274  0.0294  0.2441
   12loPI   C2B  190  11.366  10.831  10.014 -0.1149 -0.1795  0.0043
   12loPI   C3B  191  11.477  10.748   9.589  0.0462 -0.1025 -0.1542
   12loPI   C4B  192  11.538  10.650   9.192 -0.2437  0.0909 -0.1396
   13loPI    C1  193   0.151  12.916  11.694  0.0321 -0.5140 -0.0154
   13loPI    C2  194  -0.185  12.864  11.905 -0.0878 -0.0027 -0.0667
   13loPI    C3  195   0.098  13.113  12.038 -0.0514  0.1282 -0.3802
   13loPI   PO4  196   0.027  12.990  11.440 -0.2026  0.0219  0.0254
   13loPI   GL1  197  -0.142  12.881  11.027 -0.0561  0.0971 -0.1878
   13loPI   GL2  198   0.172  12.884  10.948  0.2765 -0.0095 -0.2203
   13loPI   C1A  199  -0.377  12.891  10.656  0.1996  0.1313 -0.3502
   13loPI   C2A  200  -0.390  12.782  10.240  0.1365  0.2852  0.0590
   13loPI   C3A  201  -0.309  12.766   9.868 -0.0509 -0.0822 -0.1787
   13loPI   C4A  202  -0.401  12.753   9.447  0.1761  0.3964 -0.1512
   13loPI   C5A  203  -0.351  12.882   8.964 -0.0800  0.0062 -0.2813
   13loPI   C6A  204  -0.146  13.083   8.649 -0.0373  0.3233 -0.2798
   13loPI   C1B  205   0.114  12.718  10.590  0.1295  0.3008  0.0173
   13loPI   C2B  206   0.135  12.732  10.145 -0.0271 -0.4118  0.0324
   13loPI   C3B  207   0.159  12.712   9.686  0.0094  0.2298  0.1281
   13loPI   C4B  208   0.051  12.616   9.203  0.0625 -0.2752 -0.0836
   14loPI    C1  209   6.079   2.994  11.610  0.1948  0.0377 -0.0064
   14loPI    C2  210   6.000   3.287  11.871  0.0802 -0.0409  0.0481
   14loPI    C3  211   6.276   3.010  11.957 -0.0051 -0.1054  0.1157
   14loPI   PO4  212   6.084   3.118  11.385 -0.1521  0.2490 -0.1573
   14loPI   GL1  213   6.186   3.260  10.966  0.0362 -0.2958 -0.0255
   14loPI   GL2  214   6.078   2.935  10.885  0.2696 -0.0674 -0.2849
   14loPI   C1A  215   6.306   3.213  10.535 -0.0548  0.0354  0.1810
   14loPI   C2A  216   6.319   3.216  10.037  0.1571 -0.2485  0.0084
   14loPI   C3A  217   6.269   3.159   9.538 -0.2538 -0.0044  0.1562
   14loPI   C4A  218   6.300   3.247   9.132  0.2581  0.0580  0.1273
   14loPI   C5A  219   6.340   3.211   8.733 -0.0086  0.3926  0.0427
   14loPI   C6A  220   6.421   2.859   8.455 -0.1973 -0.2112  0.2111
   14loPI   C1B  221   5.976   2.759  10.571 -0.1803 -0.0586 -0.1302
   14loPI   C2B  222   6.058   2.766  10.031  0.0364 -0.0609  0.2722
   14loPI   C3B  223   5.944   2.759   9.715  0.1987 -0.1950 -0.1529
   14loPI   C4B  224   5.983   2.781   9.280 -0.1133 -0.2450  0.0928
   15loPI    C1  225  11.415  15.353  11.141 -0.0597 -0.1233  0.0533
   15loPI    C2  226  11.354  15.626  11.427 -0.0928  0.0081 -0.0777
   15loPI    C3  227  11.251  15.244  11.489 -0.1297  0.0420  0.0727
   15loPI   PO4  228  11.607  15.489  10.944  0.0509  0.0055 -0.1540
   15loPI   GL1  229  11.562  15.788  10.602  0.2742 -0.1686 -0.3431
   15loPI   GL2  230  11.565  16.001  10.491  0.0994 -0.1366  0.1774
   15loPI   C1A  231  11.545  15.423  10.226  0.2619  0.2091 -0.2121
   15loPI   C2A  232  11.545  15.041  10.036  0.1721  0.0463  0.0177
   15loPI   C3A  233  11.745  14.874   9.560 -0.2069 -0.1530 -0.0680
   15loPI   C4A  234  11.681  14.878   9.127  0.5366  0.2770  0.1515
   15loPI   C5A  235  11.854  14.764   8.787  0.0371  0.3009 -0.1908
   15loPI   C6A  236  12.103  15.013   8.458  0.0906 -0.0326  0.5156
   15loPI   C1B  237  11.831  15.874  10.125  0.1557 -0.0172 -0.0392
   15loPI   C2B  238  11.795  15.901   9.745 -0.2373  0.2260  0.3877
   15loPI   C3B  239  11.800  15.572   9.419 -0.1135  0.0800  0.0326
   15loPI   C4B  240  11.675  15.490   9.066  0.4286  0.0852  0.1338
   16loPI    C1  241  10.269  16.514  11.324 -0.0398 -0.2028 -0.0333
   16loPI    C2  242   9.924  16.520  11.527 -0.0794 -0.2608 -0.0985
   16loPI    C3  243  10.195  16.234  11.600 -0.0222 -0.1845 -0.0101
   16loPI   PO4  244  10.185  16.644  11.024 -0.0970 -0.2254  0.3473
   16loPI   GL1  245   9.881  16.893  10.853  0.1281  0.0354  0.1628
   16loPI   GL2  246   9.833  17.206  10.937 -0.0415 -0.1376  0.2738
   16loPI   C1A  247   9.958  17.016  10.383 -0.1932  0.0828 -0.0723
   16loPI   C2A  248   9.873  17.018   9.899 -0.0716  0.0591  0.1559
   16loPI   C3A  249   9.969  17.010   9.457  0.1145 -0.1245  0.0523
   16loPI   C4A  250  10.338  16.854   9.229  0.2208  0.2435 -0.0147
   16loPI   C5A  251  10.625  16.673   8.941 -0.0406  0.0716  0.1503
   16loPI   C6A  252  11.070  16.648   8.774  0.2427 -0.1601  0.2156
   16loPI   C1B  253   9.762  17.457  10.621  0.1377 -0.1116  0.0834
   16loPI   C2B  254   9.688  17.447  10.246 -0.0576 -0.3195  0.1673
   16loPI   C3B  255   9.741  17.516   9.820  0.1330  0.2018 -0.1528
   16loPI   C4B  256   9.664  17.436   9.439 -0.0424 -0.1094  0.1772
   17loPI    C1  257  14.976   1.149  11.860  0.1779 -0.1114 -0.1561
   17loPI    C2  258  15.348   1.275  11.936  0.0767  0.0688  0.0539
   17loPI    C3  259  15.149   1.063  12.210  0.0367 -0.0594 -0.0727
   17loPI   PO4  260  14.939   1.339  11.574 -0.5022 -0.0650  0.0630
   17loPI   GL1  261  15.095   1.396  11.143  0.0622  0.1339 -0.0025
   17loPI   GL2  262  14.915   1.305  10.891 -0.1061  0.1258 -0.1305
   17loPI   C1A  263  15.383   1.277  10.823  0.3083 -0.2256 -0.1352
   17loPI   C2A  264  15.417   1.235  10.352 -0.5603  0.1035  0.3099
   17loPI   C3A  265  15.278   1.185   9.889 -0.0383 -0.0200 -0.0074
   17loPI   C4A  266  15.262   1.166   9.455  0.2321 -0.3173  0.0378
   17loPI   C5A  267  15.268   1.214   9.019  0.2324  0.4395 -0.1627
   17loPI   C6A  268  15.167   1.214   8.621  0.4228 -0.4007  0.0284
   17loPI   C1B  269  14.948   1.389  10.483 -0.0114 -0.2818 -0.1125
   17loPI   C2B  270  14.869   1.387   9.999  0.0894  0.0247 -0.0862
   17loPI   C3B  271  14.774   1.268   9.577 -0.3328 -0.1646  0.1123
   17loPI   C4B  272  14.732   1.255   9.168  0.2256 -0.1437 -0.0525
   18loPI    C1  273   8.489   1.045  11.498 -0.0004  0.0445 -0.0356
   18loPI    C2  274   8.451   0.877  11.859  0.3121  0.1173  0.0340
   18loPI    C3  275   8.711   1.176  11.804  0.3545  0.0264 -0.2794
   18loPI   PO4  276   8.500   0.818  11.340 -0.1846  0.2430  0.3077
   18loPI   GL1  277   8.682   0.865  10.966 -0.3449 -0.0010  0.0545
   18loPI   GL2  278   8.799   0.509  10.837 -0.1446  0.0652  0.0744
   18loPI   C1A  279   8.630   1.013  10.557  0.2406  0.0826  0.0486
   18loPI   C2A  280   8.611   1.163  10.146 -0.0904  0.0842  0.1092
   18loPI   C3A  281   8.685   1.203   9.701  0.1635  0.2548 -0.0294
   18loPI   C4A  282   8.589   1.138   9.368 -0.2592  0.1963 -0.0552
   18loPI   C5A  283   8.619   1.232   8.958  0.0711  0.1333 -0.0250
   18loPI   C6A  284   8.711   1.369   8.562  0.1252 -0.0443  0.4569
   18loPI   C1B  285   8.796   0.577  10.448  0.0950 -0.0666 -0.4924
   18loPI   C2B  286   8.806   0.655  10.031 -0.1207 -0.1406 -0.0700
   18loPI   C3B  287   8.778   0.691   9.584 -0.0304 -0.0247  0.1773
   18loPI   C4B  288   8.738   0.650   9.210  0.1061 -0.1228 -0.1449
   19loPI    C1  289   7.433   4.562  11.659  0.0692  0.1567  0.1002
   19loPI    C2  290   7.414   4.199  11.826  0.1077  0.0606 -0.1019
   19loPI    C3  291   7.724   4.439  11.904  0.1342  0.0095 -0.0491
   19loPI   PO4  292   7.345   4.503  11.429 -0.1795 -0.0007  0.0531
   19loPI   GL1  293   7.311   4.577  11.097 -0.2833  0.1346 -0.0594
   19loPI   GL2  294   7.186   4.613  10.828 -0.0709 -0.1214  0.1601
   19loPI   C1A  295   7.648   4.755  10.742  0.0055 -0.1215  0.0813
   19loPI   C2A  296   7.605   4.830  10.251 -0.1540 -0.0026  0.5770
   19loPI   C3A  297   7.553   4.944   9.817 -0.1351  0.1223  0.1925
   19loPI   C4A  298   7.648   4.996   9.351  0.0573 -0.2079  0.1163
   19loPI   C5A  299   7.627   5.043   8.897  0.3374 -0.1908 -0.0518
   19loPI   C6A  300   7.429   5.164   8.688 -0.1720  0.3550  0.0335
   19loPI   C1B  301   7.223   4.503  10.425  0.0505 -0.0059 -0.1890
   19loPI   C2B  302   7.273   4.525   9.963  0.0383  0.1070  0.0501
   19loPI   C3B  303   7.283   4.632   9.487  0.1528 -0.0249 -0.1801
   19loPI   C4B  304   7.262   4.577   8.972 -0.0056  0.2431  0.5047
   20loPI    C1  305  10.305   5.535  11.375 -0.0197  0.3469  0.1390
   20loPI    C2  306  10.547   5.610  11.684  0.1985 -0.1237  0.0914
   20loPI    C3  307  10.278   5.315  11.708  0.1001 -0.0519 -0.1072
   20loPI   PO4  308  10.442   5.503  11.136 -0.0094  0.0681 -0.0339
   20loPI   GL1  309  10.154   5.734  10.794  0.1836  0.0553  0.2028
   20loPI   GL2  310   9.805   5.848  10.821 -0.2046  0.1496 -0.1460
   20loPI   C1A  311  10.286   5.602  10.339  0.2117 -0.0941 -0.1042
   20loPI   C2A  312  10.248   5.556   9.877  0.1540 -0.1170  0.2394
   20loPI   C3A  313  10.176   5.554   9.518  0.3922 -0.0761  0.0172
   20loPI   C4A  314  10.268   5.428   9.106  0.1691  0.3906 -0.0341
   20loPI   C5A  315  10.469   5.237   8.720 -0.1082  0.1740  0.1004
   20loPI   C6A  316  10.867   5.125   8.630 -0.0746  0.1600  0.2196
   20loPI   C1B  317   9.791   5.609  10.480  0.0976  0.0636  0.1283
   20loPI   C2B  318   9.731   5.597  10.033  0.0545  0.0301  0.0803
   20loPI   C3B  319   9.690   5.487   9.617  0.6372 -0.1671 -0.1418
   20loPI   C4B  320   9.706   5.665   9.235  0.0304  0.1173 -0.0160
   21loPI    C1  321   4.674   8.076  11.638  0.1336 -0.2902 -0.0324
   21loPI    C2  322   4.936   8.010  11.933  0.1380 -0.1393 -0.0018
   21loPI    C3  323   4.547   7.941  11.992  0.1608 -0.2871 -0.0215
   21loPI   PO4  324   4.742   7.953  11.475  0.2907  0.1554 -0.2849
   21loPI   GL1  325   4.985   7.982  11.138  0.2726  0.0518  0.3231
   21loPI   GL2  326   5.253   7.859  11.052  0.1129  0.2545  0.0272
   21loPI   C1A  327   4.908   8.115  10.762 -0.4385  0.1727  0.4368
   21loPI   C2A  328   5.003   8.082  10.404 -0.0748 -0.3995 -0.0862
   21loPI   C3A  329   4.955   7.976  10.009  0.2911  0.1777 -0.1709
   21loPI   C4A  330   4.921   7.923   9.627  0.1379 -0.2357 -0.0426
   21loPI   C5A  331   4.986   7.905   9.230 -0.0928 -0.0229 -0.0201
   21loPI   C6A  332   4.776   7.973   8.814 -0.0279  0.1016  0.0116
   21loPI   C1B  333   5.401   8.085  10.792  0.0144 -0.0981 -0.1733
   21loPI   C2B  334   5.497   7.981  10.346  0.0251 -0.3020 -0.0227
   21loPI   C3B  335   5.456   7.955   9.924  0.2479  0.1953 -0.2305
   21loPI   C4B  336   5.425   7.874   9.536 -0.0884 -0.2303 -0.0092
   22loPI    C1  337   7.526  11.299  11.209  0.1801  0.1810 -0.2032
   22loPI    C2  338   7.364  11.222  11.567  0.0324 -0.2675 -0.3585
   22loPI    C3  339   7.180  11.471  11.313  0.0665 -0.0571 -0.1805
   22loPI   PO4  340   7.659  11.147  11.086  0.0245 -0.1674 -0.1773
   22loPI   GL1  341   7.831  10.973  10.775  0.0123  0.1733 -0.1842
   22loPI   GL2  342   8.073  11.263  10.714 -0.2530  0.1620 -0.3398
   22loPI   C1A  343   7.674  10.832  10.435  0.0006  0.1309 -0.1269
   22loPI   C2A  344   7.580  10.849  10.044 -0.0435 -0.1483 -0.1627
   22loPI   C3A  345   7.626  10.734   9.645 -0.0847 -0.1757 -0.1128
   22loPI   C4A  346   7.643  10.842   9.167  0.1654  0.2187 -0.0921
   22loPI   C5A  347   7.653  10.848   8.784  0.2068 -0.0467  0.2436
   22loPI   C6A  348   7.637  10.824   8.366 -0.0336 -0.1256 -0.0410
   22loPI   C1B  349   7.988  11.177  10.251  0.0201  0.1573  0.1526
   22loPI   C2B  350   7.901  11.190   9.796 -0.3181 -0.1829  0.0043
   22loPI   C3B  351   7.909  11.225   9.414  0.2418 -0.1978  0.0029
   22loPI   C4B  352   7.935  11.196   8.962 -0.0824 -0.0027 -0.0906
   23loPI    C1  353  17.705   0.531  11.566 -0.1027  0.1273 -0.0735
   23loPI    C2  354  17.386   0.649  11.777 -0.0858  0.0582 -0.0090
   23loPI    C3  355  17.751   0.779  11.876 -0.0952  0.1467 -0.0900
   23loPI   PO4  356  17.598   0.210  11.500 -0.1872  0.2158 -0.1085
   23loPI   GL1  357  17.558  -0.063  11.121  0.1272 -0.2477 -0.1508
   23loPI   GL2  358  17.386  -0.306  10.993 -0.2719  0.0084  0.0304
   23loPI   C1A  359  17.806   0.024  10.801 -0.2672  0.2603  0.0261
   23loPI   C2A  360  17.794   0.028  10.298  0.2055 -0.1595 -0.1886
   23loPI   C3A  361  17.710   0.016   9.942 -0.0621  0.3180  0.5823
   23loPI   C4A  362  17.685  -0.036   9.534  0.3095  0.0158 -0.2223
   23loPI   C5A  363  17.705  -0.112   9.043  0.1649  0.3226 -0.0151
   23loPI   C6A  364  17.822   0.205   8.778 -0.1705  0.1717  0.0386
   23loPI   C1B  365  17.474  -0.297  10.604 -0.2444  0.3177  0.0481
   23loPI   C2B  366  17.417  -0.358  10.185 -0.0189 -0.3479 -0.3330
   23loPI   C3B  367  17.357  -0.329   9.781  0.2471  0.0799  0.0743
   23loPI   C4B  368  17.417  -0.389   9.345  0.1555 -0.0729 -0.0268
   24loPI    C1  369   2.104  14.714  11.733  0.1264  0.1931  0.0367
   24loPI    C2  370   2.376  14.463  11.883 -0.2654 -0.1608  0.1767
   24loPI    C3  371   2.262  14.784  12.093 -0.0719 -0.0952  0.1837
   24loPI   PO4  372   1.987  14.606  11.528  0.1177  0.0350 -0.0157
   24loPI   GL1  373   1.680  14.674  11.148 -0.2995  0.2142 -0.0998
   24loPI   GL2  374   1.800  14.360  11.161 -0.1373  0.1633 -0.0804
   24loPI   C1A  375   1.616  14.862  10.712  0.1529  0.1218 -0.3069
   24loPI   C2A  376   1.642  14.771  10.252 -0.0004 -0.0610 -0.0656
   24loPI   C3A  377   1.709  14.842   9.834 -0.0163 -0.0473  0.0063
   24loPI   C4A  378   2.036  14.797   9.476  0.1940  0.1503  0.0045
   24loPI   C5A  379   2.355  14.653   9.221  0.0123 -0.2438  0.4865
   24loPI   C6A  380   2.596  14.374   8.917  0.1750 -0.0752 -0.1470
   24loPI   C1B  381   1.840  14.298  10.704  0.1901  0.1177  0.1114
   24loPI   C2B  382   1.862  14.268  10.320 -0.3116  0.2123  0.2011
   24loPI   C3B  383   1.879  14.383   9.917 -0.0599  0.1316  0.3041
   24loPI   C4B  384   1.987  14.300   9.547 -0.2835  0.1832 -0.2007
   25loPI    C1  385   3.068   6.199  11.774  0.0088  0.0867  0.0778
   25loPI    C2  386   3.290   6.510  11.893 -0.1087  0.1443  0.1482
   25loPI    C3  387   3.128   6.265  12.164 -0.1759  0.1339  0.0988
   25loPI   PO4  388   3.166   6.152  11.547 -0.0873  0.0635 -0.1438
   25loPI   GL1  389   3.258   6.032  11.178  0.1966 -0.1091 -0.2233
   25loPI   GL2  390   2.896   6.153  11.039 -0.0746  0.0155  0.0341
   25loPI   C1A  391   3.361   6.040  10.791  0.1968  0.2398  0.1442
   25loPI   C2A  392   3.364   5.893  10.310  0.0172  0.0651  0.0976
   25loPI   C3A  393   3.323   5.904   9.891 -0.0647  0.2130  0.2903
   25loPI   C4A  394   3.306   5.944   9.493  0.0142  0.0231  0.2389
   25loPI   C5A  395   3.398   5.968   9.031  0.2060  0.3057 -0.0998
   25loPI   C6A  396   3.234   6.315   8.683 -0.0253  0.1744  0.0047
   25loPI   C1B  397   2.878   6.101  10.698 -0.0642 -0.0240 -0.0598
   25loPI   C2B  398   2.884   6.087  10.240 -0.1695  0.2227  0.3840
   25loPI   C3B  399   2.845   5.985   9.776  0.0102 -0.0505 -0.0265
   25loPI   C4B  400   2.689   6.148   9.326 -0.3167  0.1319 -0.1327
   26loPI    C1  401  15.180   6.791  11.650  0.0936 -0.1722 -0.0489
   26loPI    C2  402  15.430   6.821  11.962 -0.0877  0.0044  0.0824
   26loPI    C3  403  15.056   6.691  12.017 -0.1086 -0.0026 -0.0696
   26loPI   PO4  404  15.170   6.993  11.556  0.3538 -0.0463  0.2149
   26loPI   GL1  405  14.942   7.079  11.122  0.3362  0.0611  0.2248
   26loPI   GL2  406  14.820   7.296  10.857 -0.1115  0.1745 -0.0584
   26loPI   C1A  407  15.023   6.838  10.758  0.0521  0.3383 -0.0228
   26loPI   C2A  408  15.072   6.724  10.347 -0.0310  0.1944  0.1060
   26loPI   C3A  409  15.040   6.668   9.931 -0.0917  0.1091 -0.0626
   26loPI   C4A  410  15.040   6.545   9.499  0.0530  0.2669 -0.0625
   26loPI   C5A  411  15.362   6.561   9.178  0.0922 -0.0183 -0.0413
   26loPI   C6A  412  15.094   6.688   8.832  0.0763  0.0139  0.0947
   26loPI   C1B  413  14.870   7.204  10.417 -0.1034 -0.1395 -0.1218
   26loPI   C2B  414  14.859   7.175   9.981  0.2223 -0.0303 -0.0883
   26loPI   C3B  415  14.823   7.011   9.565 -0.4540  0.2388 -0.0356
   26loPI   C4B  416  14.963   7.041   9.155 -0.0143 -0.1455  0.1880
   27loPI    C1  417  11.703  16.501  11.234  0.0134  0.0613 -0.2245
   27loPI    C2  418  11.536  16.747  11.501 -0.1068 -0.0493 -0.1969
   27loPI    C3  419  11.842  16.513  11.608  0.0335  0.1147 -0.2334
   27loPI   PO4  420  11.544  16.471  11.063 -0.0301 -0.4821  0.0636
   27loPI   GL1  421  11.600  16.521  10.702 -0.2055 -0.2362 -0.0345
   27loPI   GL2  422  11.390  16.809  10.593  0.1333  0.0014  0.1891
   27loPI   C1A  423  11.607  16.443  10.241 -0.1278  0.4899  0.0096
   27loPI   C2A  424  11.615  16.392   9.809 -0.2469 -0.1909  0.0010
   27loPI   C3A  425  11.463  16.250   9.417 -0.2211 -0.2947 -0.0768
   27loPI   C4A  426  11.363  15.801   9.299 -0.0793 -0.1368 -0.4796
   27loPI   C5A  427  10.976  15.504   9.263 -0.1000 -0.0427 -0.0474
   27loPI   C6A  428  10.740  15.051   9.097 -0.0087 -0.1352 -0.0282
   27loPI   C1B  429  11.376  16.885  10.126  0.2587  0.0796 -0.2525
   27loPI   C2B  430  11.432  16.804   9.602 -0.0806  0.1145 -0.1368
   27loPI   C3B  431  11.385  16.725   9.196 -0.1218  0.2527 -0.2587
   27loPI   C4B  432  11.549  16.425   8.887 -0.0003 -0.0097 -0.0707
   28loPI    C1  433  16.036   1.415  11.754  0.1833 -0.2004  0.2073
   28loPI    C2  434  16.098   1.752  11.959 -0.0674 -0.0776  0.0869
   28loPI    C3  435  15.816   1.496  12.078 -0.1928 -0.0206 -0.0849
   28loPI   PO4  436  16.024   1.443  11.533  0.1731  0.0481 -0.0917
   28loPI   GL1  437  15.878   1.184  11.196  0.0223  0.2174  0.0390
   28loPI   GL2  438  15.684   0.969  11.071 -0.0473 -0.2541 -0.3480
   28loPI   C1A  439  16.034   1.124  10.755 -0.0041 -0.1580 -0.2183
   28loPI   C2A  440  15.920   1.199  10.355 -0.2475  0.0077 -0.0779
   28loPI   C3A  441  15.825   1.090   9.964 -0.3056  0.0600 -0.0705
   28loPI   C4A  442  15.762   1.170   9.514 -0.0826  0.3636 -0.0500
   28loPI   C5A  443  15.779   1.110   9.042 -0.2931 -0.0779  0.1177
   28loPI   C6A  444  16.017   1.266   8.739  0.0522  0.1246 -0.2090
   28loPI   C1B  445  15.598   0.818  10.630  0.1354  0.1169 -0.0725
   28loPI   C2B  446  15.486   0.748  10.172 -0.1658 -0.2066 -0.3777
   28loPI   C3B  447  15.510   0.746   9.678 -0.3102 -0.1438  0.0855
   28loPI   C4B  448  15.472   0.670   9.249  0.1344 -0.0250  0.1920
   29loPI    C1  449  12.820  11.672  11.493  0.1058 -0.2579  0.2692
   29loPI    C2  450  13.047  11.996  11.437 -0.0653 -0.1790  0.0131
   29loPI    C3  451  12.730  12.014  11.680 -0.0060 -0.1891  0.0918
   29loPI   PO4  452  12.768  11.599  11.269 -0.2060 -0.1703 -0.2341
   29loPI   GL1  453  12.895  11.449  10.882 -0.0169 -0.0290  0.0912
   29loPI   GL2  454  13.219  11.661  10.874 -0.2656 -0.0083  0.0532
   29loPI   C1A  455  13.081  11.446  10.433 -0.2460 -0.1464  0.0684
   29loPI   C2A  456  13.149  11.460  10.019 -0.2110 -0.1515 -0.0925
   29loPI   C3A  457  13.175  11.490   9.521  0.1596 -0.3440  0.0033
   29loPI   C4A  458  13.232  11.440   9.074  0.1966 -0.2107 -0.0267
   29loPI   C5A  459  13.322  11.495   8.609  0.0741 -0.2302 -0.4051
   29loPI   C6A  460  13.500  11.166   8.410 -0.1796  0.1337 -0.0042
   29loPI   C1B  461  13.594  11.541  10.610  0.0997 -0.0489 -0.2917
   29loPI   C2B  462  13.656  11.410  10.190 -0.0584  0.3594 -0.3282
   29loPI   C3B  463  13.616  11.442   9.738 -0.0674 -0.0223  0.3571
   29loPI   C4B  464  13.622  11.486   9.362  0.1263 -0.1852 -0.2275
   30loPI    C1  465  15.010   9.593  11.582 -0.0116 -0.0681 -0.2024
   30loPI    C2  466  14.736   9.651  11.868  0.2826  0.2851  0.0163
   30loPI    C3  467  14.976   9.331  11.882  0.1503  0.1860  0.0416
   30loPI   PO4  468  15.051   9.626  11.317  0.1654  0.3380 -0.1594
   30loPI   GL1  469  15.060   9.725  10.889  0.1947  0.0915  0.2386
   30loPI   GL2  470  15.243   9.887  10.699  0.1828 -0.0981 -0.0992
   30loPI   C1A  471  14.931   9.521  10.516  0.1297  0.2557  0.0121
   30loPI   C2A  472  14.876   9.408  10.123  0.1571  0.1023  0.1201
   30loPI   C3A  473  14.890   9.415   9.595 -0.0617  0.0539  0.2278
   30loPI   C4A  474  14.886   9.417   9.204 -0.1901  0.1626  0.0051
   30loPI   C5A  475  14.866   9.421   8.804  0.2413  0.0435 -0.0065
   30loPI   C6A  476  14.870   9.614   8.447  0.0789  0.1123 -0.1579
   30loPI   C1B  477  15.248   9.918  10.328 -0.0487 -0.0931  0.1380
   30loPI   C2B  478  15.237   9.792   9.887  0.2123 -0.0050  0.1473
   30loPI   C3B  479  15.192   9.847   9.451  0.2765 -0.0816 -0.4077
   30loPI   C4B  480  15.164   9.835   9.029 -0.0578  0.3133 -0.1242
   31loPI    C1  481  16.466   2.312  11.660  0.0977 -0.2288  0.1059
   31loPI    C2  482  16.078   2.296  11.755 -0.0205  0.0164 -0.3102
   31loPI    C3  483  16.328   2.521  11.972 -0.0344 -0.4192  0.1762
   31loPI   PO4  484  16.499   2.375  11.456  0.1509 -0.3088 -0.3689
   31loPI   GL1  485  16.346   2.362  11.083 -0.3180  0.0049 -0.4482
   31loPI   GL2  486  16.543   2.046  11.069  0.0980  0.0312  0.2458
   31loPI   C1A  487  16.195   2.426  10.735 -0.1045  0.2372  0.3052
   31loPI   C2A  488  16.346   2.447  10.314  0.0904 -0.0921  0.1570
   31loPI   C3A  489  16.333   2.505   9.871  0.1430 -0.0453 -0.1691
   31loPI   C4A  490  16.266   2.454   9.387  0.1171 -0.1877 -0.1816
   31loPI   C5A  491  16.312   2.367   8.985  0.0748  0.2531 -0.0400
   31loPI   C6A  492  16.257   2.190   8.743  0.2335  0.2251 -0.0412
   31loPI   C1B  493  16.499   2.025  10.600 -0.2848 -0.2085  0.0314
   31loPI   C2B  494  16.559   2.040  10.159 -0.3399 -0.0286 -0.1182
   31loPI   C3B  495  16.500   2.037   9.733  0.1269 -0.1646 -0.3921
   31loPI   C4B  496  16.522   1.936   9.337  0.0732 -0.1426  0.1861
   32loPI    C1  497   6.406  11.030  11.822 -0.1234 -0.0285 -0.1335
   32loPI    C2  498   6.423  11.403  11.966 -0.0790 -0.1156  0.0915
   32loPI    C3  499   6.476  11.092  12.211 -0.0749 -0.2696 -0.1025
   32loPI   PO4  500   6.456  11.096  11.538 -0.1720 -0.1878 -0.0294
   32loPI   GL1  501   6.449  10.819  11.118 -0.1266 -0.2568 -0.1763
   32loPI   GL2  502   6.635  10.988  10.930  0.0259 -0.0064 -0.0720
   32loPI   C1A  503   6.280  10.551  10.809 -0.1021 -0.0198 -0.0119
   32loPI   C2A  504   6.281  10.505  10.355 -0.1445  0.2698  0.4124
   32loPI   C3A  505   6.219  10.507   9.893  0.0827 -0.0238 -0.0989
   32loPI   C4A  506   6.266  10.580   9.415 -0.0695  0.0498  0.0440
   32loPI   C5A  507   6.230  10.495   9.021 -0.0003  0.1958 -0.0257
   32loPI   C6A  508   6.179  10.650   8.593 -0.6649 -0.1120  0.2060
   32loPI   C1B  509   6.557  10.940  10.468  0.2152 -0.1559 -0.0575
   32loPI   C2B  510   6.634  10.997  10.049  0.2445  0.1358 -0.2496
   32loPI   C3B  511   6.519  10.918   9.617  0.1756 -0.1183 -0.0884
   32loPI   C4B  512   6.629  10.930   9.139  0.2266 -0.0252  0.1615
   33loPI    C1  513   5.861   0.781  11.515  0.0300 -0.1247  0.1565
   33loPI    C2  514   5.599   1.063  11.627  0.0481  0.0211 -0.1564
   33loPI    C3  515   5.677   0.754  11.869 -0.2270  0.1058  0.0448
   33loPI   PO4  516   5.761   0.742  11.304 -0.0942  0.2046 -0.2151
   33loPI   GL1  517   6.110   0.486  11.115  0.1201  0.2895  0.0267
   33loPI   GL2  518   6.200   0.217  11.006  0.0791 -0.1026  0.0256
   33loPI   C1A  519   6.077   0.552  10.675  0.1329 -0.1621  0.0229
   33loPI   C2A  520   5.997   0.639  10.249 -0.0921  0.1280  0.1577
   33loPI   C3A  521   6.066   0.536   9.828  0.3487  0.0015  0.2071
   33loPI   C4A  522   6.082   0.566   9.452  0.2165 -0.2167  0.0590
   33loPI   C5A  523   5.997   0.676   9.025 -0.1461  0.3875 -0.1672
   33loPI   C6A  524   6.094   0.974   8.657  0.2296 -0.0533  0.1572
   33loPI   C1B  525   6.176   0.109  10.617 -0.1294  0.2355 -0.0550
   33loPI   C2B  526   6.229   0.033  10.181  0.0551 -0.1248  0.0436
   33loPI   C3B  527   6.162   0.075   9.728  0.0740  0.0600  0.1983
   33loPI   C4B  528   6.219   0.030   9.391 -0.0068  0.1350  0.0755
   34loPI    C1  529   5.633   2.714  11.549 -0.1440  0.2345  0.1661
   34loPI    C2  530   5.616   2.466  11.863  0.1442  0.0045  0.0044
   34loPI    C3  531   5.738   2.844  11.913  0.3093 -0.0666  0.1503
   34loPI   PO4  532   5.742   2.651  11.370  0.0475 -0.0126  0.1331
   34loPI   GL1  533   5.756   2.411  11.010 -0.3265 -0.0194  0.2971
   34loPI   GL2  534   6.067   2.312  10.946  0.1799  0.1244  0.1587
   34loPI   C1A  535   5.622   2.452  10.686  0.0127  0.4289  0.2161
   34loPI   C2A  536   5.731   2.345  10.301  0.1350  0.0856 -0.1799
   34loPI   C3A  537   5.604   2.381   9.945 -0.1888 -0.1137 -0.1276
   34loPI   C4A  538   5.693   2.403   9.425  0.1188 -0.0644 -0.1627
   34loPI   C5A  539   5.675   2.501   8.991  0.2799 -0.1778  0.0967
   34loPI   C6A  540   5.418   2.677   8.688 -0.2906 -0.1524  0.1461
   34loPI   C1B  541   6.220   2.325  10.563 -0.1144  0.2076 -0.4172
   34loPI   C2B  542   6.232   2.330  10.187  0.0139  0.1623  0.2038
   34loPI   C3B  543   6.218   2.317   9.768  0.0916  0.1193 -0.0332
   34loPI   C4B  544   6.234   2.357   9.346 -0.1858  0.5006 -0.0459
   35loPI    C1  545  15.497   8.743  11.835  0.0285 -0.1640  0.0134
   35loPI    C2  546  15.451   9.132  11.917 -0.1807 -0.1300 -0.2497
   35loPI    C3  547  15.240   8.859  12.119 -0.0264 -0.1103 -0.0579
   35loPI   PO4  548  15.584   8.764  11.554 -0.0080  0.0797 -0.2555
   35loPI   GL1  549  15.366   8.738  11.251  0.3412 -0.4276  0.2913
   35loPI   GL2  550  15.471   8.958  11.007  0.0829 -0.2336 -0.0539
   35loPI   C1A  551  15.241   8.519  10.898  0.0313  0.1477 -0.2016
   35loPI   C2A  552  15.280   8.495  10.419 -0.2220 -0.1387  0.0879
   35loPI   C3A  553  15.240   8.454  10.005 -0.2066  0.0192 -0.4293
   35loPI   C4A  554  15.244   8.457   9.504  0.3037 -0.0163  0.1559
   35loPI   C5A  555  15.313   8.578   9.041 -0.1638  0.2934 -0.0452
   35loPI   C6A  556  15.664   8.799   8.763 -0.0019  0.0461 -0.3451
   35loPI   C1B  557  15.531   8.924  10.536  0.3585  0.0773  0.0617
   35loPI   C2B  558  15.600   8.855  10.047  0.0156  0.1047  0.1864
   35loPI   C3B  559  15.517   8.889   9.664  0.0284  0.0079  0.1034
   35loPI   C4B  560  15.580   8.862   9.270  0.1247  0.0981 -0.2664
   36loPI    C1  561   3.797   1.019  11.614  0.0830 -0.1199 -0.3347
   36loPI    C2  562   4.063   0.940  11.902  0.0067 -0.0641 -0.2482
   36loPI    C3  563   3.710   0.752  11.900 -0.0671  0.0732 -0.1977
   36loPI   PO4  564   3.781   1.350  11.462  0.1861 -0.1139  0.1101
   36loPI   GL1  565   3.587   1.371  11.053  0.1482 -0.2145 -0.1332
   36loPI   GL2  566   3.827   1.025  11.105  0.2351  0.3379 -0.0833
   36loPI   C1A  567   3.768   1.218  10.659 -0.0535 -0.0038 -0.1502
   36loPI   C2A  568   3.825   1.255  10.243  0.0696 -0.0869 -0.0419
   36loPI   C3A  569   3.828   1.325   9.796 -0.2536  0.0383 -0.0254
   36loPI   C4A  570   3.757   1.405   9.409  0.1578  0.0017 -0.0775
   36loPI   C5A  571   3.641   1.199   9.068  0.2914  0.0794  0.0386
   36loPI   C6A  572   3.485   1.272   8.666  0.0037 -0.0612  0.0362
   36loPI   C1B  573   3.477   0.807  10.852 -0.0417  0.1925 -0.0518
   36loPI   C2B  574   3.508   0.881  10.398 -0.0199  0.0947  0.1380
   36loPI   C3B  575   3.501   0.983   9.946  0.0333 -0.0492  0.0526
   36loPI   C4B  576   3.470   0.949   9.522 -0.0100 -0.2805  0.0767
   37loPI    C1  577   1.407   1.686  12.050 -0.0143  0.0914 -0.2911
   37loPI    C2  578   1.615   1.350  12.109  0.0152  0.1144 -0.2637
   37loPI    C3  579   1.216   1.335  12.079 -0.0041  0.1063 -0.0212
   37loPI   PO4  580   1.646   1.817  11.765 -0.1064 -0.0055 -0.1224
   37loPI   GL1  581   1.674   1.813  11.265 -0.2242 -0.1584 -0.0533
   37loPI   GL2  582   1.886   2.110  11.098  0.1339  0.1119 -0.0593
   37loPI   C1A  583   1.705   1.556  10.868  0.1515 -0.0038 -0.0922
   37loPI   C2A  584   1.740   1.622  10.454 -0.1264 -0.2970  0.0282
   37loPI   C3A  585   1.802   1.634   9.869 -0.2951 -0.1066  0.0057
   37loPI   C4A  586   1.765   1.508   9.430 -0.0169  0.0582 -0.2150
   37loPI   C5A  587   1.531   1.553   9.000 -0.1339  0.2484 -0.1089
   37loPI   C6A  588   1.238   1.428   8.807 -0.2026  0.0089  0.3383
   37loPI   C1B  589   1.545   2.030  10.816  0.0766 -0.0005  0.0398
   37loPI   C2B  590   1.506   2.086  10.397 -0.2720 -0.0434 -0.4410
   37loPI   C3B  591   1.653   2.125  10.096 -0.2599 -0.1686  0.1644
   37loPI   C4B  592   1.588   2.066   9.663 -0.1569  0.0085  0.1355
   38loPI    C1  593  16.460  15.997  11.826  0.1568  0.1799  0.0140
   38loPI    C2  594  16.173  15.943  12.099  0.1240  0.0532 -0.0451
   38loPI    C3  595  16.554  15.867  12.193  0.1147  0.0269 -0.0288
   38loPI   PO4  596  16.348  15.923  11.595 -0.0337  0.4232  0.0502
   38loPI   GL1  597  16.133  15.978  11.215 -0.1085 -0.0954 -0.1252
   38loPI   GL2  598  16.007  16.174  11.220  0.1671  0.3088  0.1058
   38loPI   C1A  599  16.062  15.704  10.955 -0.0612  0.3200  0.1043
   38loPI   C2A  600  16.158  15.787  10.564  0.1826 -0.3145  0.0141
   38loPI   C3A  601  16.165  15.677  10.143  0.1134  0.0493  0.0188
   38loPI   C4A  602  16.217  15.716   9.793 -0.0015  0.2077 -0.0165
   38loPI   C5A  603  16.151  15.657   9.375  0.2447  0.2835 -0.1851
   38loPI   C6A  604  16.144  15.889   8.984  0.0290  0.2544 -0.1597
   38loPI   C1B  605  16.046  16.251  10.739 -0.0016  0.1898 -0.1776
   38loPI   C2B  606  16.002  16.290  10.389  0.0022  0.1550 -0.1460
   38loPI   C3B  607  16.016  16.181   9.905 -0.1591 -0.1438  0.3444
   38loPI   C4B  608  15.960  16.158   9.438 -0.3390 -0.0893 -0.0048
   39loPI    C1  609  14.855   1.868  11.514  0.0756 -0.0516  0.0650
   39loPI    C2  610  14.639   1.636  11.270  0.1054  0.0945 -0.1022
   39loPI    C3  611  14.544   1.662  11.658  0.0395 -0.1162 -0.1033
   39loPI   PO4  612  15.139   1.816  11.456 -0.2514  0.2746  0.4297
   39loPI   GL1  613  15.412   1.833  11.039  0.1882 -0.0352 -0.1713
   39loPI   GL2  614  15.495   2.182  10.941 -0.1394  0.1785 -0.1546
   39loPI   C1A  615  15.307   1.706  10.597  0.0439 -0.0550 -0.0199
   39loPI   C2A  616  15.179   1.792  10.085 -0.1908 -0.0485 -0.1561
   39loPI   C3A  617  15.115   1.679   9.689 -0.1364 -0.0347  0.1985
   39loPI   C4A  618  15.066   1.621   9.197 -0.1072 -0.1276 -0.2005
   39loPI   C5A  619  15.222   1.758   8.815  0.3488 -0.0293  0.4160
   39loPI   C6A  620  15.222   2.056   8.583  0.1934  0.3616  0.0478
   39loPI   C1B  621  15.472   2.147  10.465  0.0140  0.1946  0.0584
   39loPI   C2B  622  15.536   2.172  10.097  0.0300  0.1158  0.1101
   39loPI   C3B  623  15.516   2.044   9.584 -0.0043  0.0869 -0.3562
   39loPI   C4B  624  15.513   2.030   9.092 -0.1499 -0.2695 -0.0182
   40loPI    C1  625  16.609   7.908  11.814 -0.1617 -0.1496 -0.0333
   40loPI    C2  626  16.750   7.536  11.858  0.1061 -0.0590 -0.1072
   40loPI    C3  627  16.421   7.649  12.054 -0.0000 -0.3460 -0.1148
   40loPI   PO4  628  16.679   7.999  11.511 -0.1709 -0.0273  0.2622
   40loPI   GL1  629  16.835   7.806  11.104  0.2255  0.0864  0.0707
   40loPI   GL2  630  16.478   7.918  11.091 -0.1264 -0.2004 -0.3927
   40loPI   C1A  631  16.954   7.823  10.672  0.2248  0.1425 -0.0545
   40loPI   C2A  632  16.999   7.906  10.194 -0.0965 -0.1046  0.0449
   40loPI   C3A  633  16.925   7.919   9.760  0.2049  0.4313  0.5644
   40loPI   C4A  634  16.978   7.903   9.369 -0.1094  0.1260 -0.0723
   40loPI   C5A  635  17.040   7.905   8.908 -0.1364  0.1760  0.0841
   40loPI   C6A  636  17.505   7.917   8.788 -0.2397  0.1069  0.0167
   40loPI   C1B  637  16.471   7.802  10.686 -0.1638 -0.3695 -0.1382
   40loPI   C2B  638  16.438   7.946  10.280  0.0063 -0.1091 -0.1829
   40loPI   C3B  639  16.463   7.865   9.884 -0.1099 -0.1188  0.2728
   40loPI   C4B  640  16.428   7.894   9.437 -0.0155  0.2361 -0.1073
   41loPI    C1  641  10.240   4.025  11.343  0.1768 -0.0783  0.0201
   41loPI    C2  642  10.481   4.090  11.656 -0.0404 -0.1494  0.2050
   41loPI    C3  643  10.084   4.095  11.705 -0.0816  0.0825 -0.1194
   41loPI   PO4  644  10.326   4.169  11.165  0.2092 -0.0622 -0.0512
   41loPI   GL1  645  10.283   4.383  10.773  0.1157 -0.0045  0.3163
   41loPI   GL2  646  10.322   4.125  10.572  0.0779  0.4068 -0.0375
   41loPI   C1A  647   9.914   4.237  10.412 -0.1354 -0.0275 -0.1132
   41loPI   C2A  648   9.796   4.227   9.918 -0.0512 -0.0481 -0.1397
   41loPI   C3A  649   9.779   4.151   9.446 -0.0815  0.0151  0.4053
   41loPI   C4A  650   9.767   4.186   8.970  0.1052 -0.2095 -0.1026
   41loPI   C5A  651   9.885   4.169   8.544 -0.1637 -0.0120  0.2085
   41loPI   C6A  652   9.908   4.223   8.107  0.1198  0.1063  0.1243
   41loPI   C1B  653  10.339   4.202  10.138  0.0492 -0.0683  0.0038
   41loPI   C2B  654  10.289   4.156   9.636  0.0230  0.0312 -0.1426
   41loPI   C3B  655  10.310   4.075   9.160  0.0804  0.1289  0.1855
   41loPI   C4B  656  10.214   4.314   8.879  0.0417  0.1117  0.3951
   42loPI    C1  657  16.736  12.464  11.529  0.0283 -0.3306  0.1152
   42loPI    C2  658  17.056  12.262  11.401  0.1092 -0.1793  0.0770
   42loPI    C3  659  17.058  12.430  11.764  0.1225 -0.0702  0.0269
   42loPI   PO4  660  16.684  12.658  11.317  0.2375  0.1337  0.0507
   42loPI   GL1  661  16.651  12.578  10.879  0.3429 -0.0853  0.1400
   42loPI   GL2  662  16.993  12.493  10.964 -0.1873 -0.0678  0.1867
   42loPI   C1A  663  16.524  12.508  10.458  0.3108 -0.0278  0.0573
   42loPI   C2A  664  16.595  12.489   9.993 -0.0951 -0.0915 -0.0114
   42loPI   C3A  665  16.565  12.464   9.491 -0.0467 -0.0336  0.1543
   42loPI   C4A  666  16.701  12.291   9.025 -0.1177  0.0997 -0.1480
   42loPI   C5A  667  17.016  12.208   8.753  0.1055  0.2348 -0.1883
   42loPI   C6A  668  17.245  12.232   8.284  0.1066  0.3439 -0.5637
   42loPI   C1B  669  17.050  12.510  10.589  0.0685  0.3388  0.2017
   42loPI   C2B  670  17.049  12.366  10.152 -0.1766  0.0046 -0.0799
   42loPI   C3B  671  17.067  12.293   9.681 -0.2639 -0.2894  0.1937
   42loPI   C4B  672  17.047  12.406   9.318 -0.0796 -0.5100 -0.1422
   43loPI    C1  673  16.062   0.706  11.591  0.0888  0.1240 -0.1710
   43loPI    C2  674  15.806   0.982  11.726  0.1124  0.0172  0.0975
   43loPI    C3  675  16.155   0.925  11.913  0.0765 -0.2436  0.0881
   43loPI   PO4  676  16.066   0.693  11.296 -0.1513 -0.2217 -0.3088
   43loPI   GL1  677  16.268   0.709  10.989  0.1484 -0.3181 -0.1825
   43loPI   GL2  678  16.372   0.375  10.885  0.1503  0.2084  0.0686
   43loPI   C1A  679  16.137   0.706  10.590  0.0761 -0.4023  0.1083
   43loPI   C2A  680  16.077   0.693  10.143  0.0516 -0.3425 -0.1279
   43loPI   C3A  681  16.030   0.696   9.711  0.0530  0.2268  0.2101
   43loPI   C4A  682  15.969   0.637   9.320 -0.2157 -0.0789 -0.1695
   43loPI   C5A  683  15.835   0.633   8.898 -0.1024  0.3784 -0.0655
   43loPI   C6A  684  15.481   0.806   8.694  0.0802  0.1804  0.0653
   43loPI   C1B  685  16.297   0.292  10.388 -0.4572  0.0091 -0.0456
   43loPI   C2B  686  16.248   0.270   9.979  0.0340  0.1797 -0.1467
   43loPI   C3B  687  16.213   0.203   9.542 -0.1123 -0.2894  0.1244
   43loPI   C4B  688  16.158   0.177   9.079 -0.3182  0.1286 -0.3008
   44loPI    C1  689   6.004  14.912  11.623 -0.2980  0.0142  0.0404
   44loPI    C2  690   5.995  15.310  11.668  0.1272  0.0176  0.1297
   44loPI    C3  691   6.003  15.072  11.990 -0.0853 -0.0643  0.0762
   44loPI   PO4  692   6.158  14.862  11.373 -0.1658 -0.0106 -0.0072
   44loPI   GL1  693   6.080  15.067  11.018 -0.1139  0.1953 -0.1966
   44loPI   GL2  694   5.845  15.212  10.819  0.0059  0.0687  0.0194
   44loPI   C1A  695   6.316  15.099  10.585  0.0007  0.0587  0.1412
   44loPI   C2A  696   6.390  15.060  10.199 -0.0646 -0.0530  0.0801
   44loPI   C3A  697   6.336  15.096   9.736  0.0747 -0.0016  0.1069
   44loPI   C4A  698   6.320  15.062   9.278 -0.0288 -0.0471  0.1832
   44loPI   C5A  699   6.508  15.090   8.852 -0.0042  0.0619  0.1899
   44loPI   C6A  700   6.458  14.957   8.491 -0.1334 -0.0548 -0.1728
   44loPI   C1B  701   5.847  15.122  10.400 -0.4623 -0.2175 -0.0789
   44loPI   C2B  702   5.874  15.178   9.924 -0.3718 -0.0016 -0.2215
   44loPI   C3B  703   5.852  15.095   9.471  0.2617  0.0519  0.0721
   44loPI   C4B  704   5.819  15.206   9.099 -0.2107  0.1644 -0.1597
   45loPI    C1  705  15.792  13.622  11.821  0.0062 -0.0531  0.0301
   45loPI    C2  706  15.578  13.912  11.994 -0.0355  0.1062 -0.2797
   45loPI    C3  707  15.567  13.539  12.140  0.0588  0.2672  0.1535
   45loPI   PO4  708  15.749  13.702  11.565 -0.2637  0.0552  0.2172
   45loPI   GL1  709  15.889  13.835  11.157  0.0166  0.1211  0.1332
   45loPI   GL2  710  15.546  13.754  11.100 -0.2638  0.0570  0.2178
   45loPI   C1A  711  15.897  14.050  10.902  0.0398  0.1925 -0.2707
   45loPI   C2A  712  15.978  13.976  10.518  0.4262  0.1468 -0.1054
   45loPI   C3A  713  15.980  13.843  10.057  0.2422  0.3637  0.0388
   45loPI   C4A  714  16.033  13.852   9.695  0.0827 -0.0686 -0.2419
   45loPI   C5A  715  16.103  13.834   9.277  0.2977  0.0740  0.0509
   45loPI   C6A  716  16.020  13.675   8.812 -0.1667  0.4503  0.0623
   45loPI   C1B  717  15.663  13.595  10.700 -0.0790  0.0809  0.0056
   45loPI   C2B  718  15.646  13.515  10.227  0.4680 -0.0699  0.1002
   45loPI   C3B  719  15.730  13.474   9.754  0.2446  0.3482 -0.1775
   45loPI   C4B  720  15.794  13.424   9.316 -0.2487 -0.1302  0.0572
   46loPI    C1  721  15.192  12.874  11.631 -0.0792 -0.0788  0.1185
   46loPI    C2  722  15.270  12.718  11.992  0.1694 -0.2339  0.0007
   46loPI    C3  723  15.290  13.114  11.937 -0.4092 -0.1542  0.2877
   46loPI   PO4  724  15.353  12.888  11.422 -0.0267 -0.2780 -0.1908
   46loPI   GL1  725  15.388  12.812  10.937 -0.1109 -0.0357 -0.2507
   46loPI   GL2  726  15.118  12.844  10.981 -0.1075  0.1445 -0.0838
   46loPI   C1A  727  15.510  12.663  10.609  0.2900 -0.1003  0.0105
   46loPI   C2A  728  15.634  12.627  10.212 -0.2505  0.2572  0.0062
   46loPI   C3A  729  15.582  12.614   9.845  0.0042  0.1298 -0.2164
   46loPI   C4A  730  15.625  12.576   9.426 -0.0235  0.3625 -0.0778
   46loPI   C5A  731  15.545  12.524   8.973  0.1575  0.1715  0.2122
   46loPI   C6A  732  15.238  12.485   8.733  0.3986  0.2255  0.0684
   46loPI   C1B  733  14.962  12.636  10.681 -0.2277  0.0182  0.1666
   46loPI   C2B  734  15.050  12.639  10.137  0.1250 -0.0900 -0.1536
   46loPI   C3B  735  15.094  12.658   9.750  0.4502  0.1819  0.2428
   46loPI   C4B  736  15.126  12.573   9.338 -0.2112  0.0543 -0.2041
   47loPI    C1  737   6.973  11.536  11.747 -0.0373 -0.0962  0.0737
   47loPI    C2  738   6.885  11.159  11.847 -0.1560 -0.0490  0.1494
   47loPI    C3  739   6.909  11.440  12.130  0.0126 -0.0151  0.1026
   47loPI   PO4  740   6.721  11.568  11.550  0.0528  0.0856  0.0220
   47loPI   GL1  741   6.558  11.501  11.126 -0.1533  0.3605  0.3895
   47loPI   GL2  742   6.321  11.319  11.013 -0.0278  0.1260  0.3231
   47loPI   C1A  743   6.881  11.444  10.803  0.0025 -0.1460 -0.0252
   47loPI   C2A  744   6.943  11.425  10.392  0.0232  0.0920 -0.0234
   47loPI   C3A  745   6.893  11.454   9.992  0.2404  0.0253 -0.2549
   47loPI   C4A  746   6.883  11.382   9.622  0.1085  0.2572 -0.2046
   47loPI   C5A  747   6.950  11.342   9.174  0.2459 -0.2043 -0.1107
   47loPI   C6A  748   6.832  11.285   8.782  0.3644  0.0023 -0.0718
   47loPI   C1B  749   6.377  11.470  10.571 -0.1496  0.2399  0.0350
   47loPI   C2B  750   6.407  11.529  10.176  0.0838 -0.1813  0.0987
   47loPI   C3B  751   6.328  11.398   9.816  0.0134 -0.4000  0.0236
   47loPI   C4B  752   6.478  11.367   9.332 -0.0392 -0.0810 -0.0917
   48loPI    C1  753   4.840   3.095  11.729  0.0670 -0.1870 -0.0497
   48loPI    C2  754   4.538   3.178  11.977  0.2194  0.3069 -0.0164
   48loPI    C3  755   4.808   2.900  12.076 -0.0914  0.0245  0.0570
   48loPI   PO4  756   4.774   3.067  11.470  0.0176 -0.0086 -0.2463
   48loPI   GL1  757   4.663   3.351  11.140  0.0474 -0.0242 -0.3322
   48loPI   GL2  758   4.444   3.019  10.989 -0.0968 -0.3156  0.0448
   48loPI   C1A  759   4.795   3.416  10.674  0.0779  0.2918 -0.1755
   48loPI   C2A  760   4.802   3.373  10.235  0.0966 -0.1150  0.1779
   48loPI   C3A  761   4.807   3.354   9.839 -0.2248  0.2298  0.0077
   48loPI   C4A  762   4.864   3.429   9.368  0.1625  0.3463 -0.1136
   48loPI   C5A  763   4.901   3.523   8.973  0.3714 -0.1135  0.1774
   48loPI   C6A  764   4.777   3.589   8.589 -0.1009 -0.3760  0.1864
   48loPI   C1B  765   4.447   3.008  10.537 -0.0484  0.1482 -0.0495
   48loPI   C2B  766   4.508   2.982  10.053  0.1745  0.1242 -0.2578
   48loPI   C3B  767   4.451   3.026   9.593  0.0030  0.3100  0.0094
   48loPI   C4B  768   4.509   3.134   9.197  0.2325 -0.3257  0.0249
   49loPI    C1  769   8.712  12.294  11.526 -0.2548  0.0091  0.0357
   49loPI    C2  770   8.596  12.531  11.826 -0.1998 -0.1680  0.1989
   49loPI    C3  771   8.929  12.313  11.861 -0.1470 -0.1258 -0.0253
   49loPI   PO4  772   8.654  12.382  11.325 -0.0689 -0.3255  0.0347
   49loPI   GL1  773   8.640  12.362  10.966  0.0133 -0.0599 -0.1035
   49loPI   GL2  774   8.815  12.572  10.786  0.0938  0.0837 -0.1189
   49loPI   C1A  775   8.616  12.188  10.537  0.0762 -0.3745  0.0288
   49loPI   C2A  776   8.568  12.049  10.128 -0.0118 -0.1497 -0.0769
   49loPI   C3A  777   8.545  11.976   9.654 -0.1824  0.2437 -0.3180
   49loPI   C4A  778   8.518  12.021   9.220 -0.0301  0.1250  0.3616
   49loPI   C5A  779   8.586  12.237   8.832 -0.0798  0.1057  0.0789
   49loPI   C6A  780   8.895  12.161   8.515 -0.0535  0.0121 -0.0781
   49loPI   C1B  781   8.900  12.588  10.362 -0.1201 -0.1778 -0.0147
   49loPI   C2B  782   8.886  12.471  10.023  0.0917 -0.2508 -0.0466
   49loPI   C3B  783   8.836  12.437   9.675  0.2849  0.1766 -0.2061
   49loPI   C4B  784   8.818  12.382   9.286 -0.1136 -0.3815 -0.0824
   50loPI    C1  785   8.344   2.431  11.706 -0.1927 -0.0339  0.1622
   50loPI    C2  786   8.724   2.486  11.818 -0.1607  0.3718 -0.1225
   50loPI    C3  787   8.439   2.440  12.095  0.0919  0.0507  0.0933
   50loPI   PO4  788   8.333   2.518  11.416  0.1146 -0.1725 -0.1721
   50loPI   GL1  789   8.250   2.374  11.015 -0.1362 -0.1217 -0.0905
   50loPI   GL2  790   8.159   2.588  10.950 -0.5183  0.1689 -0.1351
   50loPI   C1A  791   8.630   2.415  10.803 -0.3249 -0.3769  0.1517
   50loPI   C2A  792   8.609   2.503  10.388  0.0985  0.1049 -0.2447
   50loPI   C3A  793   8.572   2.444   9.917  0.1517 -0.2713 -0.0159
   50loPI   C4A  794   8.562   2.533   9.450  0.0565  0.0633 -0.0969
   50loPI   C5A  795   8.443   2.596   9.050  0.0954 -0.3295 -0.1693
   50loPI   C6A  796   8.415   2.952   8.692  0.1849 -0.1444 -0.2110
   50loPI   C1B  797   8.115   2.492  10.529 -0.0996 -0.0571  0.0803
   50loPI   C2B  798   8.004   2.524  10.175  0.4548  0.0527 -0.0211
   50loPI   C3B  799   8.037   2.568   9.720 -0.1235  0.0059 -0.1231
   50loPI   C4B  800   8.026   2.611   9.316  0.1359 -0.2395 -0.0500
   51loPI    C1  801   0.880   2.862  11.469  0.1219 -0.2563  0.2872
   51loPI    C2  802   0.569   3.111  11.433  0.3696 -0.0022 -0.2041
   51loPI    C3  803   0.582   2.848  11.734 -0.2555  0.0661 -0.1052
   51loPI   PO4  804   0.914   2.761  11.266 -0.1632 -0.0453 -0.1314
   51loPI   GL1  805   0.779   2.472  10.938 -0.2288  0.2747  0.2679
   51loPI   GL2  806   0.622   2.190  10.971  0.1097  0.0890 -0.3370
   51loPI   C1A  807   0.877   2.694  10.473  0.2917 -0.3322 -0.1407
   51loPI   C2A  808   0.843   2.764  10.057 -0.1102 -0.2422  0.1743
   51loPI   C3A  809   0.856   2.573   9.583 -0.3107 -0.0433  0.0742
   51loPI   C4A  810   0.938   2.537   9.089 -0.0999  0.0457 -0.0334
   51loPI   C5A  811   1.221   2.347   8.716 -0.0641  0.0870 -0.0580
   51loPI   C6A  812   1.006   2.039   8.310  0.2660  0.0078 -0.0433
   51loPI   C1B  813   0.601   2.211  10.509 -0.0211 -0.1456  0.4013
   51loPI   C2B  814   0.603   2.319  10.038 -0.2841  0.0813 -0.1757
   51loPI   C3B  815   0.555   2.200   9.658 -0.0328 -0.0349  0.0117
   51loPI   C4B  816   0.523   2.072   9.184 -0.1029 -0.0561  0.0661
   52loPI    C1  817   4.173   2.315  11.808 -0.0423  0.1548  0.1476
   52loPI    C2  818   4.453   2.107  12.005 -0.0301  0.0895  0.0620
   52loPI    C3  819   4.140   2.259  12.203  0.0621  0.1569  0.1568
   52loPI   PO4  820   4.244   2.349  11.580  0.2454 -0.1321  0.3221
   52loPI   GL1  821   4.347   2.255  11.177 -0.1615  0.1288  0.1230
   52loPI   GL2  822   4.429   2.484  10.880  0.0190 -0.1926  0.1192
   52loPI   C1A  823   4.209   2.074  10.836 -0.0899  0.4267 -0.0264
   52loPI   C2A  824   4.372   2.104  10.455 -0.3025 -0.1193 -0.4898
   52loPI   C3A  825   4.411   2.164  10.058 -0.3075  0.0862  0.2550
   52loPI   C4A  826   4.401   2.125   9.585  0.0114 -0.0412 -0.1016
   52loPI   C5A  827   4.242   2.170   9.182  0.1924 -0.2197 -0.0673
   52loPI   C6A  828   4.106   2.346   8.834  0.0638  0.4166  0.3190
   52loPI   C1B  829   4.676   2.578  10.536  0.1100 -0.0465 -0.1546
   52loPI   C2B  830   4.752   2.530  10.154 -0.2185  0.2087  0.1848
   52loPI   C3B  831   4.650   2.543   9.777 -0.0299  0.3010  0.1398
   52loPI   C4B  832   4.615   2.588   9.347 -0.0114 -0.3869 -0.2808
   53loPI    C1  833  15.302   4.810  11.878 -0.3437 -0.1109  0.2466
   53loPI    C2  834  15.378   4.418  11.905  0.4546  0.0179  0.1065
   53loPI    C3  835  15.235   4.616  12.222 -0.2541 -0.4298  0.0878
   53loPI   PO4  836  15.218   4.793  11.584 -0.0359  0.0403 -0.0585
   53loPI   GL1  837  15.198   4.718  11.187 -0.0047  0.0033  0.2067
   53loPI   GL2  838  15.000   4.630  11.038  0.1574 -0.0556  0.1732
   53loPI   C1A  839  15.312   4.975  10.824  0.1961  0.2466  0.2508
   53loPI   C2A  840  15.307   4.831  10.440 -0.2853 -0.3154 -0.3357
   53loPI   C3A  841  15.304   4.743   9.970 -0.1722  0.0754 -0.1173
   53loPI   C4A  842  15.289   4.785   9.565 -0.1081  0.0766  0.1745
   53loPI   C5A  843  15.159   4.757   9.091 -0.0672  0.1374 -0.1293
   53loPI   C6A  844  15.247   4.606   8.630 -0.0013  0.0724 -0.2712
   53loPI   C1B  845  15.099   4.469  10.703 -0.0435 -0.2553 -0.2528
   53loPI   C2B  846  15.020   4.443  10.249  0.0756  0.1303 -0.0770
   53loPI   C3B  847  14.953   4.338   9.798 -0.0746 -0.1058  0.1828
   53loPI   C4B  848  15.004   4.374   9.402  0.0761  0.0067 -0.0653
   54loPI    C1  849   2.668  14.812  11.544 -0.1682 -0.0900  0.0311
   54loPI    C2  850   2.878  15.108  11.714 -0.1498 -0.0970  0.0206
   54loPI    C3  851   2.840  14.756  11.901  0.1813 -0.2304 -0.1543
   54loPI   PO4  852   2.781  14.876  11.276  0.1816 -0.3063 -0.2077
   54loPI   GL1  853   2.503  14.766  10.953 -0.0759  0.2385  0.1082
   54loPI   GL2  854   2.139  14.645  10.957 -0.0114 -0.0961 -0.0533
   54loPI   C1A  855   2.574  14.664  10.506  0.2776 -0.0218 -0.0241
   54loPI   C2A  856   2.773  14.612  10.158  0.1579 -0.4229 -0.1678
   54loPI   C3A  857   3.173  14.555  10.108 -0.0196  0.2640 -0.1179
   54loPI   C4A  858   3.603  14.520  10.023 -0.1195 -0.2181  0.3598
   54loPI   C5A  859   3.675  14.563   9.564 -0.0259  0.0260  0.0368
   54loPI   C6A  860   3.543  14.655   9.179 -0.0210 -0.2278  0.3197
   54loPI   C1B  861   2.076  14.755  10.567  0.2221 -0.2453 -0.0143
   54loPI   C2B  862   2.160  14.794  10.163  0.0529  0.1688 -0.0191
   54loPI   C3B  863   2.345  14.650   9.859 -0.0734 -0.3949  0.3605
   54loPI   C4B  864   2.684  14.695   9.600 -0.1878  0.1896  0.0812
   55loPI    C1  865  14.938   2.927  11.338 -0.1498 -0.2978 -0.0059
   55loPI    C2  866  15.035   3.210  11.603 -0.1629 -0.1450 -0.1623
   55loPI    C3  867  14.976   2.834  11.725  0.2855 -0.1732 -0.0139
   55loPI   PO4  868  14.901   3.022  11.182 -0.1080 -0.0551 -0.2280
   55loPI   GL1  869  15.098   3.117  10.781 -0.1680  0.1254 -0.1488
   55loPI   GL2  870  15.093   3.484  10.899  0.2808  0.0062 -0.1399
   55loPI   C1A  871  15.038   3.106  10.277  0.1449 -0.1673 -0.1252
   55loPI   C2A  872  15.005   2.977   9.834 -0.0769 -0.0711 -0.1297
   55loPI   C3A  873  15.076   2.928   9.402  0.0778 -0.2215 -0.1715
   55loPI   C4A  874  15.043   2.865   8.993 -0.0627  0.2975 -0.0647
   55loPI   C5A  875  14.764   3.027   8.688 -0.1275 -0.1492 -0.1365
   55loPI   C6A  876  14.450   3.380   8.839  0.1074  0.0770  0.1281
   55loPI   C1B  877  14.954   3.570  10.422 -0.0302  0.2100 -0.3833
   55loPI   C2B  878  14.861   3.524   9.998  0.0819 -0.0106 -0.1005
   55loPI   C3B  879  14.803   3.391   9.633 -0.0559  0.1153 -0.1915
   55loPI   C4B  880  14.849   3.443   9.167  0.3137 -0.2549 -0.1184
   56loPI    C1  881  10.762  13.441  11.515 -0.3484  0.2160  0.1260
   56loPI    C2  882  11.006  13.755  11.477 -0.1427  0.0729  0.2416
   56loPI    C3  883  10.623  13.810  11.575 -0.1477  0.2967  0.1030
   56loPI   PO4  884  10.801  13.224  11.290  0.0285 -0.1209  0.2169
   56loPI   GL1  885  10.935  13.148  10.985 -0.0098 -0.0849 -0.0226
   56loPI   GL2  886  10.770  13.334  10.754  0.3840 -0.0040  0.0970
   56loPI   C1A  887  11.074  12.902  10.541  0.1777  0.1782  0.1311
   56loPI   C2A  888  11.223  12.708  10.258  0.0430  0.0246 -0.0696
   56loPI   C3A  889  11.291  12.617   9.887  0.1333 -0.1157  0.0878
   56loPI   C4A  890  11.278  12.700   9.535 -0.0627  0.2637 -0.0174
   56loPI   C5A  891  11.257  12.637   9.155  0.0356  0.1670  0.0101
   56loPI   C6A  892  11.106  12.623   8.710  0.1935 -0.1499  0.0309
   56loPI   C1B  893  10.591  13.224  10.341  0.3229 -0.0600 -0.3911
   56loPI   C2B  894  10.472  13.244   9.925 -0.4044  0.0993 -0.2201
   56loPI   C3B  895  10.527  13.210   9.458  0.1597  0.1430 -0.1214
   56loPI   C4B  896  10.713  13.298   9.045  0.0935 -0.0021 -0.1448
   57loPI    C1  897   6.006   2.157  11.636 -0.0402 -0.0148  0.1192
   57loPI    C2  898   6.101   2.531  11.739  0.1116 -0.0462  0.0952
   57loPI    C3  899   6.265   2.223  11.933 -0.0253 -0.1006  0.1255
   57loPI   PO4  900   6.042   2.103  11.361 -0.1377  0.1312 -0.2770
   57loPI   GL1  901   5.746   1.870  11.103  0.1169 -0.2190  0.2450
   57loPI   GL2  902   6.008   1.624  11.117 -0.0467  0.3181 -0.0605
   57loPI   C1A  903   5.825   1.947  10.662  0.0684 -0.1948  0.0914
   57loPI   C2A  904   5.903   1.896  10.239  0.3404  0.1798 -0.5953
   57loPI   C3A  905   5.898   1.943   9.787 -0.1722 -0.4284 -0.2162
   57loPI   C4A  906   5.962   1.972   9.381 -0.2135  0.2895 -0.0369
   57loPI   C5A  907   5.950   2.096   8.952 -0.1934  0.1572 -0.0268
   57loPI   C6A  908   6.264   2.397   8.722  0.0001  0.0067  0.1009
   57loPI   C1B  909   6.063   1.473  10.689  0.1718 -0.2653  0.3158
   57loPI   C2B  910   6.171   1.511  10.242  0.1675 -0.0209 -0.1515
   57loPI   C3B  911   6.101   1.520   9.781 -0.3749  0.0436 -0.1752
   57loPI   C4B  912   6.086   1.470   9.354  0.3758 -0.1864  0.2062
   58loPI    C1  913   7.612  11.826  11.380  0.1662  0.0703  0.1382
   58loPI    C2  914   7.393  12.020  11.653  0.0998  0.0691  0.0862
   58loPI    C3  915   7.514  11.645  11.724  0.1061  0.0785  0.1254
   58loPI   PO4  916   7.428  11.897  11.173  0.1065  0.3397  0.0214
   58loPI   GL1  917   7.360  11.671  10.891 -0.3035 -0.2035 -0.0598
   58loPI   GL2  918   7.370  11.344  10.744 -0.5074 -0.0857  0.0866
   58loPI   C1A  919   7.325  11.781  10.484 -0.0403 -0.2557  0.1018
   58loPI   C2A  920   7.302  11.818  10.160 -0.1333  0.1877 -0.1426
   58loPI   C3A  921   7.173  11.777   9.745  0.0309 -0.2182  0.0433
   58loPI   C4A  922   7.296  11.693   9.385  0.0692  0.1399  0.0892
   58loPI   C5A  923   7.147  11.760   8.925  0.4293  0.0826  0.0369
   58loPI   C6A  924   7.352  11.643   8.607  0.1698 -0.2061  0.0414
   58loPI   C1B  925   7.432  11.298  10.337  0.0500 -0.1902  0.0969
   58loPI   C2B  926   7.333  11.298   9.993 -0.1009  0.1432 -0.0192
   58loPI   C3B  927   7.445  11.222   9.535  0.4260 -0.2801  0.1079
   58loPI   C4B  928   7.429  11.320   9.051 -0.1325  0.0253  0.0551
   59loPI    C1  929  11.225   9.262  11.413  0.0440 -0.0114 -0.2246
   59loPI    C2  930  10.878   9.117  11.549  0.0416  0.1841 -0.0171
   59loPI    C3  931  11.184   9.172  11.801  0.2558 -0.0743 -0.2152
   59loPI   PO4  932  11.298   9.220  11.232 -0.2029  0.0126  0.0156
   59loPI   GL1  933  11.103   9.348  10.823  0.1078 -0.0254  0.1817
   59loPI   GL2  934  11.477   9.364  10.779  0.2434  0.0247  0.1694
   59loPI   C1A  935  11.075   9.501  10.488  0.0983  0.4450 -0.0265
   59loPI   C2A  936  11.005   9.500  10.040  0.1384 -0.0376 -0.1872
   59loPI   C3A  937  11.060   9.466   9.579 -0.5229  0.2460  0.1843
   59loPI   C4A  938  11.093   9.490   9.190 -0.4677 -0.0075  0.0672
   59loPI   C5A  939  11.188   9.723   8.717  0.1031  0.2229  0.0099
   59loPI   C6A  940  11.408   9.986   8.468 -0.0119  0.0494  0.0591
   59loPI   C1B  941  11.541   9.398  10.361 -0.1835  0.0644  0.3112
   59loPI   C2B  942  11.591   9.453   9.933 -0.1709 -0.3490  0.0039
   59loPI   C3B  943  11.534   9.398   9.566  0.2619  0.0431  0.1440
   59loPI   C4B  944  11.603   9.378   9.110 -0.0057 -0.2494 -0.1760
   60loPI    C1  945  12.678   6.522  11.644 -0.1193  0.2444  0.0108
   60loPI    C2  946  12.873   6.238  11.442 -0.0472  0.2576  0.0613
   60loPI    C3  947  12.954   6.299  11.829 -0.0442  0.3638  0.0442
   60loPI   PO4  948  12.413   6.559  11.445 -0.1658  0.1242 -0.4270
   60loPI   GL1  949  12.351   6.553  11.105  0.2910  0.2180  0.0109
   60loPI   GL2  950  12.153   6.690  10.921  0.1188 -0.0382  0.4902
   60loPI   C1A  951  12.363   6.262  10.707 -0.2067 -0.0458 -0.1938
   60loPI   C2A  952  12.493   6.167  10.309 -0.0816  0.0038  0.0543
   60loPI   C3A  953  12.353   6.192   9.928  0.0594 -0.2606 -0.0334
   60loPI   C4A  954  12.347   6.089   9.439  0.4058  0.0779 -0.1994
   60loPI   C5A  955  12.394   6.146   9.000 -0.1418 -0.1183  0.0347
   60loPI   C6A  956  12.663   6.545   8.819 -0.1432  0.1540 -0.0189
   60loPI   C1B  957  12.253   6.710  10.489  0.1263  0.0585  0.2108
   60loPI   C2B  958  12.171   6.597  10.087 -0.0324 -0.1554 -0.0233
   60loPI   C3B  959  12.181   6.638   9.630  0.2284  0.1737  0.1414
   60loPI   C4B  960  12.225   6.565   9.180  0.0382 -0.1873 -0.0342
   61loPI    C1  961  17.367  11.315  11.589  0.0178 -0.1609  0.0301
   61loPI    C2  962  16.980  11.325  11.690  0.0303 -0.1136  0.0737
   61loPI    C3  963  17.252  11.189  11.950  0.0593 -0.0164  0.0947
   61loPI   PO4  964  17.283  11.282  11.321  0.0537 -0.2574  0.3241
   61loPI   GL1  965  17.275  11.369  10.985  0.1249  0.1276 -0.2239
   61loPI   GL2  966  17.128  11.024  10.894  0.0973 -0.0170 -0.2603
   61loPI   C1A  967  17.352  11.508  10.604 -0.2391 -0.0887  0.0178
   61loPI   C2A  968  17.397  11.449  10.111 -0.1233 -0.1489  0.3159
   61loPI   C3A  969  17.506  11.368   9.693  0.1466 -0.0242  0.0817
   61loPI   C4A  970  17.386  11.374   9.241 -0.0273 -0.2602  0.2338
   61loPI   C5A  971  17.187  11.573   8.924  0.1827  0.2823  0.0229
   61loPI   C6A  972  16.657  11.787   8.785 -0.0106  0.0609 -0.1426
   61loPI   C1B  973  17.122  11.001  10.475 -0.0656 -0.2125  0.1715
   61loPI   C2B  974  17.104  11.014  10.066  0.1365  0.1088  0.0750
   61loPI   C3B  975  17.164  10.937   9.631 -0.1219 -0.2606 -0.0064
   61loPI   C4B  976  17.168  10.950   9.154  0.0986  0.0318 -0.2920
   62loPI    C1  977  17.020  13.077  12.026 -0.0981  0.0999  0.0023
   62loPI    C2  978  16.646  13.217  12.047 -0.0776  0.1157  0.3118
   62loPI    C3  979  16.929  13.366  12.287  0.0920 -0.0093  0.1923
   62loPI   PO4  980  17.001  12.954  11.784  0.0881  0.0174  0.2166
   62loPI   GL1  981  16.901  13.128  11.361 -0.1355 -0.2130  0.2170
   62loPI   GL2  982  16.867  12.993  11.004 -0.1438  0.2642 -0.0811
   62loPI   C1A  983  16.737  13.449  11.051 -0.0954 -0.1686 -0.2624
   62loPI   C2A  984  16.662  13.516  10.607  0.2044  0.0921 -0.4823
   62loPI   C3A  985  16.737  13.455  10.193 -0.0258  0.1099 -0.2084
   62loPI   C4A  986  16.741  13.290   9.795  0.2023  0.2284  0.1613
   62loPI   C5A  987  16.764  13.353   9.335  0.1691  0.2675  0.0942
   62loPI   C6A  988  16.733  13.194   8.889  0.3793 -0.2762 -0.0512
   62loPI   C1B  989  16.808  12.998  10.626  0.1658 -0.0701 -0.1267
   62loPI   C2B  990  16.853  12.944  10.159  0.1795 -0.1866 -0.2294
   62loPI   C3B  991  16.899  12.803   9.670  0.0774  0.1652  0.5428
   62loPI   C4B  992  16.933  12.883   9.190 -0.3863  0.0691 -0.3561
   63loPI    C1  993   7.045  13.340  11.711 -0.1552 -0.3346  0.1383
   63loPI    C2  994   6.901  13.590  11.989  0.0521 -0.1096  0.0467
   63loPI    C3  995   7.245  13.397  12.053  0.0753 -0.0950 -0.0331
   63loPI   PO4  996   7.016  13.408  11.467  0.1185  0.0350  0.0115
   63loPI   GL1  997   7.169  13.501  11.146  0.0551 -0.3456 -0.1069
   63loPI   GL2  998   7.398  13.630  11.040  0.2519  0.0723  0.1358
   63loPI   C1A  999   6.934  13.578  10.753  0.0453  0.2406 -0.1231
   63loPI   C2A 1000   6.991  13.600  10.268 -0.3166 -0.2885  0.1792
   63loPI   C3A 1001   6.943  13.626   9.812  0.2140  0.1258 -0.0515
   63loPI   C4A 1002   7.016  13.688   9.375 -0.0654 -0.0044  0.0350
   63loPI   C5A 1003   6.993  13.592   8.939  0.1286 -0.0989  0.0524
   63loPI   C6A 1004   6.826  13.213   8.754 -0.0269 -0.0095  0.1539
   63loPI   C1B 1005   7.455  13.531  10.547  0.2202 -0.0480 -0.1643
   63loPI   C2B 1006   7.448  13.596  10.156  0.0796 -0.2169  0.0690
   63loPI   C3B 1007   7.464  13.545   9.718 -0.2049  0.0209 -0.1374
   63loPI   C4B 1008   7.473  13.522   9.400 -0.0829 -0.1506  0.2944
   64loPI    C1 1009   7.912   0.386  11.749  0.2505  0.1702 -0.2776
   64loPI    C2 1010   8.178   0.380  12.048  0.0580  0.0066 -0.1067
   64loPI    C3 1011   7.789   0.424  12.128  0.0301  0.2365 -0.3542
   64loPI   PO4 1012   7.976   0.566  11.582 -0.0431 -0.0345 -0.0436
   64loPI   GL1 1013   8.064   0.632  11.161  0.1521  0.1461  0.2863
   64loPI   GL2 1014   8.329   0.452  11.093  0.2142 -0.0800  0.1925
   64loPI   C1A 1015   7.727   0.690  10.938 -0.3236  0.3446  0.2500
   64loPI   C2A 1016   7.768   0.825  10.524 -0.2602  0.3046  0.0679
   64loPI   C3A 1017   7.825   0.847  10.082  0.0773 -0.2709  0.1154
   64loPI   C4A 1018   7.792   0.822   9.626 -0.1620  0.0002  0.0040
   64loPI   C5A 1019   7.821   0.819   9.199  0.1150 -0.0770 -0.0967
   64loPI   C6A 1020   8.090   0.884   8.868  0.1578 -0.1567 -0.2110
   64loPI   C1B 1021   8.307   0.670  10.728  0.4499 -0.2979  0.2026
   64loPI   C2B 1022   8.297   0.712  10.310 -0.0976 -0.3541 -0.0384
   64loPI   C3B 1023   8.336   0.793   9.890  0.0543 -0.0371  0.2267
   64loPI   C4B 1024   8.283   0.779   9.516  0.5989  0.1688 -0.0080
   65loPI    C1 1025  13.161  16.821  11.533 -0.0253 -0.1010  0.0073
   65loPI    C2 1026  13.253  17.076  11.828 -0.3608  0.0525 -0.0165
   65loPI    C3 1027  13.085  16.723  11.914 -0.0549 -0.0908  0.0040
   65loPI   PO4 1028  13.372  16.859  11.412  0.3483  0.0792 -0.0333
   65loPI   GL1 1029  13.491  17.100  11.080 -0.0499 -0.2770 -0.0848
   65loPI   GL2 1030  13.850  17.040  10.940 -0.1632 -0.0415 -0.1693
   65loPI   C1A 1031  13.281  17.042  10.739 -0.2749 -0.0359  0.0139
   65loPI   C2A 1032  13.233  16.984  10.206 -0.0449  0.1386  0.0861
   65loPI   C3A 1033  13.247  16.886   9.800  0.4578  0.2195 -0.1190
   65loPI   C4A 1034  13.207  16.916   9.416  0.1955 -0.0511 -0.0953
   65loPI   C5A 1035  13.298  16.792   9.003  0.0047 -0.1696 -0.1057
   65loPI   C6A 1036  13.211  16.538   8.614  0.0022 -0.0027  0.2297
   65loPI   C1B 1037  13.802  16.951  10.479  0.2859  0.0872 -0.2854
   65loPI   C2B 1038  13.809  16.953  10.034  0.3127 -0.0614  0.0837
   65loPI   C3B 1039  13.725  16.828   9.569 -0.1813 -0.1174  0.0664
   65loPI   C4B 1040  13.836  16.663   9.181 -0.0465  0.4831 -0.1309
   66loPI    C1 1041  14.587   6.300  11.507  0.0246 -0.0690  0.0730
   66loPI    C2 1042  14.649   6.103  11.850 -0.1668 -0.0842  0.0996
   66loPI    C3 1043  14.607   6.501  11.853  0.0655 -0.0580  0.0643
   66loPI   PO4 1044  14.630   6.060  11.350  0.0822  0.0842  0.3346
   66loPI   GL1 1045  14.874   6.104  11.016 -0.1416 -0.4334  0.1124
   66loPI   GL2 1046  14.653   6.364  10.957 -0.1782 -0.3180 -0.0634
   66loPI   C1A 1047  14.844   5.916  10.580  0.0930 -0.3435  0.0543
   66loPI   C2A 1048  14.912   5.800  10.142  0.1819  0.0154  0.3542
   66loPI   C3A 1049  14.864   5.747   9.794 -0.1321  0.1508  0.0050
   66loPI   C4A 1050  14.837   5.698   9.392  0.0894  0.2490 -0.0728
   66loPI   C5A 1051  14.942   5.741   8.970  0.1665 -0.1691  0.1913
   66loPI   C6A 1052  15.148   5.722   8.541  0.2592 -0.0699 -0.0469
   66loPI   C1B 1053  14.653   6.372  10.503 -0.0913  0.0428 -0.0097
   66loPI   C2B 1054  14.730   6.288  10.082  0.0312 -0.0006  0.1455
   66loPI   C3B 1055  14.709   6.165   9.642  0.0120 -0.1255 -0.2418
   66loPI   C4B 1056  14.833   6.313   9.130 -0.2665 -0.2253  0.0534
   67loPI    C1 1057   0.958  16.457  11.700  0.2745 -0.0376 -0.1429
   67loPI    C2 1058   0.864  16.100  11.854  0.2223 -0.0157 -0.1241
   67loPI    C3 1059   0.794  16.433  12.063  0.4174 -0.0040 -0.0753
   67loPI   PO4 1060   0.916  16.513  11.394 -0.1318  0.2030  0.0481
   67loPI   GL1 1061   0.886  16.346  11.004  0.0177 -0.4087 -0.2071
   67loPI   GL2 1062   0.565  16.379  10.875 -0.4593  0.0375  0.2181
   67loPI   C1A 1063   1.041  16.249  10.606 -0.1231 -0.0556  0.0734
   67loPI   C2A 1064   1.147  16.211  10.127 -0.2319 -0.1567 -0.1140
   67loPI   C3A 1065   1.077  16.343   9.804 -0.2138  0.0033  0.3237
   67loPI   C4A 1066   1.135  16.191   9.359  0.1592  0.1275 -0.1136
   67loPI   C5A 1067   1.034  16.175   8.958 -0.4659  0.0267  0.2061
   67loPI   C6A 1068   0.728  16.229   8.628  0.5324 -0.1548  0.2344
   67loPI   C1B 1069   0.474  16.307  10.451 -0.3400  0.4706  0.1430
   67loPI   C2B 1070   0.589  16.360  10.035 -0.2855 -0.0969 -0.3256
   67loPI   C3B 1071   0.594  16.289   9.569 -0.0553  0.0617 -0.2686
   67loPI   C4B 1072   0.609  16.331   9.125  0.0297  0.0609 -0.2628
   68loPI    C1 1073  16.636  15.464  11.801 -0.1665  0.0609 -0.0709
   68loPI    C2 1074  16.406  15.138  11.829  0.0993 -0.1114  0.1609
   68loPI    C3 1075  16.418  15.401  12.130  0.2310 -0.1212  0.1649
   68loPI   PO4 1076  16.650  15.510  11.581  0.0043  0.0441  0.1692
   68loPI   GL1 1077  16.511  15.604  11.185  0.1905 -0.2206 -0.0366
   68loPI   GL2 1078  16.612  15.353  11.107 -0.1322 -0.0636 -0.0271
   68loPI   C1A 1079  16.592  15.754  10.801 -0.0017 -0.3883  0.0921
   68loPI   C2A 1080  16.646  15.705  10.362 -0.1008 -0.0125 -0.1030
   68loPI   C3A 1081  16.725  15.650   9.963  0.1941 -0.1434  0.0578
   68loPI   C4A 1082  16.685  15.624   9.505 -0.0576 -0.1526  0.1181
   68loPI   C5A 1083  16.642  15.519   9.062  0.0897 -0.0067 -0.0382
   68loPI   C6A 1084  16.613  15.225   8.784 -0.1390 -0.0381  0.0969
   68loPI   C1B 1085  16.818  15.252  10.755  0.1124  0.1575 -0.2431
   68loPI   C2B 1086  16.908  15.255  10.343  0.1178  0.2617  0.0932
   68loPI   C3B 1087  16.866  15.200   9.872 -0.4301 -0.0378  0.1168
   68loPI   C4B 1088  16.908  15.168   9.395 -0.3338  0.0341 -0.1100
   69loPI    C1 1089  11.953  15.304  11.242 -0.2063 -0.1996 -0.0967
   69loPI    C2 1090  12.064  15.457  11.594  0.0478 -0.1119 -0.2122
   69loPI    C3 1091  11.718  15.259  11.562 -0.0882  0.0800  0.0322
   69loPI   PO4 1092  12.167  15.197  11.151  0.1408  0.4890 -0.0453
   69loPI   GL1 1093  12.463  15.315  10.889 -0.1475  0.0433 -0.2329
   69loPI   GL2 1094  12.101  15.366  10.686  0.1262 -0.1784 -0.0004
   69loPI   C1A 1095  12.553  15.301  10.414 -0.0766  0.2262  0.1369
   69loPI   C2A 1096  12.540  15.264   9.983 -0.1845 -0.0268 -0.3263
   69loPI   C3A 1097  12.611  15.138   9.581  0.1864 -0.4984  0.0123
   69loPI   C4A 1098  12.515  15.170   9.216  0.1833  0.0220 -0.1670
   69loPI   C5A 1099  12.533  15.520   8.862  0.2617  0.1316 -0.1058
   69loPI   C6A 1100  12.915  15.649   8.784  0.0240  0.0395 -0.1444
   69loPI   C1B 1101  12.034  15.407  10.299  0.1136 -0.2107  0.0621
   69loPI   C2B 1102  11.998  15.378   9.917 -0.3919  0.0307 -0.2586
   69loPI   C3B 1103  12.094  15.175   9.512 -0.1433 -0.2299  0.0556
   69loPI   C4B 1104  12.060  15.197   8.957 -0.0200  0.1672 -0.1014
   70loPI    C1 1105  15.521  15.150  11.779 -0.0921 -0.1114 -0.0091
   70loPI    C2 1106  15.549  15.481  12.003 -0.3621 -0.0059 -0.1277
   70loPI    C3 1107  15.412  15.141  12.163 -0.1066 -0.0566 -0.0118
   70loPI   PO4 1108  15.701  15.138  11.664  0.0934 -0.4128 -0.0919
   70loPI   GL1 1109  15.748  15.117  11.294 -0.0608  0.0595  0.2619
   70loPI   GL2 1110  15.580  14.952  11.038  0.0843  0.2876  0.2408
   70loPI   C1A 1111  15.794  15.294  10.837 -0.1299 -0.0364 -0.2009
   70loPI   C2A 1112  15.868  15.293  10.352 -0.2114  0.0043 -0.0998
   70loPI   C3A 1113  15.848  15.283   9.974  0.3414 -0.0408 -0.1051
   70loPI   C4A 1114  15.893  15.209   9.453 -0.0638 -0.1259  0.1557
   70loPI   C5A 1115  15.983  15.291   9.057 -0.2161 -0.0803  0.1312
   70loPI   C6A 1116  15.851  15.295   8.633 -0.0582  0.2897 -0.2764
   70loPI   C1B 1117  15.502  14.935  10.645 -0.0252 -0.2930 -0.0024
   70loPI   C2B 1118  15.587  14.896  10.183  0.1237  0.1067  0.0253
   70loPI   C3B 1119  15.693  14.804   9.782  0.1038 -0.2906  0.1899
   70loPI   C4B 1120  15.635  14.711   9.400 -0.0289 -0.0755 -0.1761
   71loPI    C1 1121  -0.047   5.544  11.562  0.0168  0.0047  0.1734
   71loPI    C2 1122   0.273   5.695  11.748  0.2262 -0.2899  0.0600
   71loPI    C3 1123  -0.063   5.626  11.953  0.2386  0.0040  0.1841
   71loPI   PO4 1124  -0.039   5.649  11.358 -0.2044  0.0138  0.2012
   71loPI   GL1 1125   0.088   5.921  11.202 -0.2919 -0.0051 -0.0064
   71loPI   GL2 1126   0.399   5.878  11.003  0.1424 -0.4210  0.1797
   71loPI   C1A 1127  -0.059   5.954  10.794 -0.1477 -0.0303 -0.0432
   71loPI   C2A 1128  -0.006   5.996  10.413 -0.2088  0.0127  0.0076
   71loPI   C3A 1129   0.028   5.877   9.926  0.0300 -0.3952 -0.1683
   71loPI   C4A 1130  -0.035   5.942   9.584  0.0719  0.0794 -0.0641
   71loPI   C5A 1131  -0.014   5.888   9.066  0.1160 -0.0645  0.1666
   71loPI   C6A 1132  -0.257   5.744   8.804  0.3122 -0.0393 -0.0326
   71loPI   C1B 1133   0.518   5.880  10.623  0.2088 -0.0095 -0.0757
   71loPI   C2B 1134   0.501   5.978  10.149  0.0834 -0.1417 -0.2544
   71loPI   C3B 1135   0.455   5.970   9.674  0.1071 -0.0238 -0.4236
   71loPI   C4B 1136   0.503   5.937   9.233  0.0915 -0.2174  0.0099
   72loPI    C1 1137   2.301   3.759  11.732  0.0125 -0.1186  0.0173
   72loPI    C2 1138   1.960   3.590  11.856 -0.0461  0.0772  0.1270
   72loPI    C3 1139   2.311   3.455  11.991 -0.0934  0.0549  0.2283
   72loPI   PO4 1140   2.347   3.784  11.510 -0.1967  0.1480  0.3413
   72loPI   GL1 1141   2.266   4.084  11.146  0.0461  0.0821 -0.2275
   72loPI   GL2 1142   2.353   3.863  10.986 -0.1734 -0.1256  0.1153
   72loPI   C1A 1143   2.091   4.303  10.766  0.1196  0.2110  0.1650
   72loPI   C2A 1144   2.147   4.365  10.313 -0.0239  0.3617 -0.2227
   72loPI   C3A 1145   2.106   4.409   9.892  0.0197 -0.0121 -0.3942
   72loPI   C4A 1146   2.060   4.350   9.399 -0.1758  0.0061 -0.0286
   72loPI   C5A 1147   2.029   4.336   8.992  0.3055  0.3746  0.1059
   72loPI   C6A 1148   1.868   4.204   8.600 -0.0582  0.1822 -0.2707
   72loPI   C1B 1149   2.295   3.845  10.523  0.0865  0.0625  0.0248
   72loPI   C2B 1150   2.285   3.934  10.138  0.0861  0.2124  0.1068
   72loPI   C3B 1151   2.182   3.878   9.718  0.0643  0.2636  0.1739
   72loPI   C4B 1152   2.333   3.909   9.354  0.0942 -0.0124  0.2775
   73loPI    C1 1153   0.154   6.389  11.465 -0.0536  0.0444 -0.1266
   73loPI    C2 1154  -0.036   6.119  11.691 -0.1307  0.1415 -0.0743
   73loPI    C3 1155   0.092   6.461  11.854  0.1144  0.0655 -0.1029
   73loPI   PO4 1156  -0.020   6.473  11.320  0.2791  0.1612 -0.4899
   73loPI   GL1 1157  -0.161   6.451  10.926 -0.0624 -0.0937  0.1259
   73loPI   GL2 1158  -0.450   6.414  10.884 -0.0782  0.3219  0.1259
   73loPI   C1A 1159  -0.189   6.495  10.458  0.0428 -0.1090  0.1546
   73loPI   C2A 1160  -0.223   6.418  10.056  0.0228 -0.3438 -0.0841
   73loPI   C3A 1161  -0.193   6.391   9.585  0.0875  0.1770 -0.1649
   73loPI   C4A 1162  -0.137   6.354   9.161  0.0127  0.0970 -0.0455
   73loPI   C5A 1163  -0.053   6.263   8.716  0.0347 -0.1467  0.1530
   73loPI   C6A 1164   0.137   5.982   8.424 -0.1094  0.2898 -0.3277
   73loPI   C1B 1165  -0.741   6.488  10.567  0.0792 -0.1216 -0.1369
   73loPI   C2B 1166  -0.708   6.552  10.116 -0.0421 -0.1623 -0.1333
   73loPI   C3B 1167  -0.662   6.444   9.689 -0.1008  0.1337  0.2039
   73loPI   C4B 1168  -0.693   6.565   9.334  0.2166 -0.1351 -0.1277
   74loPI    C1 1169   6.761   1.896  11.884  0.1369  0.0984 -0.1160
   74loPI    C2 1170   7.057   2.154  11.957  0.0573  0.1581 -0.0013
   74loPI    C3 1171   6.726   2.161  12.181  0.0275 -0.0011 -0.0389
   74loPI   PO4 1172   6.800   1.772  11.629 -0.0928 -0.1274  0.1448
   74loPI   GL1 1173   6.855   1.734  11.258  0.1710  0.3016 -0.0111
   74loPI   GL2 1174   6.473   1.766  11.228  0.3717 -0.1587  0.0886
   74loPI   C1A 1175   7.075   1.436  10.940  0.1106  0.1977 -0.0678
   74loPI   C2A 1176   7.149   1.249  10.542  0.0784  0.2798 -0.0805
   74loPI   C3A 1177   7.086   1.260  10.202  0.1500 -0.0428  0.3149
   74loPI   C4A 1178   7.100   1.358   9.762  0.0149 -0.0987 -0.0625
   74loPI   C5A 1179   7.111   1.329   9.303 -0.2257 -0.2786  0.0034
   74loPI   C6A 1180   7.226   1.069   9.015  0.1669 -0.0678  0.1327
   74loPI   C1B 1181   6.350   1.870  10.793  0.1761 -0.0807  0.0107
   74loPI   C2B 1182   6.457   1.927  10.389  0.0759  0.2829 -0.0570
   74loPI   C3B 1183   6.378   1.876   9.972 -0.0687  0.0493 -0.0129
   74loPI   C4B 1184   6.407   1.868   9.548  0.3598 -0.2080 -0.1981
   75loPI    C1 1185  12.428   7.655  11.530  0.1806  0.1471 -0.0014
   75loPI    C2 1186  12.553   7.411  11.820  0.0705  0.1018  0.0087
   75loPI    C3 1187  12.461   7.791  11.904 -0.2206  0.0164  0.0865
   75loPI   PO4 1188  12.657   7.530  11.315 -0.3811  0.1626 -0.1858
   75loPI   GL1 1189  12.760   7.613  10.883 -0.0325 -0.0435 -0.0896
   75loPI   GL2 1190  12.639   7.878  10.785 -0.1385  0.1881 -0.0152
   75loPI   C1A 1191  12.883   7.416  10.537  0.1199 -0.2594  0.2192
   75loPI   C2A 1192  12.897   7.458  10.062  0.1165  0.0229  0.0505
   75loPI   C3A 1193  12.855   7.568   9.608 -0.2176  0.1958 -0.1990
   75loPI   C4A 1194  12.870   7.480   9.213 -0.0158  0.2249 -0.1041
   75loPI   C5A 1195  12.831   7.282   8.850 -0.0050  0.0421  0.0750
   75loPI   C6A 1196  12.844   7.117   8.424 -0.1644 -0.0997  0.1881
   75loPI   C1B 1197  12.542   7.789  10.376  0.1588  0.0943  0.2425
   75loPI   C2B 1198  12.545   7.928   9.930  0.0744  0.3330  0.0194
   75loPI   C3B 1199  12.628   7.979   9.535  0.1775  0.0547 -0.1509
   75loPI   C4B 1200  12.634   7.920   9.146  0.1387  0.0033  0.0790
   76loPI    C1 1201  17.294   4.196  11.520  0.0644  0.1900  0.1606
   76loPI    C2 1202  17.030   4.464  11.655 -0.1286  0.0258  0.1137
   76loPI    C3 1203  17.128   4.148  11.880 -0.0480  0.0328  0.0890
   76loPI   PO4 1204  17.246   4.143  11.235 -0.0638 -0.0950 -0.1599
   76loPI   GL1 1205  16.965   3.981  10.943 -0.0864 -0.1826  0.0510
   76loPI   GL2 1206  17.026   4.270  10.806 -0.2585 -0.0794 -0.0264
   76loPI   C1A 1207  16.750   3.895  10.499  0.1165  0.0633  0.1657
   76loPI   C2A 1208  16.692   3.781  10.165  0.0947  0.1088  0.0324
   76loPI   C3A 1209  16.714   3.807   9.702 -0.2676  0.3890 -0.0913
   76loPI   C4A 1210  16.735   3.662   9.273 -0.0119 -0.1950  0.2357
   76loPI   C5A 1211  16.671   3.592   8.790 -0.1882 -0.1348  0.5457
   76loPI   C6A 1212  16.789   3.377   8.399 -0.3146 -0.1251 -0.2058
   76loPI   C1B 1213  17.034   4.297  10.311 -0.2314  0.1876  0.1203
   76loPI   C2B 1214  16.967   4.167   9.924  0.1797 -0.1007 -0.0297
   76loPI   C3B 1215  16.946   4.250   9.446  0.5880 -0.1446 -0.1389
   76loPI   C4B 1216  16.894   4.052   9.028  0.1237 -0.1641  0.3081
   77loPI    C1 1217   7.149   5.447  11.420  0.0945 -0.1973 -0.1198
   77loPI    C2 1218   6.795   5.354  11.581  0.1446 -0.1823 -0.0002
   77loPI    C3 1219   6.972   5.701  11.673  0.1959 -0.1949 -0.0507
   77loPI   PO4 1220   7.153   5.439  11.206  0.1113  0.1216  0.0905
   77loPI   GL1 1221   6.921   5.431  10.814 -0.2536  0.2360  0.2040
   77loPI   GL2 1222   7.075   5.678  10.678  0.0321 -0.0272  0.0857
   77loPI   C1A 1223   6.902   5.446  10.264 -0.0703 -0.0507  0.1761
   77loPI   C2A 1224   6.949   5.469   9.792  0.0080 -0.0281 -0.1177
   77loPI   C3A 1225   6.959   5.488   9.354 -0.0262 -0.1629  0.0411
   77loPI   C4A 1226   6.957   5.506   8.915 -0.4726 -0.0628  0.0500
   77loPI   C5A 1227   6.756   5.370   8.523 -0.2617 -0.1724 -0.1069
   77loPI   C6A 1228   6.727   5.121   8.174 -0.0260 -0.0951  0.1285
   77loPI   C1B 1229   7.229   5.819  10.277 -0.0019  0.1423 -0.2726
   77loPI   C2B 1230   7.232   5.901   9.874  0.1822 -0.0346 -0.0328
   77loPI   C3B 1231   7.225   5.900   9.420  0.1410  0.0456  0.1082
   77loPI   C4B 1232   7.365   5.989   9.116  0.2356 -0.0183 -0.3581
   78loPI    C1 1233   1.032   3.950  12.027 -0.1192  0.3286 -0.1718
   78loPI    C2 1234   0.664   3.815  12.111 -0.0505  0.1274 -0.1872
   78loPI    C3 1235   0.831   4.098  12.340 -0.2274  0.2445 -0.2009
   78loPI   PO4 1236   1.054   3.847  11.690  0.0789  0.0500 -0.1859
   78loPI   GL1 1237   1.244   3.899  11.383  0.2943  0.0546  0.1085
   78loPI   GL2 1238   1.047   3.986  11.127 -0.1843  0.2203  0.1828
   78loPI   C1A 1239   1.338   3.561  10.946  0.0255 -0.0525 -0.3119
   78loPI   C2A 1240   1.493   3.520  10.580 -0.1594  0.0997  0.0498
   78loPI   C3A 1241   1.522   3.509  10.115 -0.1297  0.2445 -0.0338
   78loPI   C4A 1242   1.450   3.552   9.679 -0.3924 -0.1558 -0.2361
   78loPI   C5A 1243   1.496   3.419   9.280 -0.2796 -0.0608  0.1453
   78loPI   C6A 1244   1.385   3.310   8.779 -0.0253  0.0728 -0.2492
   78loPI   C1B 1245   1.286   4.009  10.630 -0.0361 -0.1218 -0.1154
   78loPI   C2B 1246   1.287   3.957  10.131  0.2319  0.1739 -0.1374
   78loPI   C3B 1247   1.228   3.991   9.699 -0.2317 -0.2059 -0.2483
   78loPI   C4B 1248   1.206   4.022   9.264 -0.3017 -0.0306  0.0104
   79loPI    C1 1249  11.191  14.232  11.114 -0.5076 -0.0991 -0.2721
   79loPI    C2 1250  10.997  14.248  11.463  0.1920  0.0267  0.1296
   79loPI    C3 1251  10.863  14.458  11.151 -0.3375  0.0642  0.3705
   79loPI   PO4 1252  11.255  14.000  11.073  0.1827  0.1761  0.1166
   79loPI   GL1 1253  11.340  13.826  10.692  0.1289  0.1331  0.0939
   79loPI   GL2 1254  11.099  13.676  10.586  0.2861  0.0700  0.0900
   79loPI   C1A 1255  11.154  14.057  10.247  0.4734  0.0761  0.0834
   79loPI   C2A 1256  11.104  13.911   9.731 -0.1768  0.1965 -0.0157
   79loPI   C3A 1257  11.139  14.031   9.255 -0.0210 -0.1191  0.2364
   79loPI   C4A 1258  10.897  14.343   9.033  0.1579 -0.0689 -0.0770
   79loPI   C5A 1259  10.859  14.703   8.730 -0.0042 -0.2010 -0.0903
   79loPI   C6A 1260  10.754  14.935   8.304  0.0362 -0.0117 -0.2379
   79loPI   C1B 1261  11.337  13.600  10.153 -0.3296 -0.0049 -0.2972
   79loPI   C2B 1262  11.376  13.499   9.817  0.1253 -0.0879  0.0286
   79loPI   C3B 1263  11.369  13.569   9.353 -0.1476 -0.0289 -0.1625
   79loPI   C4B 1264  11.281  13.644   8.919 -0.1843  0.0049 -0.1912
   80loPI    C1 1265   9.571  16.984  11.570 -0.1838  0.0033  0.0631
   80loPI    C2 1266   9.843  17.128  11.825 -0.1091  0.1745 -0.1115
   80loPI    C3 1267   9.711  16.753  11.865 -0.0351  0.1723  0.1265
   80loPI   PO4 1268   9.545  17.096  11.337  0.0774 -0.1023  0.3512
   80loPI   GL1 1269   9.310  17.092  11.038 -0.3466  0.3346  0.2700
   80loPI   GL2 1270   9.147  17.327  10.929  0.0047  0.0238 -0.2665
   80loPI   C1A 1271   9.434  16.976  10.627 -0.0102  0.0073  0.1094
   80loPI   C2A 1272   9.487  17.037  10.240 -0.1891 -0.1653 -0.0223
   80loPI   C3A 1273   9.433  17.053   9.808  0.0689  0.1942 -0.0371
   80loPI   C4A 1274   9.414  16.962   9.330  0.2590 -0.0673  0.3077
   80loPI   C5A 1275   9.340  16.962   8.860  0.1003  0.1751 -0.2344
   80loPI   C6A 1276   9.338  17.241   8.539  0.2019 -0.0870 -0.0338
   80loPI   C1B 1277   9.268  17.447  10.499 -0.0993 -0.0947 -0.2346
   80loPI   C2B 1278   9.239  17.487  10.058 -0.3409 -0.0754  0.2543
   80loPI   C3B 1279   9.173  17.472   9.671 -0.0420 -0.1025 -0.1612
   80loPI   C4B 1280   9.205  17.401   9.203  0.2591 -0.2134  0.2123
   81loPI    C1 1281   9.828   8.250  11.715 -0.1330  0.2369 -0.0823
   81loPI    C2 1282   9.572   8.279  12.021 -0.1244  0.3976 -0.0892
   81loPI    C3 1283   9.928   8.104  12.073 -0.2379  0.1651 -0.0819
   81loPI   PO4 1284   9.632   8.270  11.506  0.1987 -0.1114 -0.1952
   81loPI   GL1 1285   9.607   8.350  11.053 -0.0700 -0.2372  0.3061
   81loPI   GL2 1286   9.982   8.369  10.924 -0.1005  0.0570  0.3005
   81loPI   C1A 1287   9.572   8.329  10.681 -0.1091  0.1536 -0.1546
   81loPI   C2A 1288   9.595   8.296  10.222 -0.0784 -0.1517 -0.2101
   81loPI   C3A 1289   9.571   8.295   9.789 -0.1367  0.2630  0.0782
   81loPI   C4A 1290   9.536   8.348   9.408  0.2444  0.0881  0.1280
   81loPI   C5A 1291   9.456   8.345   8.995 -0.0192 -0.1655  0.2068
   81loPI   C6A 1292   9.431   8.502   8.591  0.4406  0.1516 -0.0390
   81loPI   C1B 1293  10.055   8.277  10.448  0.0462  0.0997 -0.2101
   81loPI   C2B 1294  10.132   8.279  10.057  0.1691  0.1295  0.1386
   81loPI   C3B 1295  10.083   8.259   9.598  0.0082  0.2678 -0.0663
   81loPI   C4B 1296   9.940   8.309   9.170  0.2365 -0.3746 -0.0916
   82loPI    C1 1297   2.084   5.357  11.875 -0.0752 -0.1468 -0.0635
   82loPI    C2 1298   2.284   5.043  12.022  0.0440  0.0015  0.0957
   82loPI    C3 1299   2.106   5.301  12.271 -0.4143 -0.1684 -0.0452
   82loPI   PO4 1300   2.059   5.290  11.639 -0.0163 -0.2127  0.2577
   82loPI   GL1 1301   1.849   5.070  11.269 -0.3130 -0.1980  0.1267
   82loPI   GL2 1302   2.122   5.107  11.088 -0.1479  0.0362 -0.4164
   82loPI   C1A 1303   1.749   5.255  10.845  0.0356 -0.1414 -0.1137
   82loPI   C2A 1304   1.764   5.312  10.389 -0.0437 -0.2046  0.2824
   82loPI   C3A 1305   1.723   5.311   9.900 -0.0331  0.2678 -0.2492
   82loPI   C4A 1306   1.676   5.287   9.493 -0.3066 -0.0450  0.2956
   82loPI   C5A 1307   1.624   5.319   9.095  0.2022 -0.1036 -0.1873
   82loPI   C6A 1308   1.857   5.144   8.823 -0.0799 -0.0631 -0.0760
   82loPI   C1B 1309   2.204   5.264  10.695 -0.0174 -0.0671 -0.0701
   82loPI   C2B 1310   2.201   5.241  10.218  0.1133  0.1104 -0.2692
   82loPI   C3B 1311   2.268   5.274   9.693  0.1771  0.0713 -0.2177
   82loPI   C4B 1312   2.213   5.205   9.217 -0.0201 -0.1380 -0.0075
   83loPI    C1 1313   4.410  13.306  11.719  0.1487 -0.1602 -0.2980
   83loPI    C2 1314   4.520  12.944  11.849 -0.0175 -0.0938  0.0385
   83loPI    C3 1315   4.141  13.065  11.890  0.0457  0.1345 -0.0345
   83loPI   PO4 1316   4.588  13.353  11.384  0.1354 -0.0949  0.6737
   83loPI   GL1 1317   4.681  13.255  11.042 -0.0745  0.0776 -0.1628
   83loPI   GL2 1318   4.484  13.477  10.767 -0.2133  0.0278 -0.3178
   83loPI   C1A 1319   4.997  13.454  10.682 -0.4508  0.1228 -0.2974
   83loPI   C2A 1320   5.005  13.383  10.278 -0.4006 -0.0800 -0.0936
   83loPI   C3A 1321   5.102  13.431   9.910 -0.0547 -0.0401 -0.0037
   83loPI   C4A 1322   5.150  13.406   9.485  0.1327  0.2333 -0.0477
   83loPI   C5A 1323   5.113  13.463   9.071  0.0872 -0.1298  0.0639
   83loPI   C6A 1324   4.963  13.473   8.679 -0.3073  0.0741  0.1240
   83loPI   C1B 1325   4.530  13.485  10.338 -0.2910 -0.0362 -0.1910
   83loPI   C2B 1326   4.606  13.526   9.985 -0.2335 -0.0443 -0.1555
   83loPI   C3B 1327   4.562  13.515   9.536  0.0426  0.2025  0.0021
   83loPI   C4B 1328   4.580  13.580   9.199  0.0081  0.2110  0.0168
   84loPI    C1 1329   8.080  10.520  11.625  0.3842  0.2522  0.0144
   84loPI    C2 1330   8.286  10.750  11.881  0.2044  0.1080  0.2936
   84loPI    C3 1331   8.137  10.399  12.002 -0.0272  0.1138  0.0365
   84loPI   PO4 1332   8.184  10.589  11.402 -0.0941 -0.0055  0.0909
   84loPI   GL1 1333   8.175  10.640  10.913 -0.1427  0.0642 -0.0355
   84loPI   GL2 1334   8.328  10.470  10.913 -0.2212 -0.0231 -0.2129
   84loPI   C1A 1335   8.211  10.788  10.470  0.0642 -0.2618  0.0690
   84loPI   C2A 1336   8.089  10.748  10.076 -0.0668  0.0117  0.2134
   84loPI   C3A 1337   8.171  10.726   9.597 -0.1525 -0.0274  0.1213
   84loPI   C4A 1338   8.132  10.750   9.112  0.0312  0.1882  0.0873
   84loPI   C5A 1339   8.221  10.898   8.712 -0.3281  0.3212  0.1070
   84loPI   C6A 1340   8.288  11.028   8.350 -0.2139 -0.1040  0.1406
   84loPI   C1B 1341   8.394  10.298  10.477  0.3398  0.0369 -0.1808
   84loPI   C2B 1342   8.364  10.332  10.049 -0.3464  0.0313  0.0997
   84loPI   C3B 1343   8.322  10.245   9.606  0.2364  0.0905 -0.0407
   84loPI   C4B 1344   8.367  10.229   9.205  0.0175  0.1673  0.1454
   85loPI    C1 1345  15.861   3.139  11.393  0.0241 -0.1587 -0.0075
   85loPI    C2 1346  15.573   3.245  11.649  0.0238  0.0108 -0.0768
   85loPI    C3 1347  15.950   3.208  11.776  0.0039 -0.0214 -0.0271
   85loPI   PO4 1348  15.849   3.259  11.263 -0.0160 -0.2769  0.2631
   85loPI   GL1 1349  15.956   3.234  10.851 -0.1694  0.4013 -0.2315
   85loPI   GL2 1350  16.005   3.463  10.580 -0.3071 -0.0629 -0.1475
   85loPI   C1A 1351  16.101   2.954  10.585 -0.0107  0.0622 -0.3098
   85loPI   C2A 1352  16.088   3.021  10.106  0.1693  0.0501 -0.0571
   85loPI   C3A 1353  16.101   2.914   9.646 -0.1875 -0.1563 -0.2126
   85loPI   C4A 1354  16.015   2.908   9.159 -0.1350  0.1094 -0.2270
   85loPI   C5A 1355  15.600   2.870   8.880  0.0820 -0.1250  0.0419
   85loPI   C6A 1356  15.274   3.138   8.649  0.1591  0.0902 -0.2121
   85loPI   C1B 1357  15.857   3.440  10.232 -0.0812 -0.0245 -0.2925
   85loPI   C2B 1358  15.389   3.456   9.973  0.1286  0.1252 -0.0149
   85loPI   C3B 1359  15.279   3.342   9.562 -0.0596  0.1338 -0.2275
   85loPI   C4B 1360  15.468   3.320   9.132  0.1870  0.0833  0.2115
   86loPI    C1 1361   4.798   4.751  11.798  0.3770 -0.1516 -0.0881
   86loPI    C2 1362   4.877   4.393  11.960 -0.2017 -0.2077  0.0926
   86loPI    C3 1363   4.919   4.725  12.179 -0.0798 -0.2010  0.0598
   86loPI   PO4 1364   4.879   4.651  11.490 -0.0117 -0.0094 -0.0743
   86loPI   GL1 1365   4.752   4.375  11.151 -0.1758  0.1898  0.1569
   86loPI   GL2 1366   4.484   4.397  11.133  0.2425 -0.1606  0.1616
   86loPI   C1A 1367   4.823   4.318  10.705  0.0719  0.1909  0.0683
   86loPI   C2A 1368   4.927   4.347  10.341  0.1219 -0.3528  0.1143
   86loPI   C3A 1369   4.963   4.302   9.891 -0.0175 -0.1272 -0.2590
   86loPI   C4A 1370   4.899   4.389   9.585 -0.2674  0.1816  0.2618
   86loPI   C5A 1371   4.755   4.467   9.150  0.0315  0.1272  0.1492
   86loPI   C6A 1372   4.461   4.434   8.918  0.2038 -0.1022  0.3130
   86loPI   C1B 1373   4.350   4.432  10.689 -0.0113 -0.0023 -0.0276
   86loPI   C2B 1374   4.390   4.449  10.296  0.1261  0.0238  0.1549
   86loPI   C3B 1375   4.410   4.447   9.835 -0.1903  0.2340  0.1084
   86loPI   C4B 1376   4.400   4.404   9.435 -0.0697 -0.1515 -0.1893
   87loPI    C1 1377  14.131  10.195  11.372  0.1240  0.0074  0.0677
   87loPI    C2 1378  14.264  10.422  11.071 -0.3641  0.0236 -0.1444
   87loPI    C3 1379  14.406  10.478  11.440  0.3215 -0.0680 -0.3803
   87loPI   PO4 1380  14.193   9.964  11.257  0.0546  0.2821  0.1321
   87loPI   GL1 1381  14.065   9.848  10.893  0.0221 -0.0124  0.3164
   87loPI   GL2 1382  14.335   9.604  10.776  0.1917 -0.1420 -0.0413
   87loPI   C1A 1383  14.205  10.009  10.461  0.0138  0.0533  0.0760
   87loPI   C2A 1384  14.242  10.003   9.983  0.0156 -0.1464 -0.2434
   87loPI   C3A 1385  14.231  10.050   9.584  0.1443 -0.1900  0.2042
   87loPI   C4A 1386  14.221   9.972   9.088 -0.4028 -0.1022  0.0112
   87loPI   C5A 1387  14.266  10.100   8.645 -0.0394 -0.0690  0.0648
   87loPI   C6A 1388  14.571  10.050   8.296  0.2238 -0.0805  0.0167
   87loPI   C1B 1389  14.345   9.525  10.336  0.1638 -0.3604 -0.2775
   87loPI   C2B 1390  14.377   9.498   9.875  0.1047 -0.3013 -0.1199
   87loPI   C3B 1391  14.383   9.538   9.428  0.0748  0.0696 -0.2093
   87loPI   C4B 1392  14.289   9.467   9.022 -0.0041 -0.2753 -0.1584
   88loPI    C1 1393   1.139  12.285  11.659 -0.2037  0.0127  0.0837
   88loPI    C2 1394   1.460  12.061  11.740 -0.1049  0.0818 -0.1099
   88loPI    C3 1395   1.332  12.332  12.006  0.0395  0.1034 -0.0613
   88loPI   PO4 1396   1.108  12.191  11.366  0.1920  0.0014 -0.0911
   88loPI   GL1 1397   1.188  12.046  10.956 -0.0477 -0.0648  0.1885
   88loPI   GL2 1398   1.220  12.329  10.857  0.0906 -0.1405 -0.0794
   88loPI   C1A 1399   1.341  12.113  10.433  0.0497  0.1286 -0.1295
   88loPI   C2A 1400   1.344  12.025   9.981 -0.2297  0.0784 -0.3457
   88loPI   C3A 1401   1.335  12.074   9.543 -0.0505  0.0743 -0.2453
   88loPI   C4A 1402   1.275  12.115   9.057  0.0137 -0.1887 -0.1687
   88loPI   C5A 1403   1.399  12.298   8.702 -0.1305  0.3153  0.2260
   88loPI   C6A 1404   1.718  12.196   8.413 -0.0967  0.0693  0.0736
   88loPI   C1B 1405   1.089  12.563  10.483  0.2335  0.0058 -0.2733
   88loPI   C2B 1406   1.157  12.567  10.096  0.0764 -0.1376  0.1855
   88loPI   C3B 1407   1.113  12.549   9.688 -0.3582  0.2270  0.2389
   88loPI   C4B 1408   1.154  12.562   9.203  0.3890  0.0165  0.1819
   89loPI    C1 1409   0.623  10.093  11.852 -0.2755 -0.3628 -0.1865
   89loPI    C2 1410   0.953   9.881  11.929 -0.0462  0.0673  0.0524
   89loPI    C3 1411   0.667   9.913  12.207 -0.1235 -0.0052 -0.0184
   89loPI   PO4 1412   0.748  10.174  11.574 -0.2474  0.0219 -0.0144
   89loPI   GL1 1413   0.764  10.149  11.214  0.0492  0.0853 -0.2131
   89loPI   GL2 1414   0.606  10.403  10.984  0.0688  0.1469  0.2421
   89loPI   C1A 1415   0.741   9.882  10.878  0.1710  0.0333 -0.2079
   89loPI   C2A 1416   0.722   9.927  10.406  0.1067  0.1209  0.1831
   89loPI   C3A 1417   0.744   9.862  10.011  0.2834  0.2031  0.0532
   89loPI   C4A 1418   0.835   9.868   9.556 -0.2343 -0.0359  0.1684
   89loPI   C5A 1419   0.839   9.977   9.161  0.3483 -0.1266  0.1900
   89loPI   C6A 1420   0.726  10.303   8.781  0.3978 -0.0533  0.0897
   89loPI   C1B 1421   0.619  10.441  10.585  0.3285  0.4077  0.0778
   89loPI   C2B 1422   0.597  10.397  10.096 -0.0813  0.1157 -0.1282
   89loPI   C3B 1423   0.644  10.423   9.666 -0.0333  0.1237 -0.3322
   89loPI   C4B 1424   0.569  10.400   9.266 -0.1100 -0.0029  0.0113
   90loPI    C1 1425  12.757  17.353  11.641  0.0824 -0.1828  0.0302
   90loPI    C2 1426  12.549  17.506  11.947  0.1315 -0.0723  0.0086
   90loPI    C3 1427  12.888  17.306  12.016  0.1869  0.0252  0.0208
   90loPI   PO4 1428  12.724  17.134  11.480  0.1197 -0.0121  0.2774
   90loPI   GL1 1429  12.977  17.024  11.134 -0.1753 -0.1394  0.1192
   90loPI   GL2 1430  12.763  17.083  10.869 -0.2544  0.3013  0.0280
   90loPI   C1A 1431  12.923  16.705  10.638  0.2198  0.1972 -0.2698
   90loPI   C2A 1432  12.966  16.549  10.177  0.1070 -0.3295  0.1026
   90loPI   C3A 1433  12.966  16.447   9.735  0.1540 -0.0558 -0.1523
   90loPI   C4A 1434  13.042  16.443   9.286 -0.1530 -0.1222  0.2817
   90loPI   C5A 1435  12.825  16.463   8.966  0.0378 -0.0399  0.0619
   90loPI   C6A 1436  12.499  16.797   8.702  0.0575  0.4043  0.2730
   90loPI   C1B 1437  12.769  17.059  10.402  0.3515  0.1779  0.1266
   90loPI   C2B 1438  12.732  16.965   9.985  0.4026  0.3710 -0.0469
   90loPI   C3B 1439  12.696  16.975   9.572 -0.1534  0.1649  0.2655
   90loPI   C4B 1440  12.717  16.906   9.099 -0.0601  0.1925 -0.2018
   91loPI    C1 1441  17.018  16.774  11.671 -0.1279  0.0898 -0.0199
   91loPI    C2 1442  17.346  16.830  11.449 -0.4036  0.2208 -0.4055
   91loPI    C3 1443  17.292  17.042  11.784  0.1051 -0.1110 -0.0993
   91loPI   PO4 1444  16.796  16.855  11.502 -0.0688 -0.3579 -0.1386
   91loPI   GL1 1445  16.850  16.961  11.034 -0.0501 -0.2011  0.3236
   91loPI   GL2 1446  17.179  16.999  10.976  0.1735 -0.0027 -0.0326
   91loPI   C1A 1447  16.663  17.012  10.678  0.1712 -0.0988 -0.1901
   91loPI   C2A 1448  16.603  17.051  10.225  0.0095  0.2161  0.0982
   91loPI   C3A 1449  16.583  17.018   9.747  0.2675 -0.3346  0.4507
   91loPI   C4A 1450  16.547  17.059   9.267  0.1838  0.0284 -0.1149
   91loPI   C5A 1451  16.433  16.963   8.840 -0.1887 -0.2818  0.0904
   91loPI   C6A 1452  16.612  17.281   8.577  0.2098 -0.0454 -0.1759
   91loPI   C1B 1453  17.155  16.990  10.574  0.0801 -0.3268 -0.1404
   91loPI   C2B 1454  17.140  16.918  10.117 -0.0430  0.2973  0.0297
   91loPI   C3B 1455  17.122  16.979   9.624 -0.0073  0.0603 -0.0484
   91loPI   C4B 1456  17.087  16.991   9.221 -0.1621 -0.0616  0.2799
   92loPI    C1 1457   6.623   3.127  11.417 -0.0499 -0.0899 -0.1330
   92loPI    C2 1458   6.432   3.473  11.354 -0.0589 -0.0858 -0.0828
   92loPI    C3 1459   6.641   3.418  11.691 -0.0483 -0.1249 -0.0958
   92loPI   PO4 1460   6.656   3.063  11.194 -0.2076  0.0733 -0.0567
   92loPI   GL1 1461   6.700   3.018  10.805  0.2292 -0.3277 -0.0558
   92loPI   GL2 1462   6.581   2.754  10.746  0.1177  0.0008  0.2825
   92loPI   C1A 1463   6.816   3.187  10.386 -0.0230  0.0904 -0.1981
   92loPI   C2A 1464   6.870   3.163   9.953  0.3558 -0.3597 -0.1099
   92loPI   C3A 1465   6.737   3.159   9.641 -0.1160  0.1192  0.0150
   92loPI   C4A 1466   6.814   3.143   9.264 -0.1696 -0.3622 -0.1505
   92loPI   C5A 1467   6.986   3.123   8.830  0.1126 -0.0183  0.0938
   92loPI   C6A 1468   7.245   3.458   8.707 -0.2771  0.1613  0.1028
   92loPI   C1B 1469   6.492   2.745  10.317  0.0689  0.0225 -0.1598
   92loPI   C2B 1470   6.484   2.721   9.849  0.3904 -0.4593  0.1618
   92loPI   C3B 1471   6.533   2.744   9.399 -0.0389  0.2258  0.0647
   92loPI   C4B 1472   6.520   2.744   8.975 -0.1672  0.1199  0.1299
   93loPI    C1 1473  11.508   8.886  11.607  0.0978 -0.0665 -0.1812
   93loPI    C2 1474  11.520   8.584  11.869 -0.1098 -0.0142 -0.1095
   93loPI    C3 1475  11.590   8.958  11.992 -0.2235  0.0126 -0.1242
   93loPI   PO4 1476  11.294   8.759  11.451  0.2787 -0.1339 -0.1232
   93loPI   GL1 1477  11.165   8.617  11.121 -0.2116  0.1916  0.1028
   93loPI   GL2 1478  11.273   8.856  10.917 -0.0492  0.2134  0.1569
   93loPI   C1A 1479  10.953   8.539  10.710  0.0415 -0.1162 -0.1787
   93loPI   C2A 1480  10.944   8.560  10.283 -0.0426  0.0811 -0.1656
   93loPI   C3A 1481  10.895   8.599   9.838  0.0688 -0.0204 -0.2339
   93loPI   C4A 1482  10.877   8.602   9.315 -0.2932 -0.0674 -0.1319
   93loPI   C5A 1483  10.815   8.553   8.961  0.0674 -0.0603  0.0255
   93loPI   C6A 1484  11.069   8.529   8.520 -0.1293  0.0109 -0.3245
   93loPI   C1B 1485  11.230   9.005  10.480  0.0634 -0.2280 -0.0928
   93loPI   C2B 1486  11.169   8.956  10.075 -0.1363 -0.2773 -0.0347
   93loPI   C3B 1487  11.140   9.006   9.640  0.0444 -0.1852 -0.0792
   93loPI   C4B 1488  11.283   9.015   9.206 -0.0880 -0.0738  0.1258
   94loPI    C1 1489   6.115   4.967  11.320  0.0186  0.3817 -0.0104
   94loPI    C2 1490   6.479   4.806  11.282 -0.1414  0.0350 -0.1174
   94loPI    C3 1491   6.403   5.058  11.583  0.1161 -0.0881  0.0548
   94loPI   PO4 1492   6.060   5.080  11.123  0.0917  0.0024  0.0263
   94loPI   GL1 1493   5.946   5.159  10.764  0.1294  0.1619 -0.0780
   94loPI   GL2 1494   5.886   5.568  10.790 -0.0273 -0.1447 -0.1104
   94loPI   C1A 1495   6.098   5.080  10.357 -0.1854  0.0846 -0.1015
   94loPI   C2A 1496   6.086   5.092   9.996 -0.1438  0.0332 -0.0249
   94loPI   C3A 1497   6.113   5.187   9.701  0.0458 -0.0363  0.1684
   94loPI   C4A 1498   6.133   5.185   9.282 -0.1327 -0.1355  0.1581
   94loPI   C5A 1499   5.894   5.113   8.850 -0.1229  0.0574 -0.1707
   94loPI   C6A 1500   5.443   5.209   8.685 -0.0989 -0.1167  0.1124
   94loPI   C1B 1501   5.823   5.539  10.393 -0.2610 -0.0389 -0.0221
   94loPI   C2B 1502   5.946   5.626   9.908 -0.2085  0.0872  0.0885
   94loPI   C3B 1503   5.881   5.584   9.465 -0.2780 -0.2861  0.0034
   94loPI   C4B 1504   5.917   5.654   9.105  0.0638  0.1991 -0.0477
   95loPI    C1 1505  11.432   6.629  11.862 -0.0672 -0.0068  0.0222
   95loPI    C2 1506  11.310   7.009  11.891 -0.0007 -0.0077  0.3528
   95loPI    C3 1507  11.177   6.736  12.151 -0.3643 -0.3020 -0.1245
   95loPI   PO4 1508  11.471   6.611  11.586 -0.0030 -0.2289  0.0417
   95loPI   GL1 1509  11.432   6.802  11.205  0.2758 -0.0301  0.2921
   95loPI   GL2 1510  11.607   6.754  10.901 -0.1554 -0.0009  0.0589
   95loPI   C1A 1511  11.191   6.844  10.673  0.3216  0.0331  0.1217
   95loPI   C2A 1512  11.212   6.828  10.198  0.0486  0.1668  0.0675
   95loPI   C3A 1513  11.214   6.839   9.751 -0.0020  0.0584 -0.1003
   95loPI   C4A 1514  11.147   6.865   9.282  0.0280  0.0863 -0.1222
   95loPI   C5A 1515  10.747   6.803   9.018 -0.2484  0.1328 -0.0988
   95loPI   C6A 1516  10.578   6.859   8.717  0.1099  0.1574  0.0536
   95loPI   C1B 1517  11.744   6.668  10.495  0.2082  0.0362  0.2585
   95loPI   C2B 1518  11.643   6.654  10.045  0.0465  0.1474 -0.0613
   95loPI   C3B 1519  11.719   6.665   9.522  0.0490 -0.0106  0.1848
   95loPI   C4B 1520  11.681   6.729   9.075 -0.0091  0.1170  0.1459
   96loPI    C1 1521   3.333  14.853  11.608 -0.0491  0.0223  0.1372
   96loPI    C2 1522   3.669  14.663  11.714 -0.0441 -0.0234  0.0405
   96loPI    C3 1523   3.314  14.524  11.835 -0.0355 -0.0477  0.0379
   96loPI   PO4 1524   3.225  14.896  11.401  0.0452 -0.2244 -0.1308
   96loPI   GL1 1525   3.228  14.768  10.993 -0.1956 -0.1970  0.3846
   96loPI   GL2 1526   3.247  15.095  10.838 -0.1519 -0.0746  0.0419
   96loPI   C1A 1527   3.062  14.589  10.650  0.1911  0.0744  0.2612
   96loPI   C2A 1528   2.977  14.234  10.451 -0.1469  0.0687 -0.0785
   96loPI   C3A 1529   2.835  14.084  10.060  0.0535 -0.0619  0.0580
   96loPI   C4A 1530   2.930  14.308   9.709  0.0245 -0.0416  0.1604
   96loPI   C5A 1531   3.223  14.652   9.602 -0.2379 -0.2221  0.2464
   96loPI   C6A 1532   3.480  15.069   9.564 -0.0821 -0.1105  0.0036
   96loPI   C1B 1533   3.058  15.038  10.434 -0.0191  0.1866 -0.0787
   96loPI   C2B 1534   3.056  15.025   9.927 -0.4387  0.1266 -0.2108
   96loPI   C3B 1535   2.948  15.094   9.490  0.1406  0.1535 -0.1686
   96loPI   C4B 1536   2.826  14.875   9.041 -0.0674  0.0159 -0.1220
   97loPI    C1 1537  15.012  14.558  11.522  0.0121 -0.1785 -0.0401
   97loPI    C2 1538  14.920  14.461  11.899 -0.0507  0.1391  0.0289
   97loPI    C3 1539  15.112  14.803  11.822  0.0576  0.0245 -0.2189
   97loPI   PO4 1540  15.098  14.387  11.452 -0.1066 -0.0673  0.4171
   97loPI   GL1 1541  15.267  14.322  11.071  0.0423 -0.3543  0.4232
   97loPI   GL2 1542  15.231  14.633  10.986 -0.0479  0.0715  0.2702
   97loPI   C1A 1543  15.410  14.044  10.671 -0.2175 -0.3512 -0.1315
   97loPI   C2A 1544  15.409  13.944  10.230 -0.1490  0.0437  0.0786
   97loPI   C3A 1545  15.513  14.035   9.812  0.0576  0.1822  0.0176
   97loPI   C4A 1546  15.592  13.917   9.410 -0.0693  0.3006 -0.0057
   97loPI   C5A 1547  15.475  13.966   8.986 -0.1268 -0.0088 -0.1259
   97loPI   C6A 1548  15.605  13.798   8.587  0.0229  0.1038 -0.0692
   97loPI   C1B 1549  15.191  14.510  10.557  0.1185 -0.1215  0.1728
   97loPI   C2B 1550  15.239  14.471  10.135  0.1180  0.0670 -0.1872
   97loPI   C3B 1551  15.315  14.492   9.670  0.1004 -0.3923 -0.0024
   97loPI   C4B 1552  15.347  14.300   9.314  0.1083 -0.1703  0.1503
   98loPI    C1 1553   5.373  12.614  11.710  0.2868 -0.2404  0.0121
   98loPI    C2 1554   5.592  12.939  11.790  0.3010 -0.2288 -0.0733
   98loPI    C3 1555   5.383  12.762  12.082 -0.0011  0.0738 -0.0998
   98loPI   PO4 1556   5.341  12.808  11.380  0.1626 -0.1490  0.0944
   98loPI   GL1 1557   5.424  12.655  10.960  0.0450  0.0985  0.4099
   98loPI   GL2 1558   5.615  12.947  10.838  0.1823  0.0136 -0.4123
   98loPI   C1A 1559   5.431  12.570  10.571 -0.4300  0.1456 -0.2837
   98loPI   C2A 1560   5.488  12.475  10.113 -0.0583  0.1002  0.0519
   98loPI   C3A 1561   5.509  12.450   9.684 -0.0202 -0.1255 -0.1469
   98loPI   C4A 1562   5.491  12.509   9.186  0.2745  0.0418 -0.0200
   98loPI   C5A 1563   5.501  12.143   8.825  0.4204 -0.1098 -0.0123
   98loPI   C6A 1564   5.454  12.072   8.382  0.0678 -0.1800  0.0047
   98loPI   C1B 1565   5.763  12.907  10.409 -0.1415  0.0731  0.0710
   98loPI   C2B 1566   5.738  12.868   9.978  0.0403 -0.1184 -0.2284
   98loPI   C3B 1567   5.773  12.854   9.538  0.1163 -0.1094  0.3677
   98loPI   C4B 1568   5.807  12.908   9.156  0.0983 -0.2305  0.2770
   99loPI    C1 1569  13.305   6.448  11.395  0.1629 -0.1106 -0.0780
   99loPI    C2 1570  13.094   6.755  11.540  0.1712 -0.1254 -0.0337
   99loPI    C3 1571  13.401   6.608  11.749  0.1162 -0.2171 -0.0167
   99loPI   PO4 1572  13.274   6.463  11.126  0.1191 -0.2591  0.1847
   99loPI   GL1 1573  13.238   6.383  10.726  0.0633 -0.2117 -0.0831
   99loPI   GL2 1574  13.431   6.071  10.753 -0.1512 -0.1274 -0.0612
   99loPI   C1A 1575  13.194   6.511  10.329 -0.0438 -0.0976 -0.0809
   99loPI   C2A 1576  13.151   6.469   9.916 -0.1853  0.3128  0.0061
   99loPI   C3A 1577  13.272   6.461   9.519 -0.0536  0.0236  0.0764
   99loPI   C4A 1578  13.248   6.425   9.114  0.0484  0.1477  0.0590
   99loPI   C5A 1579  13.319   6.412   8.670 -0.1309 -0.2843 -0.2566
   99loPI   C6A 1580  13.380   6.584   8.294 -0.1495 -0.0523 -0.0648
   99loPI   C1B 1581  13.366   6.010  10.303 -0.1342 -0.0161 -0.1139
   99loPI   C2B 1582  13.389   5.996   9.796 -0.1709  0.0174 -0.1715
   99loPI   C3B 1583  13.462   6.033   9.313 -0.1351  0.2967 -0.4590
   99loPI   C4B 1584  13.405   5.951   8.896 -0.0333 -0.0360  0.1399
  100loPI    C1 1585   5.474  15.518  11.626  0.0766 -0.0043 -0.2642
  100loPI    C2 1586   5.360  15.858  11.803  0.3417  0.0137 -0.1227
  100loPI    C3 1587   5.260  15.506  11.964  0.2762  0.0266 -0.1351
  100loPI   PO4 1588   5.446  15.526  11.407 -0.2050  0.0677 -0.2826
  100loPI   GL1 1589   5.418  15.387  11.076  0.2872 -0.3147  0.1026
  100loPI   GL2 1590   5.505  15.634  10.935  0.0373 -0.0393  0.0170
  100loPI   C1A 1591   5.347  15.216  10.609 -0.1514  0.3102 -0.0954
  100loPI   C2A 1592   5.365  15.156  10.219  0.0657 -0.1790 -0.2411
  100loPI   C3A 1593   5.377  15.278   9.822  0.1870  0.3088 -0.0733
  100loPI   C4A 1594   5.331  15.109   9.519  0.2331 -0.2477 -0.0085
  100loPI   C5A 1595   5.276  15.304   9.017 -0.2049  0.0002  0.1666
  100loPI   C6A 1596   5.442  15.479   8.659  0.2798 -0.2016 -0.0880
  100loPI   C1B 1597   5.697  15.620  10.529  0.2075 -0.1428  0.0396
  100loPI   C2B 1598   5.654  15.628  10.127  0.2071 -0.2601 -0.1143
  100loPI   C3B 1599   5.622  15.690   9.678 -0.2529 -0.3400 -0.1222
  100loPI   C4B 1600   5.711  15.661   9.225  0.2658  0.0925  0.1175
  101loPI    C1 1601  15.111  12.444  11.348  0.0727  0.0501  0.0517
  101loPI    C2 1602  15.393  12.356  11.617 -0.1081 -0.6260  0.0376
  101loPI    C3 1603  15.007  12.315  11.711 -0.1985 -0.1128 -0.0806
  101loPI   PO4 1604  15.189  12.322  11.204 -0.1932 -0.1817 -0.1683
  101loPI   GL1 1605  15.267  12.275  10.837 -0.0060 -0.0969 -0.0909
  101loPI   GL2 1606  14.958  12.169  10.777  0.2053 -0.0158  0.1203
  101loPI   C1A 1607  15.257  12.244  10.382 -0.1502  0.0332 -0.2654
  101loPI   C2A 1608  15.295  12.185   9.958 -0.0136 -0.1242 -0.0620
  101loPI   C3A 1609  15.270  12.149   9.543 -0.1912 -0.1348  0.0998
  101loPI   C4A 1610  15.260  12.113   9.106  0.4610 -0.0966 -0.0074
  101loPI   C5A 1611  15.297  11.980   8.698 -0.0074  0.0654  0.2009
  101loPI   C6A 1612  15.592  11.763   8.484 -0.1539 -0.4037  0.4026
  101loPI   C1B 1613  14.784  12.233  10.497 -0.2544 -0.3797 -0.0568
  101loPI   C2B 1614  14.732  12.170  10.091  0.3588 -0.0971  0.1953
  101loPI   C3B 1615  14.832  12.212   9.689  0.0118  0.1024 -0.0161
  101loPI   C4B 1616  14.802  12.119   9.279  0.0799 -0.0500 -0.0436
  102loPI    C1 1617  12.976   4.290  11.583  0.0675  0.1093  0.0445
  102loPI    C2 1618  12.993   4.587  11.850 -0.0191  0.0086  0.1631
  102loPI    C3 1619  12.757   4.271  11.917 -0.0724  0.0011 -0.0521
  102loPI   PO4 1620  12.967   4.379  11.347  0.2776  0.1608  0.2906
  102loPI   GL1 1621  13.262   4.248  11.015  0.0913 -0.1752  0.2328
  102loPI   GL2 1622  13.324   3.923  10.966 -0.0245 -0.2159  0.3109
  102loPI   C1A 1623  13.124   4.169  10.526  0.0197 -0.1037  0.1215
  102loPI   C2A 1624  13.178   4.325  10.115 -0.1030  0.0461  0.3229
  102loPI   C3A 1625  13.195   4.278   9.660  0.0206 -0.0454 -0.0759
  102loPI   C4A 1626  13.144   4.244   9.224 -0.0179 -0.4485  0.2370
  102loPI   C5A 1627  13.312   4.183   8.801  0.2767 -0.2812  0.1892
  102loPI   C6A 1628  13.601   4.123   8.432  0.1047  0.0369  0.2075
  102loPI   C1B 1629  13.325   3.720  10.563 -0.0081  0.2347 -0.1649
  102loPI   C2B 1630  13.365   3.821  10.155  0.1717 -0.3805  0.3050
  102loPI   C3B 1631  13.386   3.753   9.665  0.1247 -0.0878 -0.1842
  102loPI   C4B 1632  13.434   3.674   9.225 -0.3282 -0.0095 -0.0470
  103loPI    C1 1633   7.537   3.215  11.351 -0.1683 -0.0879 -0.0433
  103loPI    C2 1634   7.604   3.233  11.745 -0.2957  0.0731 -0.0276
  103loPI    C3 1635   7.839   3.436  11.492 -0.2514  0.0185 -0.0305
  103loPI   PO4 1636   7.553   2.965  11.239 -0.0991 -0.3884 -0.0659
  103loPI   GL1 1637   7.726   2.814  10.898 -0.1541  0.1774  0.2308
  103loPI   GL2 1638   7.937   2.988  10.840 -0.1630 -0.3155 -0.2112
  103loPI   C1A 1639   7.641   2.652  10.537 -0.1472 -0.1412  0.0555
  103loPI   C2A 1640   7.472   2.599  10.147 -0.1960 -0.0673 -0.0370
  103loPI   C3A 1641   7.539   2.646   9.713  0.0887  0.4568  0.1613
  103loPI   C4A 1642   7.512   2.632   9.365  0.0431 -0.0510 -0.0641
  103loPI   C5A 1643   7.677   2.766   9.010  0.3734 -0.1529 -0.3855
  103loPI   C6A 1644   8.012   2.585   8.725 -0.0294  0.0301 -0.1530
  103loPI   C1B 1645   7.984   3.022  10.374  0.2405 -0.0669  0.0003
  103loPI   C2B 1646   7.864   2.993  10.030 -0.2825  0.2617 -0.0345
  103loPI   C3B 1647   7.850   3.066   9.592  0.3080  0.1673 -0.1119
  103loPI   C4B 1648   7.930   3.101   9.171  0.1236 -0.3444 -0.0734
  104loPI    C1 1649   7.353   8.219  11.620 -0.0864  0.1092 -0.0697
  104loPI    C2 1650   7.329   7.836  11.507 -0.0545  0.1216 -0.1189
  104loPI    C3 1651   7.034   8.000  11.722 -0.0333  0.0485 -0.0332
  104loPI   PO4 1652   7.426   8.312  11.450 -0.4534 -0.0262 -0.0686
  104loPI   GL1 1653   7.608   8.237  11.118  0.0015  0.0370  0.0424
  104loPI   GL2 1654   7.812   8.108  10.885 -0.1580  0.1566 -0.0795
  104loPI   C1A 1655   7.640   8.549  10.693 -0.1091  0.2134 -0.0999
  104loPI   C2A 1656   7.583   8.558  10.245 -0.2621  0.2708  0.4412
  104loPI   C3A 1657   7.565   8.567   9.847  0.0511 -0.1662  0.2967
  104loPI   C4A 1658   7.578   8.568   9.431 -0.1268 -0.1476 -0.1246
  104loPI   C5A 1659   7.491   8.677   8.974 -0.0432 -0.2634 -0.3673
  104loPI   C6A 1660   7.104   8.725   8.722 -0.0317  0.0085  0.0748
  104loPI   C1B 1661   7.708   8.013  10.484  0.2213  0.1753  0.0643
  104loPI   C2B 1662   7.767   8.082  10.089  0.2004  0.0263  0.0093
  104loPI   C3B 1663   7.723   8.007   9.651  0.0206 -0.0129 -0.1050
  104loPI   C4B 1664   7.704   8.113   9.305 -0.2475  0.1003 -0.0042
  105loPI    C1 1665  17.372   2.018  11.595  0.0372  0.0219 -0.0477
  105loPI    C2 1666  17.472   1.853  11.945 -0.0717 -0.0292 -0.0402
  105loPI    C3 1667  17.308   2.218  11.935 -0.0888 -0.0368 -0.0366
  105loPI   PO4 1668  17.384   1.817  11.409  0.1784  0.0248 -0.2016
  105loPI   GL1 1669  17.430   1.838  10.966 -0.1988 -0.0354  0.1148
  105loPI   GL2 1670  17.279   1.591  10.873 -0.0813  0.2079 -0.3139
  105loPI   C1A 1671  17.519   1.913  10.566  0.2768  0.0872 -0.0602
  105loPI   C2A 1672  17.548   1.835  10.093  0.1166  0.1592 -0.4858
  105loPI   C3A 1673  17.527   1.814   9.620  0.2135 -0.2203 -0.2340
  105loPI   C4A 1674  17.467   1.797   9.178  0.2579 -0.3122  0.1002
  105loPI   C5A 1675  17.625   1.665   8.879  0.1987  0.1476 -0.0882
  105loPI   C6A 1676  17.737   1.716   8.489  0.3537 -0.0814  0.3766
  105loPI   C1B 1677  17.220   1.513  10.469  0.2945 -0.0721  0.0960
  105loPI   C2B 1678  17.209   1.426  10.029 -0.3901  0.2853 -0.1455
  105loPI   C3B 1679  17.143   1.392   9.504  0.0012  0.0750 -0.0228
  105loPI   C4B 1680  17.239   1.405   9.025  0.2059  0.2460 -0.0435
  106loPI    C1 1681   5.594  10.816  11.741 -0.0905  0.0528  0.0013
  106loPI    C2 1682   5.485  11.150  11.933 -0.1701  0.0545 -0.0464
  106loPI    C3 1683   5.296  10.805  12.007 -0.2196  0.0608 -0.1420
  106loPI   PO4 1684   5.625  10.926  11.384  0.0589 -0.2007 -0.2090
  106loPI   GL1 1685   5.316  11.043  11.080 -0.0861 -0.2981 -0.0973
  106loPI   GL2 1686   5.137  11.383  10.990 -0.4114  0.2002 -0.0259
  106loPI   C1A 1687   5.451  11.065  10.811 -0.2977  0.1883  0.0040
  106loPI   C2A 1688   5.526  11.118  10.470  0.0594  0.0493 -0.0012
  106loPI   C3A 1689   5.601  11.037   9.977 -0.1535 -0.0843 -0.0171
  106loPI   C4A 1690   5.568  11.118   9.566 -0.3205  0.0937 -0.2142
  106loPI   C5A 1691   5.627  11.140   9.177 -0.1228  0.2081  0.2989
  106loPI   C6A 1692   5.802  11.218   8.798 -0.0149 -0.1201  0.2647
  106loPI   C1B 1693   5.008  11.247  10.609 -0.2553  0.2278 -0.2492
  106loPI   C2B 1694   5.121  11.120  10.163  0.0387 -0.1032  0.0947
  106loPI   C3B 1695   5.131  11.208   9.695 -0.0051 -0.4962 -0.2897
  106loPI   C4B 1696   5.056  11.264   9.247 -0.2831  0.3739  0.0145
  107loPI    C1 1697  17.646   9.079  11.745 -0.1127  0.0529  0.0872
  107loPI    C2 1698  17.738   8.904  12.092 -0.1703  0.1158  0.1343
  107loPI    C3 1699  17.673   9.298  12.078  0.0359  0.1470  0.0147
  107loPI   PO4 1700  17.739   8.862  11.556  0.1246 -0.0173 -0.1924
  107loPI   GL1 1701  17.936   8.795  11.184  0.2258  0.0979 -0.0565
  107loPI   GL2 1702  17.940   8.507  10.924 -0.3876 -0.0957  0.0403
  107loPI   C1A 1703  17.854   9.044  10.844 -0.0751 -0.0108  0.0771
  107loPI   C2A 1704  17.896   9.152  10.430  0.1201  0.0931  0.2176
  107loPI   C3A 1705  17.894   9.053   9.972  0.2261 -0.0893  0.1395
  107loPI   C4A 1706  18.007   9.058   9.581 -0.4385 -0.2033 -0.1312
  107loPI   C5A 1707  17.948   9.159   9.162 -0.3380 -0.0546 -0.3330
  107loPI   C6A 1708  17.914   9.518   8.908 -0.2650 -0.0457 -0.2232
  107loPI   C1B 1709  18.097   8.573  10.541 -0.0495  0.3551 -0.1716
  107loPI   C2B 1710  18.161   8.638  10.044  0.0619  0.0185 -0.1230
  107loPI   C3B 1711  18.098   8.566   9.562  0.2316  0.2341  0.3334
  107loPI   C4B 1712  18.177   8.652   9.119  0.2031  0.1595 -0.0269
  108loPI    C1 1713   6.929  15.593  11.504  0.2608  0.1394 -0.0183
  108loPI    C2 1714   6.727  15.657  11.843 -0.0065  0.0221 -0.1521
  108loPI    C3 1715   7.127  15.647  11.847 -0.0093 -0.0965  0.1797
  108loPI   PO4 1716   6.693  15.664  11.257 -0.0177 -0.2093 -0.1366
  108loPI   GL1 1717   6.498  15.984  11.112 -0.2907 -0.2191  0.2226
  108loPI   GL2 1718   6.591  16.328  11.082  0.0986  0.1232  0.0773
  108loPI   C1A 1719   6.449  16.028  10.620 -0.4251  0.0578  0.2949
  108loPI   C2A 1720   6.407  15.981  10.177 -0.0097  0.4658  0.1787
  108loPI   C3A 1721   6.527  15.968   9.744  0.1890  0.0750 -0.0227
  108loPI   C4A 1722   6.494  15.980   9.325 -0.0657  0.3877  0.0165
  108loPI   C5A 1723   6.496  16.023   8.841 -0.0734  0.2455  0.0867
  108loPI   C6A 1724   6.230  16.027   8.505  0.2222 -0.2642 -0.1027
  108loPI   C1B 1725   6.787  16.397  10.721 -0.0895 -0.2279 -0.3475
  108loPI   C2B 1726   6.755  16.363  10.332  0.2459 -0.1960 -0.0423
  108loPI   C3B 1727   6.830  16.332   9.936 -0.2471 -0.2972 -0.0388
  108loPI   C4B 1728   6.792  16.356   9.567  0.0179  0.0835  0.1987
  109loPI    C1 1729   3.957  11.528  11.266  0.0020 -0.3141 -0.0339
  109loPI    C2 1730   4.013  11.391  11.638  0.1323 -0.0883  0.0315
  109loPI    C3 1731   3.704  11.260  11.421 -0.1775  0.0725  0.3642
  109loPI   PO4 1732   4.291  11.653  11.171  0.1239  0.1371  0.1863
  109loPI   GL1 1733   4.631  11.787  10.847  0.3965  0.0095 -0.2023
  109loPI   GL2 1734   4.911  11.783  10.706  0.1435  0.2059  0.0216
  109loPI   C1A 1735   4.413  11.727  10.444 -0.1111 -0.1689  0.2268
  109loPI   C2A 1736   4.408  11.723  10.115 -0.1010 -0.3552 -0.2213
  109loPI   C3A 1737   4.390  11.723   9.570  0.1100 -0.2140 -0.0455
  109loPI   C4A 1738   4.368  11.804   9.214 -0.2012  0.1028 -0.0950
  109loPI   C5A 1739   4.580  11.947   8.826  0.0303  0.0350 -0.1632
  109loPI   C6A 1740   4.440  12.090   8.435  0.2914  0.1939 -0.1415
  109loPI   C1B 1741   4.894  11.637  10.255  0.0932 -0.0165  0.2398
  109loPI   C2B 1742   4.885  11.689   9.797  0.0946 -0.2286  0.0894
  109loPI   C3B 1743   4.892  11.752   9.309 -0.0207  0.0782 -0.0815
  109loPI   C4B 1744   4.997  11.702   8.978  0.0432  0.0560 -0.0549
  110loPI    C1 1745  16.208  13.508  11.992 -0.3282  0.2728  0.1879
  110loPI    C2 1746  16.519  13.759  11.972 -0.0180 -0.1109  0.0651
  110loPI    C3 1747  16.419  13.593  12.321  0.1191 -0.2340  0.0468
  110loPI   PO4 1748  16.210  13.358  11.751 -0.0157 -0.1604 -0.0504
  110loPI   GL1 1749  16.256  13.441  11.357  0.0294  0.0003 -0.0216
  110loPI   GL2 1750  16.377  13.199  11.165 -0.1192  0.3861  0.1644
  110loPI   C1A 1751  16.108  13.520  10.875  0.0888 -0.2829 -0.1594
  110loPI   C2A 1752  16.106  13.508  10.455 -0.1255 -0.0173  0.1319
  110loPI   C3A 1753  16.245  13.415  10.038  0.1682 -0.2735 -0.0412
  110loPI   C4A 1754  16.219  13.406   9.617  0.1366 -0.2529  0.1986
  110loPI   C5A 1755  16.322  13.400   9.158 -0.2224  0.0436  0.2962
  110loPI   C6A 1756  16.192  13.187   8.750 -0.1040 -0.0934 -0.2915
  110loPI   C1B 1757  16.287  13.096  10.731 -0.1966  0.1760  0.0037
  110loPI   C2B 1758  16.377  13.009  10.314 -0.0142 -0.0682 -0.3114
  110loPI   C3B 1759  16.397  12.929   9.806  0.0308 -0.0761 -0.1357
  110loPI   C4B 1760  16.472  12.959   9.388 -0.1122  0.0563 -0.2453
  111loPI    C1 1761  11.037  16.931  11.473  0.0818  0.1963  0.2525
  111loPI    C2 1762  10.722  16.709  11.579  0.3482 -0.1845  0.2667
  111loPI    C3 1763  10.781  17.067  11.749 -0.1152 -0.0724  0.2052
  111loPI   PO4 1764  11.047  16.854  11.188 -0.2992  0.0653  0.0153
  111loPI   GL1 1765  10.883  16.884  10.764 -0.1986 -0.1285  0.2965
  111loPI   GL2 1766  10.770  17.283  10.773  0.1154 -0.0111 -0.4392
  111loPI   C1A 1767  10.939  16.886  10.388  0.1600  0.0164  0.0469
  111loPI   C2A 1768  10.922  16.843   9.974  0.0718 -0.1110 -0.1515
  111loPI   C3A 1769  11.082  16.478   9.824  0.0749 -0.0932  0.0819
  111loPI   C4A 1770  11.309  15.988   9.953  0.0184 -0.2669 -0.2463
  111loPI   C5A 1771  11.417  15.574   9.780 -0.1481 -0.1587  0.0691
  111loPI   C6A 1772  11.427  15.274   9.478  0.2103 -0.2227  0.3017
  111loPI   C1B 1773  10.672  17.258  10.292  0.0120 -0.0533  0.1504
  111loPI   C2B 1774  10.700  17.375   9.836 -0.1270 -0.1300  0.0007
  111loPI   C3B 1775  10.652  17.353   9.347  0.2204  0.2951  0.0419
  111loPI   C4B 1776  10.649  17.124   8.946  0.0917 -0.1238 -0.0622
  112loPI    C1 1777  15.068  15.423  11.785 -0.2996  0.0132 -0.0589
  112loPI    C2 1778  14.927  15.223  12.101 -0.0721 -0.0581 -0.0004
  112loPI    C3 1779  15.107  15.576  12.152 -0.0980 -0.0362 -0.0588
  112loPI   PO4 1780  14.938  15.410  11.621 -0.1728 -0.3000 -0.0921
  112loPI   GL1 1781  14.996  15.355  11.096  0.0499  0.1300  0.0498
  112loPI   GL2 1782  15.205  15.441  10.991 -0.0581 -0.3753  0.2044
  112loPI   C1A 1783  15.044  15.086  10.705  0.0483  0.0824  0.2124
  112loPI   C2A 1784  15.075  14.943  10.297  0.1648  0.1029 -0.3137
  112loPI   C3A 1785  15.081  14.900   9.898  0.1506  0.1923  0.0049
  112loPI   C4A 1786  15.030  14.887   9.433 -0.0243  0.1803  0.2562
  112loPI   C5A 1787  15.077  14.680   9.059  0.0040  0.4694 -0.0927
  112loPI   C6A 1788  15.206  14.685   8.533  0.0641  0.0386 -0.0107
  112loPI   C1B 1789  15.377  15.482  10.543  0.2079 -0.1509 -0.1300
  112loPI   C2B 1790  15.335  15.362  10.151 -0.0813 -0.0637 -0.1143
  112loPI   C3B 1791  15.380  15.215   9.655 -0.1003  0.2167 -0.2379
  112loPI   C4B 1792  15.436  15.262   9.276  0.0070 -0.2233 -0.0308
  113loPI    C1 1793   5.181  14.984  11.636 -0.0684  0.2026  0.2404
  113loPI    C2 1794   5.531  15.038  11.820 -0.0894  0.2147  0.2769
  113loPI    C3 1795   5.330  14.696  11.871  0.1131  0.0381 -0.0698
  113loPI   PO4 1796   5.201  15.058  11.365  0.0342 -0.0666 -0.0235
  113loPI   GL1 1797   5.044  15.052  11.013  0.0527  0.1403 -0.5362
  113loPI   GL2 1798   4.902  14.687  10.891  0.2977 -0.2759 -0.0677
  113loPI   C1A 1799   4.852  15.200  10.655  0.0621 -0.0456  0.2435
  113loPI   C2A 1800   4.826  15.325  10.150  0.1474 -0.1677 -0.4316
  113loPI   C3A 1801   4.863  15.233   9.790  0.1022  0.0906  0.0514
  113loPI   C4A 1802   4.902  15.397   9.368 -0.1699  0.1579 -0.2361
  113loPI   C5A 1803   4.814  15.250   9.002 -0.3461 -0.3360  0.6122
  113loPI   C6A 1804   4.931  15.313   8.560 -0.1624 -0.2448  0.0669
  113loPI   C1B 1805   5.004  14.805  10.385  0.1204  0.0057 -0.0232
  113loPI   C2B 1806   5.103  14.792   9.890 -0.1017 -0.0844  0.2164
  113loPI   C3B 1807   5.022  14.715   9.437 -0.2050 -0.3032 -0.1100
  113loPI   C4B 1808   4.998  14.768   9.022 -0.0965  0.2664  0.1204
  114loPI    C1 1809  13.981  11.760  11.700  0.0211 -0.0639 -0.1966
  114loPI    C2 1810  13.772  11.432  11.793  0.1670 -0.1140 -0.0402
  114loPI    C3 1811  13.966  11.633  12.079  0.1413  0.0657 -0.1477
  114loPI   PO4 1812  13.908  11.832  11.476 -0.0370 -0.2038  0.3828
  114loPI   GL1 1813  13.892  11.817  11.061 -0.0709 -0.1277 -0.0180
  114loPI   GL2 1814  13.852  11.443  11.113 -0.0286  0.3090  0.0440
  114loPI   C1A 1815  13.905  11.925  10.636 -0.2274  0.3038  0.0440
  114loPI   C2A 1816  13.954  11.879  10.152 -0.1453  0.2364  0.0679
  114loPI   C3A 1817  13.989  11.795   9.633  0.0848  0.1393 -0.1065
  114loPI   C4A 1818  13.923  11.815   9.170  0.0231 -0.3039  0.0316
  114loPI   C5A 1819  13.983  11.904   8.799 -0.0533  0.1189  0.1702
  114loPI   C6A 1820  14.398  11.821   8.548  0.0333 -0.0362 -0.1209
  114loPI   C1B 1821  14.034  11.414  10.699 -0.1214  0.0134  0.1538
  114loPI   C2B 1822  14.160  11.264  10.313 -0.0650  0.4020 -0.1716
  114loPI   C3B 1823  14.123  11.437   9.931  0.0767  0.2348 -0.0755
  114loPI   C4B 1824  14.076  11.319   9.418 -0.0519 -0.1834  0.0427
  115loPI    C1 1825  10.281   7.537  11.674  0.1167  0.1243  0.1298
  115loPI    C2 1826  10.267   7.189  11.872  0.0171  0.0678  0.0250
  115loPI    C3 1827  10.001   7.477  11.954  0.1943  0.1788  0.2195
  115loPI   PO4 1828  10.218   7.569  11.428  0.1286  0.1646  0.1896
  115loPI   GL1 1829  10.304   7.643  10.989  0.0633 -0.0890  0.1598
  115loPI   GL2 1830  10.407   7.405  10.933  0.2375  0.0424 -0.0057
  115loPI   C1A 1831  10.273   7.791  10.522  0.1276  0.0527  0.2545
  115loPI   C2A 1832  10.258   7.839  10.185  0.1021  0.0095  0.0142
  115loPI   C3A 1833  10.278   7.803   9.826 -0.0255 -0.0900 -0.0794
  115loPI   C4A 1834  10.294   7.780   9.373 -0.0040  0.0463 -0.0848
  115loPI   C5A 1835  10.267   7.801   8.961  0.0803  0.2903  0.1206
  115loPI   C6A 1836  10.497   7.740   8.687  0.1514  0.1532 -0.0489
  115loPI   C1B 1837  10.489   7.373  10.500 -0.1070 -0.1368 -0.1310
  115loPI   C2B 1838  10.460   7.342  10.108 -0.0926 -0.1554  0.2317
  115loPI   C3B 1839  10.493   7.315   9.693  0.2377  0.1237  0.0220
  115loPI   C4B 1840  10.441   7.271   9.214  0.4091  0.2643  0.1641
  116loPI    C1 1841   6.020  11.241  11.672  0.0082 -0.1597  0.1528
  116loPI    C2 1842   5.916  11.549  11.905  0.1356 -0.0091  0.0134
  116loPI    C3 1843   5.969  11.186  12.065 -0.2065 -0.0028  0.1488
  116loPI   PO4 1844   5.944  11.252  11.549  0.0247  0.1057 -0.1004
  116loPI   GL1 1845   5.852  11.285  11.138  0.1535 -0.2752 -0.3792
  116loPI   GL2 1846   5.974  10.940  11.006  0.3203 -0.3665  0.1354
  116loPI   C1A 1847   5.880  11.431  10.686 -0.4115 -0.0773 -0.0544
  116loPI   C2A 1848   5.932  11.465  10.275  0.1605 -0.2486  0.1032
  116loPI   C3A 1849   5.868  11.514   9.883 -0.1844  0.1005 -0.2524
  116loPI   C4A 1850   5.963  11.477   9.463  0.2866 -0.0912 -0.0186
  116loPI   C5A 1851   6.104  11.486   9.074 -0.1500 -0.2078 -0.1673
  116loPI   C6A 1852   6.288  11.778   8.623 -0.1827  0.2822  0.0528
  116loPI   C1B 1853   6.056  10.991  10.513  0.0132 -0.1539  0.1232
  116loPI   C2B 1854   6.097  10.946  10.102  0.3938 -0.0465 -0.1675
  116loPI   C3B 1855   6.032  11.052   9.639 -0.2855  0.1414  0.0205
  116loPI   C4B 1856   6.095  11.006   9.168  0.1437  0.0045  0.0674
  117loPI    C1 1857  17.120   6.485  11.379  0.0768  0.0562 -0.1577
  117loPI    C2 1858  17.041   6.679  11.720  0.0595  0.3304 -0.3157
  117loPI    C3 1859  17.265   6.348  11.726 -0.1397  0.1970 -0.0093
  117loPI   PO4 1860  16.898   6.522  11.251  0.1035  0.2064  0.0594
  117loPI   GL1 1861  16.529   6.692  10.981  0.0148 -0.0117 -0.0937
  117loPI   GL2 1862  16.483   6.436  10.769  0.4962  0.1776  0.1518
  117loPI   C1A 1863  16.353   6.968  10.722  0.1245 -0.0966 -0.2344
  117loPI   C2A 1864  16.307   7.043  10.331 -0.2383  0.2026 -0.0094
  117loPI   C3A 1865  16.350   6.994   9.865 -0.0513 -0.1150 -0.0696
  117loPI   C4A 1866  16.406   6.925   9.460 -0.0535 -0.0685 -0.1416
  117loPI   C5A 1867  16.372   7.097   8.991 -0.4382 -0.0790  0.3360
  117loPI   C6A 1868  16.399   7.147   8.447 -0.1072 -0.2149  0.0336
  117loPI   C1B 1869  16.505   6.537  10.274  0.2358  0.0835 -0.0328
  117loPI   C2B 1870  16.610   6.518   9.860 -0.0323  0.2664  0.3347
  117loPI   C3B 1871  16.546   6.483   9.530 -0.0033  0.1955  0.0150
  117loPI   C4B 1872  16.575   6.582   9.081  0.2670  0.2921 -0.1449
  118loPI    C1 1873  15.007   5.283  11.705 -0.1294  0.2097  0.1108
  118loPI    C2 1874  14.766   5.594  11.780 -0.0510  0.2868  0.0464
  118loPI    C3 1875  14.936   5.394  12.083 -0.0032  0.3847  0.0848
  118loPI   PO4 1876  15.207   5.343  11.386  0.2306 -0.1807  0.0873
  118loPI   GL1 1877  15.256   5.505  11.059  0.0498  0.0088 -0.0595
  118loPI   GL2 1878  15.329   5.896  10.884  0.3060 -0.1650  0.2450
  118loPI   C1A 1879  15.089   5.424  10.695  0.3236  0.2462  0.0626
  118loPI   C2A 1880  15.126   5.334  10.294 -0.1422  0.0545 -0.0873
  118loPI   C3A 1881  15.134   5.297   9.873 -0.0631  0.0616  0.0485
  118loPI   C4A 1882  15.143   5.252   9.437  0.0037  0.0202  0.1242
  118loPI   C5A 1883  15.109   5.241   9.000  0.4422 -0.1829  0.1219
  118loPI   C6A 1884  15.081   5.096   8.520 -0.1790 -0.0317  0.0644
  118loPI   C1B 1885  15.380   5.769  10.464  0.0053 -0.0575  0.0254
  118loPI   C2B 1886  15.358   5.686  10.005 -0.0479 -0.2428 -0.1860
  118loPI   C3B 1887  15.309   5.658   9.609 -0.0837  0.0647  0.0807
  118loPI   C4B 1888  15.333   5.643   9.241 -0.2858 -0.1428  0.3680
  119loPI    C1 1889   9.166  16.256  11.365  0.0474 -0.0873 -0.0878
  119loPI    C2 1890   9.398  16.451  11.625 -0.1443  0.1241 -0.0726
  119loPI    C3 1891   9.184  16.136  11.746  0.0673 -0.0200 -0.0676
  119loPI   PO4 1892   9.208  16.273  11.162 -0.2769  0.1931 -0.3224
  119loPI   GL1 1893   9.116  16.102  10.772  0.2759  0.0627 -0.0464
  119loPI   GL2 1894   8.884  16.161  10.696  0.0050  0.2302 -0.2648
  119loPI   C1A 1895   9.359  16.150  10.443  0.1509  0.3118 -0.0208
  119loPI   C2A 1896   9.388  16.143  10.074  0.2823  0.4218 -0.1742
  119loPI   C3A 1897   9.330  16.057   9.715 -0.1112  0.1140  0.3070
  119loPI   C4A 1898   9.306  16.218   9.399 -0.1492  0.1244  0.4288
  119loPI   C5A 1899   9.382  16.208   9.019 -0.0186 -0.1851 -0.2610
  119loPI   C6A 1900   9.869  16.333   8.846  0.2251  0.4511  0.1794
  119loPI   C1B 1901   8.855  16.171  10.234 -0.1491  0.0119 -0.0727
  119loPI   C2B 1902   8.848  16.142   9.827  0.3179 -0.1569 -0.2071
  119loPI   C3B 1903   8.804  16.156   9.472  0.0265 -0.2624  0.3311
  119loPI   C4B 1904   8.723  16.214   9.048 -0.0672 -0.0996  0.3684
  120loPI    C1 1905   9.369   3.246  11.419  0.2013 -0.2363 -0.0439
  120loPI    C2 1906   9.601   3.040  11.672 -0.0627 -0.1817  0.2503
  120loPI    C3 1907   9.368   3.335  11.809 -0.0590 -0.0138 -0.0917
  120loPI   PO4 1908   9.296   3.031  11.205  0.0824  0.1933 -0.4501
  120loPI   GL1 1909   9.151   2.871  10.791 -0.4253  0.1124 -0.2011
  120loPI   GL2 1910   9.444   2.810  10.796 -0.2352 -0.0744  0.1701
  120loPI   C1A 1911   8.914   2.906  10.458 -0.1657  0.0696  0.1079
  120loPI   C2A 1912   8.904   2.910   9.947  0.4614  0.2702 -0.0414
  120loPI   C3A 1913   8.833   2.944   9.536 -0.0173  0.0927  0.1508
  120loPI   C4A 1914   8.845   2.937   9.077 -0.0537 -0.1803 -0.0822
  120loPI   C5A 1915   8.924   2.944   8.745  0.0609 -0.0579 -0.1748
  120loPI   C6A 1916   9.309   2.938   8.530 -0.1377 -0.3062 -0.0651
  120loPI   C1B 1917   9.372   2.923  10.346 -0.0832 -0.1491  0.1517
  120loPI   C2B 1918   9.413   2.838   9.946 -0.1168 -0.2953 -0.2052
  120loPI   C3B 1919   9.341   2.864   9.487 -0.3669 -0.0025 -0.2996
  120loPI   C4B 1920   9.331   2.954   9.044 -0.0749 -0.0740 -0.1574
  121loPI    C1 1921   1.846   4.399  12.060  0.2381  0.0632 -0.1969
  121loPI    C2 1922   2.039   4.049  12.051  0.0857 -0.0247 -0.0895
  121loPI    C3 1923   1.857   4.168  12.387 -0.0352  0.0631 -0.1853
  121loPI   PO4 1924   1.722   4.403  11.779 -0.0107  0.2872  0.1030
  121loPI   GL1 1925   1.605   4.332  11.323  0.2089  0.1394 -0.1079
  121loPI   GL2 1926   1.946   4.488  11.219 -0.1611 -0.1341  0.0358
  121loPI   C1A 1927   1.592   4.311  10.890  0.1419  0.0929  0.1181
  121loPI   C2A 1928   1.697   4.387  10.515  0.1202  0.0670  0.0662
  121loPI   C3A 1929   1.641   4.495  10.067  0.2611 -0.0109  0.1975
  121loPI   C4A 1930   1.613   4.475   9.654  0.0435  0.1096  0.0952
  121loPI   C5A 1931   1.498   4.450   9.256 -0.0105  0.3289  0.1337
  121loPI   C6A 1932   1.655   4.679   8.917 -0.3186  0.0883 -0.3908
  121loPI   C1B 1933   1.942   4.745  10.814 -0.0427  0.2948  0.1093
  121loPI   C2B 1934   1.898   4.815  10.369 -0.2815 -0.0840  0.0467
  121loPI   C3B 1935   1.918   4.868   9.941  0.0027  0.0567  0.4142
  121loPI   C4B 1936   1.926   4.844   9.438 -0.2545 -0.1955 -0.1414
  122loPI    C1 1937  10.273   0.971  11.478  0.1326 -0.0134 -0.1152
  122loPI    C2 1938  10.060   0.637  11.420 -0.0313  0.0781 -0.0474
  122loPI    C3 1939  10.261   0.689  11.762  0.2339 -0.0794 -0.1757
  122loPI   PO4 1940  10.387   1.004  11.363  0.1290 -0.0043 -0.1527
  122loPI   GL1 1941  10.396   1.066  10.902  0.2344  0.0598  0.0100
  122loPI   GL2 1942  10.759   0.875  10.930  0.1850 -0.2235 -0.1466
  122loPI   C1A 1943  10.181   0.966  10.548  0.0977  0.0597 -0.0941
  122loPI   C2A 1944  10.052   0.995  10.075 -0.1294  0.0494  0.2141
  122loPI   C3A 1945  10.135   1.051   9.696 -0.0633 -0.1479  0.0244
  122loPI   C4A 1946  10.127   1.092   9.246 -0.0732 -0.0858 -0.1071
  122loPI   C5A 1947  10.177   0.753   8.932 -0.4262 -0.0486 -0.2714
  122loPI   C6A 1948  10.348   0.784   8.427  0.3320  0.0513 -0.0608
  122loPI   C1B 1949  10.707   0.904  10.520 -0.2712 -0.0577  0.0218
  122loPI   C2B 1950  10.652   1.015  10.136 -0.0274  0.1251 -0.2037
  122loPI   C3B 1951  10.629   0.904   9.702  0.1058 -0.1430  0.0711
  122loPI   C4B 1952  10.624   0.925   9.229  0.2520  0.1693 -0.0839
  123loPI    C1 1953   3.911  13.885  11.532  0.1848  0.0581 -0.0802
  123loPI    C2 1954   3.696  14.196  11.663 -0.2185 -0.1969 -0.1214
  123loPI    C3 1955   3.896  13.968  11.923 -0.0551 -0.0030 -0.0749
  123loPI   PO4 1956   3.690  13.859  11.254  0.2323 -0.0118 -0.1450
  123loPI   GL1 1957   3.772  13.703  10.939  0.0827 -0.1116  0.3607
  123loPI   GL2 1958   3.571  13.580  10.822  0.1110 -0.0019 -0.0453
  123loPI   C1A 1959   3.819  13.961  10.599 -0.1646  0.2036 -0.0527
  123loPI   C2A 1960   3.858  14.084  10.087  0.0587  0.1596 -0.0007
  123loPI   C3A 1961   3.876  14.108   9.639  0.2712 -0.3931  0.0655
  123loPI   C4A 1962   3.843  14.156   9.177 -0.0764 -0.0141  0.3469
  123loPI   C5A 1963   3.850  14.401   8.841 -0.1100  0.1795  0.2957
  123loPI   C6A 1964   3.956  14.821   8.907 -0.0127 -0.3649 -0.0421
  123loPI   C1B 1965   3.548  13.598  10.369  0.0364 -0.0565 -0.0326
  123loPI   C2B 1966   3.594  13.666   9.872  0.1044  0.1120  0.2334
  123loPI   C3B 1967   3.590  13.649   9.482 -0.2146 -0.1294 -0.0092
  123loPI   C4B 1968   3.497  13.666   9.123 -0.1331  0.3013 -0.2073
  124loPI    C1 1969   6.261  13.947  11.577 -0.1199 -0.4129 -0.1236
  124loPI    C2 1970   5.864  13.973  11.615 -0.1033 -0.1239 -0.1245
  124loPI    C3 1971   6.102  14.167  11.870  0.0361 -0.1677 -0.2200
  124loPI   PO4 1972   6.313  13.964  11.324  0.0790 -0.0813 -0.0649
  124loPI   GL1 1973   6.115  14.054  11.037 -0.0797  0.0657  0.0687
  124loPI   GL2 1974   5.765  14.142  11.163  0.2601  0.1399  0.3245
  124loPI   C1A 1975   6.261  14.064  10.641 -0.0587  0.1456 -0.1615
  124loPI   C2A 1976   6.213  14.091  10.221 -0.0254 -0.1024 -0.0031
  124loPI   C3A 1977   6.169  14.212   9.847  0.0076  0.0478  0.0085
  124loPI   C4A 1978   6.223  14.186   9.400 -0.2071 -0.1667 -0.2762
  124loPI   C5A 1979   6.365  14.102   9.027  0.2998  0.1287  0.1969
  124loPI   C6A 1980   6.248  14.009   8.575 -0.1743 -0.0353 -0.0533
  124loPI   C1B 1981   5.686  14.214  10.734 -0.3696 -0.1338 -0.1048
  124loPI   C2B 1982   5.729  14.329  10.334  0.0235  0.3994 -0.1030
  124loPI   C3B 1983   5.693  14.243   9.909  0.2443  0.1333 -0.0909
  124loPI   C4B 1984   5.653  14.260   9.471 -0.2155 -0.0476 -0.0114
  125loPI    C1 1985  14.243  17.191  11.667  0.0430 -0.3838  0.1884
  125loPI    C2 1986  14.488  17.205  11.984  0.0137 -0.0150  0.1996
  125loPI    C3 1987  14.130  17.383  12.000 -0.1394 -0.3049  0.0824
  125loPI   PO4 1988  14.269  16.939  11.545  0.2323 -0.0546 -0.0182
  125loPI   GL1 1989  14.333  16.797  11.170 -0.4856  0.0081  0.1804
  125loPI   GL2 1990  14.669  16.836  11.091  0.0222 -0.1250  0.1876
  125loPI   C1A 1991  14.240  16.897  10.759 -0.0860  0.1758 -0.0342
  125loPI   C2A 1992  14.271  16.919  10.281 -0.0703 -0.1150  0.0797
  125loPI   C3A 1993  14.298  16.817   9.859 -0.0703 -0.3060  0.2114
  125loPI   C4A 1994  14.296  16.706   9.449  0.0209 -0.1447  0.0131
  125loPI   C5A 1995  14.264  16.717   8.992 -0.0893 -0.1996  0.0810
  125loPI   C6A 1996  14.288  16.912   8.503  0.1658  0.1060  0.1426
  125loPI   C1B 1997  14.787  16.960  10.651  0.2126  0.1492 -0.2369
  125loPI   C2B 1998  14.787  16.795  10.257  0.0546 -0.1074 -0.2954
  125loPI   C3B 1999  14.792  16.711   9.750 -0.0439  0.0348  0.2366
  125loPI   C4B 2000  14.798  16.645   9.375 -0.2429  0.0271 -0.1148
  126loPI    C1 2001   8.784   9.681  11.410  0.0941 -0.0050  0.0120
  126loPI    C2 2002   8.907   9.458  11.719  0.0849 -0.0524 -0.0186
  126loPI    C3 2003   8.562   9.660  11.743  0.1187 -0.0003  0.0288
  126loPI   PO4 2004   8.767   9.636  11.186 -0.0784 -0.1158  0.1686
  126loPI   GL1 2005   9.115   9.504  10.882 -0.1646 -0.4685  0.1314
  126loPI   GL2 2006   8.753   9.317  10.798 -0.1990 -0.0554 -0.1915
  126loPI   C1A 2007   9.225   9.309  10.665  0.0849 -0.2607  0.2097
  126loPI   C2A 2008   9.178   9.186  10.243  0.1329  0.0110  0.1994
  126loPI   C3A 2009   9.230   9.252   9.743  0.2976 -0.0361  0.0350
  126loPI   C4A 2010   9.246   9.315   9.346  0.0819  0.1537  0.2627
  126loPI   C5A 2011   9.211   9.458   8.917  0.0019  0.1529 -0.1358
  126loPI   C6A 2012   9.110   9.795   8.578 -0.1427 -0.1541  0.0020
  126loPI   C1B 2013   8.718   9.367  10.328 -0.0932 -0.1231  0.0959
  126loPI   C2B 2014   8.713   9.264   9.940  0.3606  0.4001  0.1018
  126loPI   C3B 2015   8.694   9.425   9.603 -0.1908  0.0033 -0.1650
  126loPI   C4B 2016   8.691   9.367   9.204  0.4058  0.1278  0.0261
  127loPI    C1 2017   9.008  12.716  11.449  0.0156  0.0952  0.0894
  127loPI    C2 2018   9.293  12.927  11.634  0.1187 -0.0933  0.1480
  127loPI    C3 2019   8.919  12.931  11.775  0.0850  0.1735  0.0574
  127loPI   PO4 2020   9.078  12.773  11.149  0.2590 -0.0864  0.0899
  127loPI   GL1 2021   9.313  12.737  10.826  0.1190  0.0119  0.1182
  127loPI   GL2 2022   9.204  12.977  10.715  0.0292  0.0459 -0.1244
  127loPI   C1A 2023   9.377  12.476  10.443  0.0253  0.0908  0.1288
  127loPI   C2A 2024   9.355  12.429  10.017  0.0150 -0.1638  0.0059
  127loPI   C3A 2025   9.327  12.463   9.629  0.0764 -0.5352  0.1526
  127loPI   C4A 2026   9.459  12.530   9.225  0.1087 -0.0667 -0.0266
  127loPI   C5A 2027   9.455  12.622   8.714 -0.0361 -0.0860 -0.3599
  127loPI   C6A 2028   9.417  13.101   8.580 -0.1964  0.3020 -0.2441
  127loPI   C1B 2029   9.206  12.943  10.200 -0.0538 -0.0584  0.0784
  127loPI   C2B 2030   9.125  12.869   9.805  0.1573  0.1084  0.0572
  127loPI   C3B 2031   9.154  12.888   9.419  0.1041 -0.2178  0.2993
  127loPI   C4B 2032   9.193  12.911   9.038  0.0722 -0.2452 -0.0255
  128loPI    C1 2033  12.651  12.617  11.629 -0.1593  0.2777  0.1436
  128loPI    C2 2034  13.013  12.702  11.777  0.0063 -0.1244 -0.0155
  128loPI    C3 2035  12.770  12.453  11.974 -0.0719 -0.0747 -0.0489
  128loPI   PO4 2036  12.727  12.508  11.335 -0.0872  0.0476  0.1845
  128loPI   GL1 2037  12.706  12.502  10.886  0.2645  0.1019 -0.2932
  128loPI   GL2 2038  12.949  12.165  10.913 -0.0098  0.1088  0.3731
  128loPI   C1A 2039  12.761  12.602  10.443 -0.1910  0.1024  0.2528
  128loPI   C2A 2040  12.758  12.508  10.066 -0.3137 -0.1448  0.0763
  128loPI   C3A 2041  12.753  12.359   9.645 -0.1162  0.0547 -0.0003
  128loPI   C4A 2042  12.782  12.478   9.196 -0.1760 -0.2235 -0.2036
  128loPI   C5A 2043  12.807  12.344   8.812 -0.1050 -0.4068 -0.0843
  128loPI   C6A 2044  13.025  12.027   8.743  0.1436  0.0139  0.1347
  128loPI   C1B 2045  12.831  12.072  10.517  0.1320 -0.2633 -0.0545
  128loPI   C2B 2046  12.903  11.997  10.104  0.1924  0.1940 -0.0422
  128loPI   C3B 2047  12.964  11.887   9.752 -0.1272 -0.0580 -0.0513
  128loPI   C4B 2048  12.970  11.900   9.247 -0.3262 -0.1181 -0.3121
  129loPI    C1 2049   1.532   3.921  11.809  0.1090  0.2856 -0.1089
  129loPI    C2 2050   1.435   4.170  12.107 -0.0332  0.0595  0.0365
  129loPI    C3 2051   1.531   3.790  12.187  0.0441  0.0286 -0.1961
  129loPI   PO4 2052   1.747   3.946  11.579 -0.1763 -0.1347  0.2636
  129loPI   GL1 2053   1.748   3.873  11.183 -0.0579 -0.1655  0.0187
  129loPI   GL2 2054   1.958   3.606  11.283 -0.0835 -0.2041  0.1591
  129loPI   C1A 2055   1.828   3.907  10.723  0.1116  0.1022  0.0588
  129loPI   C2A 2056   1.804   3.976  10.306  0.1827  0.0964  0.2515
  129loPI   C3A 2057   1.722   3.963   9.908 -0.0952 -0.3098 -0.0040
  129loPI   C4A 2058   1.719   3.924   9.418  0.0201  0.2005  0.0691
  129loPI   C5A 2059   1.623   3.841   8.977  0.1395 -0.2433 -0.0619
  129loPI   C6A 2060   1.552   3.741   8.595  0.3360  0.2758  0.1123
  129loPI   C1B 2061   2.017   3.414  10.829  0.1609  0.0122 -0.4409
  129loPI   C2B 2062   1.963   3.423  10.315  0.2696 -0.0147 -0.0431
  129loPI   C3B 2063   1.998   3.495   9.853 -0.2426  0.2081 -0.2397
  129loPI   C4B 2064   2.010   3.471   9.432 -0.2851  0.3740 -0.0076
  130loPI    C1 2065  16.933  10.457  11.973  0.3142  0.1119 -0.2766
  130loPI    C2 2066  17.170  10.734  12.137  0.1042  0.1108  0.0359
  130loPI    C3 2067  17.117  10.382  12.320 -0.1635  0.1240 -0.0131
  130loPI   PO4 2068  17.060  10.434  11.698  0.2138 -0.4158  0.0329
  130loPI   GL1 2069  17.145  10.340  11.302 -0.1401 -0.0378  0.0415
  130loPI   GL2 2070  17.192  10.549  11.087 -0.1987  0.1449  0.0388
  130loPI   C1A 2071  16.933  10.243  10.804 -0.0531  0.2939  0.0585
  130loPI   C2A 2072  16.948  10.053  10.416 -0.0543 -0.1295 -0.0414
  130loPI   C3A 2073  16.995  10.106  10.039 -0.1991 -0.1027 -0.1476
  130loPI   C4A 2074  16.970  10.069   9.513 -0.0748 -0.1148 -0.0021
  130loPI   C5A 2075  17.088   9.966   9.116  0.3169 -0.2118  0.0864
  130loPI   C6A 2076  17.287   9.725   8.828 -0.0660  0.2311  0.0229
  130loPI   C1B 2077  17.267  10.567  10.634  0.2005 -0.0528 -0.1643
  130loPI   C2B 2078  17.401  10.629  10.136  0.2455 -0.1592  0.0857
  130loPI   C3B 2079  17.366  10.527   9.735 -0.0852 -0.1826 -0.1201
  130loPI   C4B 2080  17.273  10.459   9.235  0.2030 -0.0253 -0.1337
  131loPI    C1 2081   0.769   5.683  11.843 -0.2551  0.2277 -0.1208
  131loPI    C2 2082   0.920   6.052  11.808 -0.0884  0.1587 -0.1389
  131loPI    C3 2083   0.584   5.992  12.017 -0.0750  0.3099 -0.0730
  131loPI   PO4 2084   0.776   5.591  11.579 -0.0030 -0.0937 -0.3588
  131loPI   GL1 2085   0.900   5.546  11.188  0.0027  0.3065 -0.0786
  131loPI   GL2 2086   0.626   5.428  10.998 -0.0815  0.0132  0.1480
  131loPI   C1A 2087   1.059   5.809  10.821 -0.0052 -0.2225  0.0175
  131loPI   C2A 2088   0.942   5.874  10.403  0.0375 -0.1583  0.0033
  131loPI   C3A 2089   0.914   5.899   9.891  0.3266 -0.1099  0.0402
  131loPI   C4A 2090   0.983   5.902   9.464  0.0110  0.0108  0.1272
  131loPI   C5A 2091   1.005   5.848   9.072  0.0658 -0.0243  0.3044
  131loPI   C6A 2092   1.341   5.599   8.864  0.0993 -0.4015 -0.1585
  131loPI   C1B 2093   0.646   5.385  10.645 -0.1010  0.2456 -0.3415
  131loPI   C2B 2094   0.684   5.433  10.279  0.0063  0.0523 -0.0531
  131loPI   C3B 2095   0.703   5.404   9.978  0.1610 -0.2406  0.0402
  131loPI   C4B 2096   0.660   5.532   9.516 -0.1331  0.1368 -0.2557
  132loPI    C1 2097   1.923  13.636  11.715  0.0183 -0.0033  0.0684
  132loPI    C2 2098   2.280  13.773  11.832 -0.0171  0.2278 -0.0872
  132loPI    C3 2099   1.948  13.889  12.024  0.0003 -0.0978  0.1476
  132loPI   PO4 2100   1.954  13.590  11.438 -0.1108 -0.0905 -0.1083
  132loPI   GL1 2101   2.036  13.913  11.121 -0.0507  0.1520  0.2469
  132loPI   GL2 2102   2.357  14.029  11.069  0.0148  0.2130  0.1620
  132loPI   C1A 2103   2.084  13.835  10.668  0.1174 -0.1035  0.1091
  132loPI   C2A 2104   2.080  13.847  10.208  0.1340 -0.0928  0.1118
  132loPI   C3A 2105   2.066  13.844   9.803 -0.1604  0.0333  0.0335
  132loPI   C4A 2106   2.066  13.791   9.256  0.0872  0.1776  0.1659
  132loPI   C5A 2107   1.958  13.584   8.913  0.3783 -0.0259  0.2226
  132loPI   C6A 2108   1.949  13.077   8.877 -0.1097 -0.1317 -0.0255
  132loPI   C1B 2109   2.362  14.293  10.706 -0.0191 -0.1781  0.0393
  132loPI   C2B 2110   2.363  14.303  10.239  0.2413 -0.4106 -0.1393
  132loPI   C3B 2111   2.422  14.169   9.836 -0.2770 -0.2728 -0.1740
  132loPI   C4B 2112   2.482  14.189   9.430 -0.1391  0.3032  0.0986
  133loPI    C1 2113  15.671   4.074  11.300 -0.3610 -0.5272 -0.2740
  133loPI    C2 2114  15.755   3.722  11.470 -0.0744 -0.2583  0.1628
  133loPI    C3 2115  15.630   4.028  11.695  0.2930  0.1051 -0.1111
  133loPI   PO4 2116  15.854   4.086  11.129 -0.0262 -0.0704  0.3171
  133loPI   GL1 2117  15.974   4.172  10.785  0.0830  0.3073  0.0510
  133loPI   GL2 2118  16.083   4.348  10.597 -0.0976  0.2190  0.1433
  133loPI   C1A 2119  15.727   3.984  10.386  0.0563  0.0109 -0.1179
  133loPI   C2A 2120  15.697   3.897   9.994  0.1996  0.0940  0.0939
  133loPI   C3A 2121  15.760   3.886   9.577  0.0000  0.0946  0.1986
  133loPI   C4A 2122  15.691   3.809   9.140  0.0383 -0.1441  0.1303
  133loPI   C5A 2123  15.687   3.925   8.708  0.2735  0.3065 -0.1075
  133loPI   C6A 2124  15.987   4.125   8.392  0.0148  0.0450 -0.1141
  133loPI   C1B 2125  16.031   4.319  10.204  0.0701 -0.1864 -0.0270
  133loPI   C2B 2126  16.010   4.236   9.771 -0.2589  0.0155 -0.0789
  133loPI   C3B 2127  15.965   4.290   9.335 -0.1055  0.2589  0.0526
  133loPI   C4B 2128  16.139   4.106   8.944 -0.0581  0.0230 -0.5462
  134loPI    C1 2129  10.608   8.192  11.520  0.0550 -0.1950 -0.2588
  134loPI    C2 2130  10.285   8.039  11.700  0.1782 -0.0452  0.0988
  134loPI    C3 2131  10.645   7.879  11.766  0.2188 -0.0192 -0.0556
  134loPI   PO4 2132  10.523   8.077  11.211 -0.0523  0.2170 -0.1943
  134loPI   GL1 2133  10.535   8.142  10.815 -0.0950 -0.0189 -0.2056
  134loPI   GL2 2134  10.769   7.814  10.793  0.4934  0.0431 -0.2709
  134loPI   C1A 2135  10.563   8.172  10.410  0.2590 -0.0850 -0.3514
  134loPI   C2A 2136  10.668   8.204  10.048 -0.1528  0.1622  0.0289
  134loPI   C3A 2137  10.580   8.124   9.677  0.0597  0.1706 -0.0386
  134loPI   C4A 2138  10.552   8.151   9.195  0.2073  0.0835 -0.0481
  134loPI   C5A 2139  10.442   8.279   8.785 -0.2200  0.0524  0.0664
  134loPI   C6A 2140  10.503   8.392   8.323 -0.1949  0.0450 -0.0394
  134loPI   C1B 2141  10.770   7.735  10.267 -0.0241 -0.0984 -0.4358
  134loPI   C2B 2142  10.826   7.764   9.856  0.0146  0.2051 -0.1775
  134loPI   C3B 2143  10.827   7.734   9.540  0.0130  0.0225 -0.1928
  134loPI   C4B 2144  10.735   7.684   9.174 -0.0547  0.1201 -0.1076
  135loPI    C1 2145   8.430   6.520  11.698 -0.1417 -0.3944  0.0786
  135loPI    C2 2146   8.147   6.436  11.968  0.0123 -0.2264  0.2959
  135loPI    C3 2147   8.533   6.430  12.075  0.0705 -0.0831  0.0989
  135loPI   PO4 2148   8.181   6.591  11.388  0.4254  0.0906 -0.1206
  135loPI   GL1 2149   8.031   6.483  10.977 -0.0756 -0.1000 -0.1247
  135loPI   GL2 2150   8.271   6.173  11.058  0.3546 -0.0908 -0.0707
  135loPI   C1A 2151   7.794   6.537  10.616  0.0575 -0.3914  0.0342
  135loPI   C2A 2152   7.852   6.679  10.155 -0.0702 -0.2584  0.1130
  135loPI   C3A 2153   7.833   6.739   9.759  0.1848 -0.1238  0.1333
  135loPI   C4A 2154   7.898   6.720   9.278 -0.1190 -0.0310  0.0005
  135loPI   C5A 2155   7.836   6.773   8.878 -0.1101 -0.3039  0.2529
  135loPI   C6A 2156   7.805   7.069   8.575  0.3082  0.3536 -0.2291
  135loPI   C1B 2157   8.443   6.178  10.710  0.1706 -0.0182 -0.1077
  135loPI   C2B 2158   8.592   6.109  10.293  0.0968 -0.2145 -0.1523
  135loPI   C3B 2159   8.549   6.223   9.816 -0.0055  0.1825 -0.2660
  135loPI   C4B 2160   8.558   6.166   9.357 -0.1290 -0.0389  0.1949
  136loPI    C1 2161   8.232  15.308  11.277 -0.0627  0.0543 -0.1174
  136loPI    C2 2162   8.022  15.272  11.616  0.0204  0.1374 -0.0564
  136loPI    C3 2163   8.292  15.565  11.578  0.2204 -0.0476 -0.0837
  136loPI   PO4 2164   8.071  15.234  11.023  0.0188 -0.0029 -0.0214
  136loPI   GL1 2165   7.773  15.378  10.877  0.3027 -0.2649  0.0893
  136loPI   GL2 2166   7.950  15.652  10.745  0.0374 -0.2367  0.0922
  136loPI   C1A 2167   7.667  15.355  10.476 -0.1833 -0.0761  0.0920
  136loPI   C2A 2168   7.679  15.336  10.012  0.1239 -0.1148 -0.2121
  136loPI   C3A 2169   7.684  15.424   9.512 -0.1529 -0.0110  0.0093
  136loPI   C4A 2170   7.597  15.399   9.098 -0.0864 -0.0082  0.0057
  136loPI   C5A 2171   7.306  15.386   8.743  0.1451  0.2966  0.1885
  136loPI   C6A 2172   7.408  15.413   8.321  0.0362 -0.0657 -0.0206
  136loPI   C1B 2173   8.029  15.802  10.360  0.0457 -0.1929  0.2014
  136loPI   C2B 2174   8.007  15.798   9.930 -0.2276 -0.1334  0.2356
  136loPI   C3B 2175   8.029  15.849   9.529  0.2038  0.1014 -0.0457
  136loPI   C4B 2176   7.909  15.816   9.107  0.3511  0.3571  0.0436
  137loPI    C1 2177  10.400  15.311  11.262 -0.1277 -0.2827  0.0503
  137loPI    C2 2178  10.389  15.345  11.661  0.1658  0.0742  0.0342
  137loPI    C3 2179  10.710  15.186  11.482  0.0450 -0.0634 -0.0635
  137loPI   PO4 2180  10.127  15.192  11.219  0.1730 -0.1342  0.0342
  137loPI   GL1 2181   9.770  15.139  10.889  0.0729  0.1426  0.0466
  137loPI   GL2 2182   9.719  15.398  10.825  0.1083  0.0581 -0.2408
  137loPI   C1A 2183   9.795  15.085  10.463  0.2271 -0.0212  0.0466
  137loPI   C2A 2184   9.728  15.110   9.967  0.3851 -0.1899 -0.2259
  137loPI   C3A 2185   9.879  15.109   9.509  0.0937  0.1224 -0.0581
  137loPI   C4A 2186  10.194  15.100   9.218 -0.0018 -0.2773 -0.1780
  137loPI   C5A 2187  10.506  15.544   9.130 -0.0222  0.0244 -0.0359
  137loPI   C6A 2188  10.634  15.984   9.133 -0.0417 -0.0126 -0.0086
  137loPI   C1B 2189   9.617  15.571  10.452  0.0429 -0.1249  0.1615
  137loPI   C2B 2190   9.596  15.556  10.074  0.3199 -0.2659  0.1140
  137loPI   C3B 2191   9.569  15.552   9.633  0.1053 -0.1219  0.1196
  137loPI   C4B 2192   9.525  15.770   9.205  0.0650  0.2724 -0.4114
  138loPI    C1 2193  10.495  11.431  11.631 -0.0020  0.0049  0.2757
  138loPI    C2 2194  10.213  11.217  11.817 -0.0865  0.0954  0.2527
  138loPI    C3 2195  10.561  11.046  11.720 -0.0571  0.0362  0.4563
  138loPI   PO4 2196  10.421  11.492  11.398  0.2191 -0.0235 -0.0949
  138loPI   GL1 2197  10.238  11.330  11.019  0.1265 -0.0524  0.0048
  138loPI   GL2 2198   9.934  11.177  11.057  0.0635 -0.2193 -0.0781
  138loPI   C1A 2199  10.221  11.477  10.578 -0.2097 -0.1320  0.1425
  138loPI   C2A 2200  10.332  11.431  10.159  0.0156 -0.2596  0.0409
  138loPI   C3A 2201  10.334  11.438   9.755  0.0875 -0.0287  0.1001
  138loPI   C4A 2202  10.304  11.303   9.357  0.2719 -0.1009 -0.1585
  138loPI   C5A 2203  10.195  11.476   8.961 -0.1645  0.1759 -0.2739
  138loPI   C6A 2204   9.823  11.657   8.795 -0.2614  0.1149 -0.0532
  138loPI   C1B 2205   9.867  11.099  10.689  0.1140  0.0224  0.1278
  138loPI   C2B 2206   9.928  11.092  10.218 -0.0973  0.2624  0.1272
  138loPI   C3B 2207  10.017  11.051   9.846 -0.2027  0.0338  0.2273
  138loPI   C4B 2208   9.985  10.948   9.322 -0.0130  0.1492  0.3114
  139loPI    C1 2209  14.915   7.468  11.760 -0.0581 -0.0061  0.0391
  139loPI    C2 2210  15.074   7.220  12.030  0.1620  0.1121  0.0207
  139loPI    C3 2211  15.115   7.615  12.074 -0.0531  0.1418 -0.0325
  139loPI   PO4 2212  14.997   7.520  11.549 -0.0577  0.1681  0.2245
  139loPI   GL1 2213  15.302   7.368  11.288  0.0180 -0.1413  0.0166
  139loPI   GL2 2214  15.187   7.618  11.105  0.1033  0.1792  0.0491
  139loPI   C1A 2215  15.389   7.195  10.891 -0.0183  0.1082  0.0582
  139loPI   C2A 2216  15.396   7.148  10.465  0.1612 -0.1862 -0.0367
  139loPI   C3A 2217  15.335   7.050  10.120  0.1250 -0.0875  0.0594
  139loPI   C4A 2218  15.281   7.116   9.715  0.1154  0.1987  0.1245
  139loPI   C5A 2219  15.437   7.053   9.358  0.2469  0.0521  0.0518
  139loPI   C6A 2220  15.625   6.920   8.971  0.0235  0.3154  0.0331
  139loPI   C1B 2221  15.206   7.610  10.739  0.1574 -0.1108  0.0094
  139loPI   C2B 2222  15.184   7.549  10.262 -0.0859 -0.2197 -0.0513
  139loPI   C3B 2223  15.124   7.563   9.871 -0.2265 -0.2411 -0.2089
  139loPI   C4B 2224  15.098   7.542   9.436  0.1042 -0.0207  0.0206
  140loPI    C1 2225   1.625  17.709  11.998  0.0167  0.0803  0.1267
  140loPI    C2 2226   1.866  17.948  12.210  0.1318  0.0205  0.0646
  140loPI    C3 2227   1.850  17.557  12.291 -0.0166  0.0393  0.1311
  140loPI   PO4 2228   1.688  17.685  11.650 -0.1390  0.0711 -0.2127
  140loPI   GL1 2229   1.632  17.689  11.208  0.0628 -0.1997  0.2942
  140loPI   GL2 2230   1.523  17.993  11.071 -0.1087  0.1909  0.1297
  140loPI   C1A 2231   1.591  17.545  10.862  0.0975  0.2676 -0.2160
  140loPI   C2A 2232   1.490  17.509  10.443 -0.1004  0.2987 -0.0243
  140loPI   C3A 2233   1.614  17.515  10.011 -0.0233  0.3117 -0.1311
  140loPI   C4A 2234   1.584  17.640   9.580  0.0246 -0.2144  0.0230
  140loPI   C5A 2235   1.392  17.566   9.127 -0.1555 -0.0339  0.0140
  140loPI   C6A 2236   1.286  17.521   8.671  0.0321 -0.2354 -0.1143
  140loPI   C1B 2237   1.440  17.973  10.620 -0.1639 -0.1354 -0.2777
  140loPI   C2B 2238   1.352  17.908  10.198 -0.0856 -0.1063  0.1524
  140loPI   C3B 2239   1.372  18.051   9.821 -0.1201 -0.0585  0.2515
  140loPI   C4B 2240   1.291  17.994   9.415 -0.0112 -0.1296  0.0322
  141loPI    C1 2241   7.320  16.913  11.553 -0.0348 -0.1771  0.0667
  141loPI    C2 2242   7.196  16.664  11.840  0.0249 -0.2653  0.0166
  141loPI    C3 2243   7.352  17.019  11.937 -0.4775 -0.0517  0.0743
  141loPI   PO4 2244   7.448  16.670  11.350  0.2424 -0.0482  0.0991
  141loPI   GL1 2245   7.633  16.780  10.879  0.1733  0.3429  0.0101
  141loPI   GL2 2246   7.783  16.582  10.838  0.3180  0.3869 -0.0286
  141loPI   C1A 2247   7.544  16.717  10.456 -0.0518  0.2809 -0.2676
  141loPI   C2A 2248   7.602  16.726   9.961  0.2574 -0.1098 -0.3671
  141loPI   C3A 2249   7.578  16.753   9.577  0.2208  0.1685  0.0309
  141loPI   C4A 2250   7.586  16.768   9.164  0.1543 -0.1373 -0.0394
  141loPI   C5A 2251   7.440  16.944   8.761  0.1584 -0.0102 -0.4400
  141loPI   C6A 2252   7.415  16.774   8.398 -0.1796  0.0712 -0.0408
  141loPI   C1B 2253   7.771  16.276  10.578  0.0687 -0.2831 -0.2731
  141loPI   C2B 2254   7.819  16.240  10.234 -0.0662 -0.0049  0.3557
  141loPI   C3B 2255   7.802  16.273   9.707 -0.2038 -0.2589  0.1096
  141loPI   C4B 2256   7.783  16.342   9.186 -0.1490  0.2213  0.1506
  142loPI    C1 2257  16.103  16.736  11.463  0.1987 -0.1367  0.0610
  142loPI    C2 2258  16.346  17.006  11.294  0.1811 -0.1437  0.0241
  142loPI    C3 2259  16.209  17.064  11.666 -0.0370  0.0306 -0.0812
  142loPI   PO4 2260  15.924  16.667  11.297 -0.0430 -0.0851 -0.2235
  142loPI   GL1 2261  15.771  16.660  10.954 -0.1036  0.0857 -0.1630
  142loPI   GL2 2262  15.564  16.372  11.079  0.2874  0.0354  0.0100
  142loPI   C1A 2263  15.812  16.749  10.504  0.2558 -0.0282  0.3802
  142loPI   C2A 2264  15.836  16.693  10.106  0.1384 -0.0221  0.2056
  142loPI   C3A 2265  15.819  16.681   9.639 -0.1805  0.2295 -0.1986
  142loPI   C4A 2266  15.722  16.640   9.212  0.0242 -0.1105 -0.1634
  142loPI   C5A 2267  15.640  16.683   8.756  0.2198  0.1190  0.0323
  142loPI   C6A 2268  15.857  16.737   8.409  0.0878 -0.4953 -0.0075
  142loPI   C1B 2269  15.505  16.343  10.646  0.1613 -0.1311  0.1329
  142loPI   C2B 2270  15.526  16.268  10.257  0.0208 -0.1169  0.1389
  142loPI   C3B 2271  15.527  16.341   9.867 -0.2361  0.4722 -0.0847
  142loPI   C4B 2272  15.445  16.133   9.472 -0.3553 -0.2596  0.0069
  143loPI    C1 2273   0.487   8.160  11.745  0.1345  0.0411 -0.2943
  143loPI    C2 2274   0.635   8.284  12.095 -0.0310 -0.2394 -0.1207
  143loPI    C3 2275   0.262   8.383  11.989 -0.1118 -0.4613 -0.0476
  143loPI   PO4 2276   0.602   8.208  11.582  0.2641  0.1459 -0.0727
  143loPI   GL1 2277   0.636   8.258  11.134 -0.4461 -0.0055  0.0173
  143loPI   GL2 2278   0.697   8.556  11.218 -0.1640 -0.1775  0.2565
  143loPI   C1A 2279   0.534   8.107  10.782 -0.3971 -0.0838 -0.1106
  143loPI   C2A 2280   0.572   8.136  10.399 -0.0915 -0.0785  0.3683
  143loPI   C3A 2281   0.566   8.112   9.904  0.0342 -0.1710 -0.0567
  143loPI   C4A 2282   0.612   8.209   9.428  0.0595  0.0505 -0.1340
  143loPI   C5A 2283   0.624   8.174   8.959 -0.0266  0.0815 -0.1266
  143loPI   C6A 2284   0.764   8.350   8.487 -0.1814  0.0652 -0.5353
  143loPI   C1B 2285   0.831   8.501  10.780  0.0575 -0.4552  0.0088
  143loPI   C2B 2286   0.928   8.560  10.256 -0.1085 -0.3910 -0.0229
  143loPI   C3B 2287   0.922   8.611   9.787 -0.0245  0.1630 -0.1158
  143loPI   C4B 2288   0.997   8.621   9.268  0.0920 -0.0614 -0.1456
  144loPI    C1 2289  11.613   5.223  11.742  0.0047  0.1300  0.0584
  144loPI    C2 2290  11.877   5.325  12.024  0.0054 -0.1587  0.1655
  144loPI    C3 2291  11.883   4.957  11.868 -0.0008 -0.0050 -0.2078
  144loPI   PO4 2292  11.608   5.375  11.600  0.2003  0.1690  0.1668
  144loPI   GL1 2293  11.628   5.409  11.137  0.1444  0.2735 -0.0290
  144loPI   GL2 2294  11.322   5.155  10.983 -0.2824  0.0708 -0.2245
  144loPI   C1A 2295  11.776   5.378  10.760  0.1055  0.1333 -0.0765
  144loPI   C2A 2296  11.792   5.336  10.368 -0.0257  0.0715 -0.0648
  144loPI   C3A 2297  11.786   5.409  10.050  0.0554 -0.0768 -0.3127
  144loPI   C4A 2298  11.718   5.309   9.714 -0.2896 -0.0750  0.1098
  144loPI   C5A 2299  11.769   5.359   9.241 -0.3378  0.2039  0.0305
  144loPI   C6A 2300  11.714   5.558   8.865  0.1774  0.1277  0.0433
  144loPI   C1B 2301  11.475   5.004  10.559  0.0309  0.1100  0.0152
  144loPI   C2B 2302  11.544   4.910  10.151 -0.0494 -0.3920 -0.2419
  144loPI   C3B 2303  11.538   4.869   9.712 -0.0037 -0.1474  0.4483
  144loPI   C4B 2304  11.456   4.931   9.307 -0.1354 -0.0089  0.1783
  145loPI    C1 2305  15.028  10.487  11.506  0.4434  0.2464 -0.1225
  145loPI    C2 2306  14.764  10.755  11.642  0.2649 -0.0119  0.0492
  145loPI    C3 2307  15.049  10.614  11.884  0.2160 -0.1480  0.0289
  145loPI   PO4 2308  15.148  10.621  11.301 -0.2153  0.3218  0.2461
  145loPI   GL1 2309  15.203  10.724  10.868  0.2706  0.3383  0.1502
  145loPI   GL2 2310  15.026  10.410  10.864  0.1490  0.1086 -0.1738
  145loPI   C1A 2311  15.298  10.838  10.566 -0.2988 -0.2198  0.0309
  145loPI   C2A 2312  15.370  10.823  10.172 -0.2841  0.4745  0.1799
  145loPI   C3A 2313  15.369  10.738   9.735  0.1479 -0.3171 -0.1637
  145loPI   C4A 2314  15.309  10.742   9.345 -0.0227 -0.1021  0.2579
  145loPI   C5A 2315  15.205  10.664   8.849  0.0389  0.0554  0.1680
  145loPI   C6A 2316  15.336  10.608   8.430  0.1329  0.0584  0.4590
  145loPI   C1B 2317  15.098  10.352  10.473  0.0227 -0.0237  0.0554
  145loPI   C2B 2318  15.020  10.262   9.975 -0.0020 -0.0940 -0.0032
  145loPI   C3B 2319  15.009  10.327   9.627  0.2140  0.0669 -0.3377
  145loPI   C4B 2320  15.043  10.295   9.124 -0.2189 -0.0404 -0.2357
  146loPI    C1 2321  10.530   9.925  11.790 -0.1226 -0.0171 -0.0991
  146loPI    C2 2322  10.865  10.040  11.976 -0.0957  0.0865 -0.2105
  146loPI    C3 2323  10.517  10.221  12.059 -0.1132  0.0214 -0.1410
  146loPI   PO4 2324  10.571   9.909  11.618 -0.1411 -0.3166 -0.1605
  146loPI   GL1 2325  10.548   9.910  11.096 -0.3362 -0.0911 -0.2093
  146loPI   GL2 2326  10.658  10.212  10.919  0.4018  0.0867 -0.0661
  146loPI   C1A 2327  10.362   9.977  10.611  0.0398  0.1685  0.1554
  146loPI   C2A 2328  10.293  10.051  10.219 -0.1615 -0.0909  0.7055
  146loPI   C3A 2329  10.384  10.016   9.867  0.1761 -0.1374  0.1568
  146loPI   C4A 2330  10.347  10.017   9.447 -0.1273 -0.2501  0.0752
  146loPI   C5A 2331  10.361  10.046   9.036 -0.1001  0.0529  0.0980
  146loPI   C6A 2332  10.332   9.728   8.698  0.0663 -0.3029 -0.0973
  146loPI   C1B 2333  10.624  10.417  10.500 -0.1821  0.3565 -0.1504
  146loPI   C2B 2334  10.629  10.445  10.080  0.1410 -0.1099  0.1740
  146loPI   C3B 2335  10.714  10.356   9.603 -0.2459 -0.1095  0.0594
  146loPI   C4B 2336  10.730  10.401   9.197  0.0199 -0.2310  0.1857
  147loPI    C1 2337  10.064   0.186  11.689 -0.1729 -0.1331 -0.0196
  147loPI    C2 2338  10.144   0.312  12.060  0.0980 -0.0404 -0.1068
  147loPI    C3 2339   9.836   0.467  11.857  0.1198  0.1125 -0.0243
  147loPI   PO4 2340  10.257   0.138  11.602 -0.0487 -0.1455  0.1230
  147loPI   GL1 2341  10.506   0.092  11.216 -0.1716  0.0367  0.1280
  147loPI   GL2 2342  10.350   0.364  11.133  0.0619  0.1727 -0.0712
  147loPI   C1A 2343  10.528   0.018  10.801  0.2662  0.1765 -0.2930
  147loPI   C2A 2344  10.454   0.073  10.369  0.4099 -0.1472 -0.0456
  147loPI   C3A 2345  10.544   0.072   9.924  0.2086 -0.0489  0.0913
  147loPI   C4A 2346  10.538   0.054   9.525 -0.0290 -0.2526  0.0259
  147loPI   C5A 2347  10.526   0.272   9.049  0.1477 -0.2089 -0.1935
  147loPI   C6A 2348  10.708   0.652   8.786 -0.0977 -0.0026  0.1782
  147loPI   C1B 2349  10.437   0.504  10.731 -0.0615  0.0610  0.0198
  147loPI   C2B 2350  10.339   0.543  10.274 -0.1897  0.3985 -0.3753
  147loPI   C3B 2351  10.308   0.571   9.840  0.2067  0.1797 -0.1288
  147loPI   C4B 2352  10.320   0.579   9.398 -0.0474 -0.0117  0.0187
  148loPI    C1 2353   7.722  13.387  11.859  0.2618 -0.1151 -0.0691
  148loPI    C2 2354   7.730  13.661  12.151  0.2786 -0.0198 -0.1588
  148loPI    C3 2355   7.712  13.272  12.242  0.0952  0.0175 -0.0324
  148loPI   PO4 2356   7.960  13.586  11.649 -0.0376  0.2934 -0.0259
  148loPI   GL1 2357   7.918  13.684  11.185 -0.0756 -0.0022 -0.1411
  148loPI   GL2 2358   7.804  13.997  11.081 -0.0001 -0.1503 -0.1427
  148loPI   C1A 2359   7.975  13.514  10.767 -0.0044 -0.1833 -0.0119
  148loPI   C2A 2360   7.988  13.482  10.286 -0.0890 -0.1632  0.1277
  148loPI   C3A 2361   7.904  13.504   9.873 -0.2566  0.0150 -0.0870
  148loPI   C4A 2362   8.034  13.497   9.468 -0.1548  0.3207  0.0571
  148loPI   C5A 2363   7.884  13.444   9.073  0.0585 -0.0578 -0.1081
  148loPI   C6A 2364   7.548  13.541   8.885 -0.0372  0.1641  0.1217
  148loPI   C1B 2365   7.808  13.999  10.638 -0.0487 -0.0585 -0.0902
  148loPI   C2B 2366   7.755  13.989  10.264  0.1106  0.1771  0.1946
  148loPI   C3B 2367   7.758  14.006   9.847  0.0507 -0.2307  0.0851
  148loPI   C4B 2368   7.811  13.995   9.400  0.2305  0.1737  0.3162
  149loPI    C1 2369   6.485  15.234  11.590 -0.3714  0.1268  0.3896
  149loPI    C2 2370   6.637  14.871  11.518  0.0087  0.3595 -0.0423
  149loPI    C3 2371   6.458  14.948  11.867  0.0303 -0.2029  0.1022
  149loPI   PO4 2372   6.360  15.306  11.328 -0.0260 -0.0291  0.0014
  149loPI   GL1 2373   6.349  15.482  10.953 -0.1609  0.1305  0.0344
  149loPI   GL2 2374   6.699  15.492  10.824 -0.1122 -0.1942 -0.2915
  149loPI   C1A 2375   6.202  15.584  10.609  0.2227 -0.0085  0.2203
  149loPI   C2A 2376   6.161  15.571  10.200  0.1139  0.4529  0.0768
  149loPI   C3A 2377   6.076  15.578   9.754 -0.7707  0.1041  0.0251
  149loPI   C4A 2378   6.201  15.558   9.352  0.1280 -0.2413  0.1795
  149loPI   C5A 2379   6.315  15.554   9.033 -0.1140  0.0835  0.2355
  149loPI   C6A 2380   6.384  15.570   8.629  0.1914  0.3009  0.2868
  149loPI   C1B 2381   6.714  15.430  10.397  0.2270 -0.0576  0.1706
  149loPI   C2B 2382   6.618  15.463   9.959  0.1018 -0.2055  0.1768
  149loPI   C3B 2383   6.706  15.448   9.420  0.3646 -0.0536  0.0231
  149loPI   C4B 2384   6.839  15.558   8.939  0.2109 -0.0228  0.1950
  150loPI    C1 2385   4.510  16.557  11.791 -0.2273  0.0001 -0.2475
  150loPI    C2 2386   4.328  16.890  11.917 -0.1954 -0.0506 -0.0643
  150loPI    C3 2387   4.469  16.626  12.183  0.2026  0.0169 -0.2009
  150loPI   PO4 2388   4.529  16.553  11.492 -0.3114 -0.2375  0.0191
  150loPI   GL1 2389   4.533  16.615  11.041  0.2342  0.2758  0.0461
  150loPI   GL2 2390   4.146  16.626  11.002 -0.1745 -0.0315 -0.1007
  150loPI   C1A 2391   4.726  16.542  10.650  0.0755 -0.1092  0.0300
  150loPI   C2A 2392   4.768  16.669  10.158 -0.3092 -0.4687  0.3244
  150loPI   C3A 2393   4.737  16.672   9.678  0.0227 -0.0359  0.2918
  150loPI   C4A 2394   4.760  16.784   9.245  0.2615 -0.1938 -0.2239
  150loPI   C5A 2395   4.504  16.910   8.877  0.0632  0.2469 -0.1484
  150loPI   C6A 2396   4.372  17.224   8.664 -0.1670 -0.1124 -0.0619
  150loPI   C1B 2397   4.267  16.692  10.631  0.0232  0.0771  0.0834
  150loPI   C2B 2398   4.246  16.733  10.255  0.0673  0.0752 -0.1044
  150loPI   C3B 2399   4.218  16.605   9.807  0.3880 -0.0573  0.0856
  150loPI   C4B 2400   4.309  16.772   9.426  0.0289 -0.0300 -0.1519
  151loPI    C1 2401  13.154  15.489  11.449  0.0748  0.1178  0.0313
  151loPI    C2 2402  13.382  15.394  11.764 -0.0708 -0.0465  0.0890
  151loPI    C3 2403  13.042  15.195  11.696 -0.0516  0.0022 -0.1609
  151loPI   PO4 2404  13.346  15.530  11.265  0.0588  0.0475 -0.1720
  151loPI   GL1 2405  13.325  15.756  10.893  0.1371 -0.1136  0.1300
  151loPI   GL2 2406  13.658  15.768  11.017  0.2105  0.0028  0.2138
  151loPI   C1A 2407  13.306  15.655  10.541 -0.0511 -0.3185 -0.0820
  151loPI   C2A 2408  13.316  15.591  10.075 -0.2505 -0.1488 -0.2133
  151loPI   C3A 2409  13.391  15.527   9.621  0.0446 -0.2310  0.1219
  151loPI   C4A 2410  13.359  15.528   9.200  0.2208  0.1832  0.2301
  151loPI   C5A 2411  13.393  15.249   8.806 -0.0165 -0.1557  0.3035
  151loPI   C6A 2412  13.301  14.844   8.649 -0.1953  0.0331  0.0734
  151loPI   C1B 2413  13.810  15.591  10.585  0.0140 -0.0678 -0.1082
  151loPI   C2B 2414  13.863  15.599  10.100  0.0201  0.1607  0.1873
  151loPI   C3B 2415  13.880  15.535   9.672  0.0296  0.0919  0.0252
  151loPI   C4B 2416  13.909  15.423   9.321 -0.0109 -0.1105 -0.1786
  152loPI    C1 2417   2.762   3.463  11.763  0.4947  0.1957 -0.1946
  152loPI    C2 2418   2.997   3.176  11.913 -0.0446 -0.0756  0.1640
  152loPI    C3 2419   2.908   3.497  12.134  0.4589  0.3263 -0.1920
  152loPI   PO4 2420   2.829   3.479  11.530  0.2161  0.0840  0.2490
  152loPI   GL1 2421   2.711   3.460  11.165 -0.1102 -0.2184  0.1174
  152loPI   GL2 2422   2.461   3.317  11.056 -0.3883  0.0177  0.1486
  152loPI   C1A 2423   2.867   3.724  10.788 -0.1666 -0.3033  0.0839
  152loPI   C2A 2424   2.787   3.821  10.378  0.2517  0.1874  0.0373
  152loPI   C3A 2425   2.709   3.832   9.943 -0.0984  0.2120 -0.0653
  152loPI   C4A 2426   2.736   3.748   9.528 -0.0141  0.0435  0.1589
  152loPI   C5A 2427   2.855   3.709   9.042  0.0653 -0.0815  0.0530
  152loPI   C6A 2428   3.059   3.876   8.631  0.1792  0.0803 -0.2072
  152loPI   C1B 2429   2.491   3.343  10.585 -0.1825  0.0810  0.0593
  152loPI   C2B 2430   2.460   3.478  10.162  0.0113 -0.2130  0.1074
  152loPI   C3B 2431   2.472   3.367   9.689  0.0635  0.0944  0.0209
  152loPI   C4B 2432   2.455   3.404   9.255  0.0901 -0.0899 -0.2599
  153loPI    C1 2433   0.783   4.450  11.502  0.2093 -0.1070  0.1902
  153loPI    C2 2434   0.690   4.204  11.804 -0.1373 -0.1189  0.0781
  153loPI    C3 2435   0.513   4.562  11.775  0.2045  0.0577  0.1190
  153loPI   PO4 2436   0.785   4.333  11.320  0.0742  0.1734 -0.2897
  153loPI   GL1 2437   0.597   4.229  10.920  0.0163 -0.0880 -0.1990
  153loPI   GL2 2438   0.678   4.631  10.926  0.0531 -0.1821  0.2175
  153loPI   C1A 2439   0.780   4.136  10.498  0.2342  0.2768  0.0557
  153loPI   C2A 2440   0.831   4.017  10.009 -0.0878  0.0899 -0.1572
  153loPI   C3A 2441   0.746   3.937   9.591 -0.1116  0.0823 -0.4650
  153loPI   C4A 2442   0.713   3.950   9.186 -0.0601 -0.0784  0.0375
  153loPI   C5A 2443   0.777   4.226   8.821  0.3055 -0.1881  0.0106
  153loPI   C6A 2444   0.971   4.409   8.460  0.1515  0.5367  0.1261
  153loPI   C1B 2445   0.520   4.569  10.536 -0.3412 -0.2703  0.1173
  153loPI   C2B 2446   0.600   4.490  10.065 -0.0979  0.0642  0.0926
  153loPI   C3B 2447   0.572   4.558   9.663 -0.2836 -0.0109  0.0689
  153loPI   C4B 2448   0.581   4.461   9.374 -0.1453  0.2024  0.1848
  154loPI    C1 2449   1.627  15.786  11.618 -0.0610 -0.1305 -0.0286
  154loPI    C2 2450   1.783  15.680  11.971 -0.0560  0.1267  0.0486
  154loPI    C3 2451   1.934  15.992  11.771  0.0340 -0.1035 -0.2509
  154loPI   PO4 2452   1.636  15.609  11.415 -0.2097  0.0016  0.0107
  154loPI   GL1 2453   1.390  15.823  11.134 -0.1686  0.0079 -0.0826
  154loPI   GL2 2454   1.749  15.709  10.917 -0.2136  0.2003  0.0064
  154loPI   C1A 2455   1.198  15.830  10.764  0.3672  0.0526  0.3248
  154loPI   C2A 2456   1.216  15.757  10.287  0.0853  0.1475  0.0063
  154loPI   C3A 2457   1.217  15.833   9.822 -0.0684 -0.0138  0.0567
  154loPI   C4A 2458   1.289  15.731   9.426  0.2414 -0.1489  0.1845
  154loPI   C5A 2459   1.321  15.726   9.024 -0.0266 -0.0748 -0.1832
  154loPI   C6A 2460   1.089  15.730   8.652  0.1202  0.2190 -0.0801
  154loPI   C1B 2461   1.788  15.736  10.459 -0.1147  0.1192  0.0253
  154loPI   C2B 2462   1.682  15.709  10.040  0.1569 -0.1716  0.1193
  154loPI   C3B 2463   1.790  15.748   9.595  0.2708 -0.1547  0.0287
  154loPI   C4B 2464   1.854  15.758   9.220 -0.1467 -0.0815  0.0747
  155loPI    C1 2465   8.481   9.264  11.451 -0.0496  0.0178  0.1820
  155loPI    C2 2466   8.260   8.942  11.539  0.0392 -0.0796  0.0526
  155loPI    C3 2467   8.537   9.072  11.797  0.0637 -0.1596  0.0666
  155loPI   PO4 2468   8.470   9.218  11.188 -0.0170 -0.0487  0.1862
  155loPI   GL1 2469   8.270   9.359  10.914 -0.1613 -0.0589  0.0399
  155loPI   GL2 2470   8.391   9.658  10.728  0.1787 -0.5305  0.1738
  155loPI   C1A 2471   8.160   9.338  10.397 -0.0236  0.1802 -0.2502
  155loPI   C2A 2472   8.116   9.380   9.909  0.0640 -0.2955 -0.1295
  155loPI   C3A 2473   8.215   9.333   9.455 -0.0334  0.3307  0.0658
  155loPI   C4A 2474   8.183   9.402   9.029  0.0640 -0.1182  0.0234
  155loPI   C5A 2475   8.339   9.137   8.767  0.0887  0.1460 -0.0519
  155loPI   C6A 2476   8.281   8.822   8.375 -0.2301  0.0649 -0.0448
  155loPI   C1B 2477   8.459   9.831  10.339  0.2851  0.1236 -0.1792
  155loPI   C2B 2478   8.504   9.809   9.906 -0.2180  0.3602 -0.0383
  155loPI   C3B 2479   8.478   9.818   9.473 -0.0024  0.2871 -0.0740
  155loPI   C4B 2480   8.515   9.840   8.964  0.0269 -0.1107 -0.1133
  156loPI    C1 2481  17.062  17.733  11.497  0.0530 -0.0171 -0.2162
  156loPI    C2 2482  17.253  17.876  11.819 -0.0340  0.1060 -0.2183
  156loPI    C3 2483  17.103  17.505  11.823  0.3051 -0.0357 -0.2590
  156loPI   PO4 2484  16.830  17.897  11.452  0.1639 -0.2706 -0.2103
  156loPI   GL1 2485  16.802  17.925  11.022 -0.0298 -0.0233  0.2604
  156loPI   GL2 2486  17.076  17.906  11.023 -0.1980  0.0987  0.3685
  156loPI   C1A 2487  16.750  17.930  10.614  0.2522 -0.1262  0.2582
  156loPI   C2A 2488  16.747  17.899  10.227  0.0764 -0.2169  0.0140
  156loPI   C3A 2489  16.708  17.865   9.740  0.3349  0.2458 -0.0999
  156loPI   C4A 2490  16.689  17.845   9.293  0.1502  0.1326 -0.0840
  156loPI   C5A 2491  16.652  17.834   8.846 -0.1463  0.0444  0.3212
  156loPI   C6A 2492  16.531  17.754   8.388  0.0892 -0.0900 -0.0820
  156loPI   C1B 2493  17.228  17.873  10.751  0.0227 -0.0337  0.0312
  156loPI   C2B 2494  17.256  17.826  10.366  0.2394  0.3218  0.1162
  156loPI   C3B 2495  17.231  17.862   9.944  0.2519  0.3158 -0.3376
  156loPI   C4B 2496  17.193  17.802   9.552  0.2022 -0.3032  0.3803
  157loPI    C1 2497  14.805   2.303  11.707  0.1038 -0.1630  0.0112
  157loPI    C2 2498  15.112   2.139  11.904  0.0628 -0.2426  0.0093
  157loPI    C3 2499  14.739   2.022  11.984  0.0418 -0.2350 -0.0762
  157loPI   PO4 2500  14.970   2.331  11.490  0.0645 -0.0423 -0.0117
  157loPI   GL1 2501  14.982   2.089  11.088 -0.4049  0.0549  0.3330
  157loPI   GL2 2502  14.918   1.851  10.932  0.1499  0.2122 -0.2171
  157loPI   C1A 2503  15.025   2.252  10.673 -0.1301 -0.0058 -0.0169
  157loPI   C2A 2504  14.991   2.258  10.285 -0.0992  0.0299 -0.0347
  157loPI   C3A 2505  14.970   2.155   9.868 -0.2672  0.3123 -0.1595
  157loPI   C4A 2506  14.977   2.081   9.430  0.0915  0.2123  0.3281
  157loPI   C5A 2507  14.910   2.107   9.017 -0.0864 -0.0842  0.0418
  157loPI   C6A 2508  14.576   2.319   8.727 -0.0277 -0.2486  0.1002
  157loPI   C1B 2509  14.695   1.815  10.633 -0.0928  0.0612 -0.1442
  157loPI   C2B 2510  14.687   1.852  10.288  0.0437 -0.0386  0.4141
  157loPI   C3B 2511  14.534   1.742   9.857 -0.1601  0.2288  0.0731
  157loPI   C4B 2512  14.646   1.704   9.407  0.4135 -0.0333  0.0735
  158loPI    C1 2513  16.611   0.633  11.439  0.0720 -0.1656 -0.1993
  158loPI    C2 2514  16.875   0.558  11.730 -0.0765 -0.0131 -0.0227
  158loPI    C3 2515  16.484   0.506  11.796 -0.1034 -0.0870 -0.2330
  158loPI   PO4 2516  16.711   0.664  11.271  0.1453 -0.1492  0.0715
  158loPI   GL1 2517  16.789   0.663  10.900  0.0362 -0.1971  0.1877
  158loPI   GL2 2518  17.113   0.638  10.836  0.0094 -0.0152 -0.3377
  158loPI   C1A 2519  16.619   0.671  10.570  0.1557  0.0704  0.1278
  158loPI   C2A 2520  16.570   0.638  10.170  0.1391 -0.2825  0.0434
  158loPI   C3A 2521  16.532   0.574   9.737 -0.0461  0.2735  0.1144
  158loPI   C4A 2522  16.458   0.595   9.232  0.0632  0.0605 -0.3644
  158loPI   C5A 2523  16.275   0.787   8.921  0.3699 -0.0579 -0.0428
  158loPI   C6A 2524  16.107   0.815   8.503  0.1075  0.0095 -0.5753
  158loPI   C1B 2525  17.080   0.569  10.355  0.0135 -0.2501  0.0449
  158loPI   C2B 2526  17.032   0.560   9.910 -0.0694 -0.2297  0.2037
  158loPI   C3B 2527  16.987   0.516   9.492 -0.0676 -0.0410 -0.0015
  158loPI   C4B 2528  16.999   0.519   9.010  0.1490 -0.0994 -0.1140
  159loPI    C1 2529   6.801  12.454  11.585  0.1396  0.2960  0.0115
  159loPI    C2 2530   7.143  12.473  11.792  0.0122  0.1129  0.2448
  159loPI    C3 2531   6.811  12.643  11.938 -0.0572  0.0649  0.1441
  159loPI   PO4 2532   6.873  12.544  11.325  0.1720 -0.4088 -0.1831
  159loPI   GL1 2533   6.916  12.305  10.952 -0.1081 -0.0203  0.1545
  159loPI   GL2 2534   7.052  12.116  10.879  0.2390  0.0805 -0.2088
  159loPI   C1A 2535   6.571  12.341  10.679  0.0677 -0.2942  0.1188
  159loPI   C2A 2536   6.530  12.329  10.333 -0.0397  0.2890  0.1479
  159loPI   C3A 2537   6.538  12.350   9.842 -0.2941  0.0021 -0.0810
  159loPI   C4A 2538   6.475  12.338   9.382  0.0039 -0.3025  0.2529
  159loPI   C5A 2539   6.605  12.222   8.909  0.1007  0.4097 -0.2303
  159loPI   C6A 2540   6.429  12.281   8.521 -0.0790  0.2971 -0.0845
  159loPI   C1B 2541   7.077  12.232  10.456  0.2825  0.2169 -0.0210
  159loPI   C2B 2542   6.993  12.271  10.034  0.0692  0.0067 -0.1317
  159loPI   C3B 2543   6.993  12.283   9.602 -0.1398  0.0061  0.0108
  159loPI   C4B 2544   7.050  12.294   9.171  0.1321 -0.0341 -0.2373
  160loPI    C1 2545   5.418   6.873  11.366 -0.1281  0.1170 -0.0910
  160loPI    C2 2546   5.652   7.010  11.660 -0.0262  0.0680 -0.1484
  160loPI    C3 2547   5.331   6.787  11.747 -0.1145  0.2267 -0.0630
  160loPI   PO4 2548   5.268   6.978  11.197  0.1249  0.1338  0.1666
  160loPI   GL1 2549   5.327   7.143  10.838  0.0502 -0.1102 -0.0701
  160loPI   GL2 2550   5.661   7.000  10.895 -0.1513 -0.1356  0.2374
  160loPI   C1A 2551   5.303   7.071  10.384 -0.2997  0.0189 -0.2489
  160loPI   C2A 2552   5.319   6.957   9.945 -0.0029 -0.1439  0.0632
  160loPI   C3A 2553   5.250   7.010   9.466  0.2456 -0.2382  0.2149
  160loPI   C4A 2554   5.331   6.947   9.009  0.2948 -0.0460  0.1570
  160loPI   C5A 2555   5.253   6.827   8.533  0.2953  0.3244  0.2969
  160loPI   C6A 2556   5.110   6.543   8.240 -0.1709  0.1085 -0.0466
  160loPI   C1B 2557   5.760   6.949  10.451 -0.2486  0.3691 -0.0754
  160loPI   C2B 2558   5.824   6.934  10.007 -0.3024  0.2334 -0.2469
  160loPI   C3B 2559   5.772   7.019   9.606  0.1232 -0.1223  0.0946
  160loPI   C4B 2560   5.758   6.996   9.276  0.3220 -0.1347 -0.1337
  161loPI    C1 2561   0.216   4.970  11.620 -0.0318  0.0772  0.0977
  161loPI    C2 2562  -0.100   5.059  11.848 -0.0772 -0.0851  0.0999
  161loPI    C3 2563   0.255   5.229  11.922 -0.1267 -0.0226  0.1963
  161loPI   PO4 2564   0.110   4.987  11.397 -0.1919  0.0941 -0.1162
  161loPI   GL1 2565   0.081   5.248  11.018 -0.0980  0.0041  0.2153
  161loPI   GL2 2566   0.333   5.030  10.939  0.3227 -0.2827  0.0873
  161loPI   C1A 2567   0.138   5.488  10.713  0.0311  0.1581 -0.2085
  161loPI   C2A 2568   0.160   5.537  10.354 -0.0920  0.1435 -0.1691
  161loPI   C3A 2569   0.174   5.417   9.904 -0.0061 -0.1428  0.0466
  161loPI   C4A 2570   0.195   5.509   9.445 -0.0484  0.2580  0.2193
  161loPI   C5A 2571   0.205   5.426   9.037 -0.1602 -0.1956  0.2774
  161loPI   C6A 2572   0.082   5.444   8.574  0.1552 -0.0312 -0.0005
  161loPI   C1B 2573   0.338   5.057  10.504  0.3062 -0.1913 -0.3085
  161loPI   C2B 2574   0.384   5.017  10.095 -0.1065  0.0823  0.1151
  161loPI   C3B 2575   0.351   5.005   9.701 -0.2410  0.1073 -0.3341
  161loPI   C4B 2576   0.431   5.058   9.295  0.0105 -0.0336  0.2241
  162loPI    C1 2577   5.675   0.263  11.521 -0.1832  0.4780  0.0445
  162loPI    C2 2578   5.335   0.139  11.349 -0.0127 -0.0361  0.0588
  162loPI    C3 2579   5.440  -0.002  11.709  0.2198  0.1140  0.0524
  162loPI   PO4 2580   5.806   0.229  11.406 -0.6983 -0.2873  0.2366
  162loPI   GL1 2581   5.720   0.221  10.912  0.0673  0.1825 -0.3957
  162loPI   GL2 2582   5.517   0.435  11.030  0.0351  0.1423  0.5226
  162loPI   C1A 2583   5.688   0.153  10.544 -0.0453 -0.0443  0.3959
  162loPI   C2A 2584   5.750   0.206  10.116  0.0418  0.0913  0.2389
  162loPI   C3A 2585   5.707   0.204   9.600  0.2673  0.2398 -0.3643
  162loPI   C4A 2586   5.786   0.253   9.226 -0.1321 -0.1414  0.0957
  162loPI   C5A 2587   6.064   0.175   8.905  0.0198 -0.1895  0.0796
  162loPI   C6A 2588   5.957  -0.031   8.473 -0.3693  0.1526  0.0905
  162loPI   C1B 2589   5.608   0.646  10.653 -0.2011  0.0212 -0.1071
  162loPI   C2B 2590   5.477   0.652  10.224  0.1731  0.0772  0.1426
  162loPI   C3B 2591   5.517   0.657   9.808  0.2936  0.0336 -0.1986
  162loPI   C4B 2592   5.574   0.658   9.311 -0.1423 -0.0707 -0.1047
  163loPI    C1 2593  16.171  10.188  11.412 -0.2554 -0.1347  0.1601
  163loPI    C2 2594  15.983  10.392  11.700 -0.2108 -0.1191  0.1782
  163loPI    C3 2595  15.999   9.992  11.716 -0.1019 -0.1118  0.2629
  163loPI   PO4 2596  16.013  10.236  11.182  0.1043 -0.2443  0.1155
  163loPI   GL1 2597  16.006  10.363  10.794  0.0818 -0.0575 -0.2098
  163loPI   GL2 2598  16.212  10.708  10.778  0.1848 -0.0676 -0.1323
  163loPI   C1A 2599  15.998  10.249  10.376 -0.2350 -0.2656 -0.1401
  163loPI   C2A 2600  15.926  10.202   9.910 -0.0052  0.0124  0.1056
  163loPI   C3A 2601  16.024  10.226   9.454  0.1005 -0.0301  0.0509
  163loPI   C4A 2602  15.993  10.188   8.951 -0.0339 -0.2559 -0.0580
  163loPI   C5A 2603  16.103  10.386   8.589  0.0560  0.0034  0.2077
  163loPI   C6A 2604  15.979  10.615   8.129 -0.2007  0.0876  0.1900
  163loPI   C1B 2605  16.317  10.654  10.436  0.0562  0.0933  0.5576
  163loPI   C2B 2606  16.327  10.575  10.016  0.2827 -0.2409 -0.2738
  163loPI   C3B 2607  16.341  10.594   9.594  0.1840  0.2692 -0.2040
  163loPI   C4B 2608  16.222  10.561   9.155 -0.2276 -0.0743 -0.0822
  164loPI    C1 2609   6.938   0.700  11.708  0.0121  0.0291 -0.2089
  164loPI    C2 2610   6.565   0.685  11.851  0.0741 -0.0001 -0.0470
  164loPI    C3 2611   6.830   0.405  11.957  0.1768  0.0914 -0.0612
  164loPI   PO4 2612   6.890   0.726  11.445 -0.1327  0.4143  0.1483
  164loPI   GL1 2613   6.676   0.527  11.022  0.3649 -0.0758  0.0460
  164loPI   GL2 2614   7.002   0.471  11.012 -0.2104 -0.0235  0.0508
  164loPI   C1A 2615   6.553   0.537  10.635 -0.0958  0.1540  0.3122
  164loPI   C2A 2616   6.451   0.498  10.155 -0.0269  0.3621  0.1202
  164loPI   C3A 2617   6.548   0.534   9.783  0.2198  0.1570 -0.2278
  164loPI   C4A 2618   6.547   0.477   9.446 -0.2131 -0.1629 -0.2135
  164loPI   C5A 2619   6.470   0.453   9.113  0.0348  0.2576  0.2286
  164loPI   C6A 2620   6.506   0.631   8.730 -0.0056 -0.1148  0.0667
  164loPI   C1B 2621   7.063   0.398  10.533  0.1328 -0.2515  0.3205
  164loPI   C2B 2622   6.986   0.378  10.086 -0.0419 -0.0586 -0.1238
  164loPI   C3B 2623   7.018   0.461   9.663  0.1626 -0.4597  0.0044
  164loPI   C4B 2624   6.999   0.493   9.182 -0.2534  0.1192  0.2400
  165loPI    C1 2625  14.088  11.242  11.504  0.0108  0.0621  0.0033
  165loPI    C2 2626  14.139  10.954  11.776  0.0198 -0.0697 -0.1367
  165loPI    C3 2627  14.296  11.317  11.837  0.1436 -0.1399 -0.0327
  165loPI   PO4 2628  14.188  11.093  11.310  0.0830 -0.1766  0.2849
  165loPI   GL1 2629  14.484  11.238  10.995 -0.4048  0.1913  0.1011
  165loPI   GL2 2630  14.267  10.899  10.852 -0.0109  0.0779 -0.1921
  165loPI   C1A 2631  14.483  11.314  10.610  0.2675  0.1041 -0.2876
  165loPI   C2A 2632  14.673  11.375  10.172  0.1433  0.1781 -0.1142
  165loPI   C3A 2633  14.628  11.328   9.774  0.1145  0.1059  0.1208
  165loPI   C4A 2634  14.666  11.246   9.325  0.0051  0.2441 -0.1213
  165loPI   C5A 2635  14.668  11.185   8.901 -0.1057  0.1542 -0.2322
  165loPI   C6A 2636  14.767  11.434   8.553  0.0788 -0.1142 -0.2561
  165loPI   C1B 2637  14.302  10.812  10.433 -0.0499 -0.1247 -0.2527
  165loPI   C2B 2638  14.307  10.900   9.991 -0.1067 -0.0138  0.1734
  165loPI   C3B 2639  14.349  10.943   9.570 -0.2177  0.0346 -0.0092
  165loPI   C4B 2640  14.240  11.001   9.089 -0.2682  0.0345  0.0077
  166loPI    C1 2641  10.551  14.754  11.290  0.1002 -0.1323 -0.0910
  166loPI    C2 2642  10.265  14.874  11.543  0.0343 -0.2778 -0.0956
  166loPI    C3 2643  10.612  14.736  11.685  0.1205 -0.0587 -0.0907
  166loPI   PO4 2644  10.553  14.907  11.009  0.0267  0.0115  0.4366
  166loPI   GL1 2645  10.397  14.782  10.641  0.4099  0.0051  0.0834
  166loPI   GL2 2646  10.103  14.562  10.568  0.1655  0.0840  0.3488
  166loPI   C1A 2647  10.267  14.986  10.243  0.1599 -0.3281 -0.0438
  166loPI   C2A 2648  10.260  15.040   9.905  0.1718 -0.0121 -0.3215
  166loPI   C3A 2649  10.494  14.806   9.501  0.2133 -0.1822 -0.2324
  166loPI   C4A 2650  10.436  14.481   9.320  0.0829 -0.1575 -0.2358
  166loPI   C5A 2651  10.439  14.218   8.964 -0.2894  0.1850  0.0090
  166loPI   C6A 2652  10.709  14.162   8.610 -0.1399 -0.1286 -0.0422
  166loPI   C1B 2653   9.866  14.606  10.219 -0.0389 -0.0557 -0.1563
  166loPI   C2B 2654   9.916  14.614   9.770  0.4000  0.2800 -0.0679
  166loPI   C3B 2655  10.016  14.653   9.339  0.1419 -0.0675  0.0359
  166loPI   C4B 2656  10.330  14.705   8.854 -0.0408  0.1351 -0.0718
  167loPI    C1 2657   3.127  13.353  11.729 -0.1367  0.2825  0.0900
  167loPI    C2 2658   2.960  12.991  11.762  0.2052  0.1063 -0.0569
  167loPI    C3 2659   3.064  13.194  12.091 -0.0948  0.1257  0.0292
  167loPI   PO4 2660   3.040  13.451  11.456  0.0375  0.2544  0.1518
  167loPI   GL1 2661   2.829  13.273  11.067 -0.1515 -0.1034  0.0569
  167loPI   GL2 2662   3.131  13.329  10.889 -0.0264  0.4292 -0.1622
  167loPI   C1A 2663   2.673  13.230  10.654  0.1247 -0.2731 -0.3020
  167loPI   C2A 2664   2.802  13.293  10.239  0.3574  0.0767  0.1711
  167loPI   C3A 2665   2.818  13.199   9.777  0.0483  0.3862 -0.0277
  167loPI   C4A 2666   2.765  13.303   9.364  0.2380  0.1204  0.0602
  167loPI   C5A 2667   2.886  13.583   8.923  0.1001  0.0311  0.0307
  167loPI   C6A 2668   3.017  13.992   8.720  0.3202  0.0332  0.1504
  167loPI   C1B 2669   3.275  13.186  10.492 -0.3609 -0.2328 -0.1133
  167loPI   C2B 2670   3.275  13.208  10.007  0.1750 -0.1197  0.0941
  167loPI   C3B 2671   3.248  13.232   9.561 -0.0031 -0.0965  0.0414
  167loPI   C4B 2672   3.254  13.110   9.139 -0.0203  0.1581 -0.1556
  168loPI    C1 2673   0.681   5.007  11.488  0.0657  0.0547  0.0023
  168loPI    C2 2674   0.986   4.853  11.697 -0.1017 -0.2693  0.0148
  168loPI    C3 2675   0.736   5.113  11.870  0.2742  0.1504 -0.0527
  168loPI   PO4 2676   0.764   5.054  11.213  0.1882  0.2121 -0.3922
  168loPI   GL1 2677   1.019   4.984  10.925  0.1336  0.1851  0.0409
  168loPI   GL2 2678   1.120   5.272  10.823  0.2082 -0.2956 -0.3028
  168loPI   C1A 2679   0.874   4.964  10.566 -0.1675 -0.2772 -0.0104
  168loPI   C2A 2680   0.883   4.899  10.106  0.0012  0.1986 -0.2045
  168loPI   C3A 2681   0.818   5.041   9.602  0.2109  0.1955 -0.2110
  168loPI   C4A 2682   0.831   4.851   9.193  0.1711  0.1985  0.0912
  168loPI   C5A 2683   1.042   4.577   8.963 -0.0443 -0.0752  0.0984
  168loPI   C6A 2684   1.341   4.236   8.786  0.3004 -0.1458 -0.2833
  168loPI   C1B 2685   1.242   5.342  10.439 -0.0539  0.4182  0.2902
  168loPI   C2B 2686   1.168   5.275   9.921 -0.1215 -0.0139  0.2101
  168loPI   C3B 2687   1.126   5.396   9.488 -0.3394 -0.1659 -0.2381
  168loPI   C4B 2688   0.922   5.309   9.068 -0.0551 -0.0052  0.1257
  169loPI    C1 2689  16.186  15.331  11.414 -0.2826 -0.2500 -0.0144
  169loPI    C2 2690  16.084  15.535  11.743 -0.1463 -0.1490 -0.0337
  169loPI    C3 2691  15.891  15.601  11.399  0.0953  0.1713 -0.1130
  169loPI   PO4 2692  16.334  15.066  11.333 -0.0063  0.0505  0.2115
  169loPI   GL1 2693  16.577  14.861  10.973  0.0086 -0.2471  0.0987
  169loPI   GL2 2694  16.259  15.167  10.861 -0.1965  0.0155  0.1451
  169loPI   C1A 2695  16.583  14.850  10.486  0.0811  0.1801 -0.0629
  169loPI   C2A 2696  16.524  14.757  10.207 -0.1107  0.0314  0.1244
  169loPI   C3A 2697  16.606  14.740   9.875 -0.1982 -0.0335  0.1279
  169loPI   C4A 2698  16.615  14.638   9.473  0.1372 -0.2862 -0.4256
  169loPI   C5A 2699  16.759  14.698   9.047 -0.2428 -0.0476 -0.1457
  169loPI   C6A 2700  16.875  14.746   8.628  0.1767  0.0175  0.0439
  169loPI   C1B 2701  16.321  15.275  10.472 -0.2836 -0.2634 -0.2588
  169loPI   C2B 2702  16.451  15.256  10.050 -0.1509 -0.1107 -0.1271
  169loPI   C3B 2703  16.464  15.225   9.599  0.2789  0.0675 -0.1563
  169loPI   C4B 2704  16.383  15.096   9.310  0.0631 -0.0235  0.0058
  170loPI    C1 2705  11.003   1.636  11.436  0.2452  0.1687 -0.0862
  170loPI    C2 2706  11.333   1.729  11.641  0.1792 -0.0305  0.1154
  170loPI    C3 2707  10.979   1.724  11.825  0.0623  0.1737 -0.0978
  170loPI   PO4 2708  11.049   1.752  11.225 -0.0941  0.0680 -0.1249
  170loPI   GL1 2709  11.136   1.825  10.833  0.0741 -0.0061 -0.0240
  170loPI   GL2 2710  10.857   1.836  10.686  0.2455 -0.0316 -0.0328
  170loPI   C1A 2711  11.317   1.780  10.478  0.1035 -0.1606  0.0222
  170loPI   C2A 2712  11.291   1.769  10.044  0.1358  0.1280 -0.0900
  170loPI   C3A 2713  11.334   1.848   9.634 -0.0434 -0.0529  0.1805
  170loPI   C4A 2714  11.261   1.715   9.161  0.1422 -0.4551  0.2097
  170loPI   C5A 2715  11.330   1.840   8.700 -0.1243  0.0672 -0.0975
  170loPI   C6A 2716  11.575   1.722   8.377 -0.2144  0.0414 -0.0065
  170loPI   C1B 2717  10.810   1.868  10.286 -0.0375 -0.1116  0.1059
  170loPI   C2B 2718  10.839   1.875   9.759 -0.2749 -0.2022  0.0238
  170loPI   C3B 2719  10.770   1.847   9.349 -0.2643 -0.1619  0.0289
  170loPI   C4B 2720  10.791   1.786   8.917 -0.0520  0.0197  0.0104
  171loPI    C1 2721   8.444  17.600  11.471 -0.3308  0.0133  0.2073
  171loPI    C2 2722   8.669  17.365  11.703  0.3160  0.2783 -0.1261
  171loPI    C3 2723   8.512  17.702  11.852  0.1462  0.0997  0.1060
  171loPI   PO4 2724   8.207  17.396  11.397  0.1564 -0.4818  0.0193
  171loPI   GL1 2725   8.087  17.345  11.020 -0.1126 -0.3454  0.1105
  171loPI   GL2 2726   7.871  17.238  10.844  0.1465 -0.0174 -0.0428
  171loPI   C1A 2727   8.214  17.510  10.617  0.1239 -0.2102  0.5517
  171loPI   C2A 2728   8.234  17.556  10.134 -0.0393  0.1603  0.2028
  171loPI   C3A 2729   8.230  17.604   9.680 -0.0125 -0.0081  0.2234
  171loPI   C4A 2730   8.167  17.656   9.346 -0.2308 -0.0137  0.1446
  171loPI   C5A 2731   8.090  17.605   8.913 -0.2130  0.0740  0.0072
  171loPI   C6A 2732   7.842  17.539   8.642 -0.1682 -0.2294  0.0042
  171loPI   C1B 2733   7.869  17.064  10.470  0.0200  0.2027  0.0685
  171loPI   C2B 2734   7.900  17.165  10.109 -0.0204  0.1103 -0.1515
  171loPI   C3B 2735   7.874  17.127   9.631  0.1276  0.1697 -0.0566
  171loPI   C4B 2736   7.820  17.224   9.156 -0.2716 -0.1405  0.1623
  172loPI    C1 2737  14.838   7.949  11.752 -0.0267  0.1421 -0.1386
  172loPI    C2 2738  15.048   8.136  12.036 -0.0636  0.0133 -0.0249
  172loPI    C3 2739  14.729   7.917  12.135  0.0976 -0.2752 -0.1331
  172loPI   PO4 2740  14.804   8.096  11.568 -0.1813  0.2251  0.1267
  172loPI   GL1 2741  14.791   8.223  11.095  0.1893  0.0559  0.0869
  172loPI   GL2 2742  14.984   8.049  11.019  0.0225 -0.1484  0.0108
  172loPI   C1A 2743  14.538   8.106  10.699  0.0245 -0.0629  0.0822
  172loPI   C2A 2744  14.400   8.135  10.222 -0.2038 -0.0425 -0.3403
  172loPI   C3A 2745  14.411   8.154   9.755  0.1149 -0.0870 -0.1000
  172loPI   C4A 2746  14.450   8.168   9.387  0.1815  0.0966  0.0383
  172loPI   C5A 2747  14.512   8.056   8.894 -0.2207 -0.2972  0.1945
  172loPI   C6A 2748  14.549   7.980   8.435 -0.1016  0.0442  0.2654
  172loPI   C1B 2749  14.992   8.061  10.657  0.0726  0.1578 -0.0398
  172loPI   C2B 2750  14.981   8.055  10.212  0.3065  0.2390  0.1953
  172loPI   C3B 2751  14.907   8.114   9.675  0.0803  0.0963  0.0680
  172loPI   C4B 2752  14.903   8.008   9.242  0.0915  0.1971 -0.3248
  173loPI    C1 2753   5.053   1.099  11.621 -0.0862  0.2868 -0.0788
  173loPI    C2 2754   5.090   1.434  11.837  0.1594  0.2429 -0.0490
  173loPI    C3 2755   5.258   1.094  11.965 -0.2745  0.0521  0.0332
  173loPI   PO4 2756   5.161   1.100  11.401 -0.0298 -0.2378 -0.0297
  173loPI   GL1 2757   5.369   0.897  11.081  0.1969  0.2357 -0.1482
  173loPI   GL2 2758   5.081   0.751  11.035 -0.0018 -0.3262  0.0556
  173loPI   C1A 2759   5.354   1.110  10.648 -0.2730 -0.3224  0.0229
  173loPI   C2A 2760   5.307   1.121  10.150 -0.0588  0.1980 -0.0789
  173loPI   C3A 2761   5.352   1.130   9.775 -0.0650 -0.3759 -0.0307
  173loPI   C4A 2762   5.306   1.134   9.400  0.0266 -0.0990  0.1632
  173loPI   C5A 2763   5.306   1.117   8.914  0.2009 -0.2490 -0.1243
  173loPI   C6A 2764   5.199   1.332   8.561  0.1163  0.1355  0.1459
  173loPI   C1B 2765   5.002   0.695  10.547 -0.3216 -0.1592  0.0878
  173loPI   C2B 2766   5.054   0.664  10.045  0.2696  0.0430  0.0330
  173loPI   C3B 2767   5.013   0.779   9.615 -0.0085 -0.0962  0.0843
  173loPI   C4B 2768   4.987   0.705   9.151 -0.0425 -0.0478 -0.0606
  174loPI    C1 2769   1.100  17.480  11.880  0.1560  0.0386 -0.0493
  174loPI    C2 2770   1.173  17.711  12.199  0.3014 -0.0407 -0.0241
  174loPI    C3 2771   1.020  17.344  12.248 -0.0229  0.0853 -0.0703
  174loPI   PO4 2772   1.284  17.409  11.704  0.0381  0.0333  0.1262
  174loPI   GL1 2773   1.262  17.417  11.244  0.0526 -0.1801  0.0851
  174loPI   GL2 2774   1.386  17.175  11.059  0.0875  0.0334  0.0203
  174loPI   C1A 2775   1.058  17.736  10.838 -0.1045 -0.2908 -0.0286
  174loPI   C2A 2776   1.014  17.643  10.488 -0.2863  0.0755 -0.0207
  174loPI   C3A 2777   1.018  17.594  10.065  0.2213  0.1006  0.0400
  174loPI   C4A 2778   1.036  17.675   9.658  0.0386  0.1697 -0.2287
  174loPI   C5A 2779   0.932  17.571   9.219  0.1260 -0.0549 -0.0018
  174loPI   C6A 2780   1.049  17.200   8.964  0.0322 -0.1684  0.0142
  174loPI   C1B 2781   1.185  17.182  10.742  0.0429 -0.2565  0.1090
  174loPI   C2B 2782   1.199  17.135  10.358 -0.0730  0.0148  0.0455
  174loPI   C3B 2783   1.282  17.190   9.915  0.2005 -0.0678 -0.1899
  174loPI   C4B 2784   1.171  17.262   9.491 -0.0204  0.1558 -0.1176
  175loPI    C1 2785   3.317   9.330  11.945 -0.0997  0.0284 -0.0672
  175loPI    C2 2786   3.404   9.719  11.974 -0.0651  0.0299 -0.1846
  175loPI    C3 2787   3.026   9.595  12.015 -0.0736  0.0737 -0.1286
  175loPI   PO4 2788   3.320   9.217  11.697 -0.1320 -0.0617  0.1659
  175loPI   GL1 2789   3.252   9.045  11.204  0.3045  0.0206  0.1208
  175loPI   GL2 2790   3.542   9.011  10.969  0.0024 -0.0589 -0.0499
  175loPI   C1A 2791   2.971   9.179  10.823  0.1179 -0.1583 -0.1067
  175loPI   C2A 2792   2.977   9.118  10.414 -0.2872 -0.0365  0.1110
  175loPI   C3A 2793   2.983   9.126   9.930  0.1681 -0.1172 -0.1574
  175loPI   C4A 2794   3.023   9.112   9.519 -0.3685 -0.1845  0.1069
  175loPI   C5A 2795   3.051   9.138   9.055  0.0064  0.5384 -0.1758
  175loPI   C6A 2796   2.970   9.433   8.762  0.0633  0.1532  0.0759
  175loPI   C1B 2797   3.495   9.051  10.540  0.1138 -0.0959 -0.0877
  175loPI   C2B 2798   3.548   9.159  10.197 -0.2607  0.0286 -0.3834
  175loPI   C3B 2799   3.591   9.039   9.817  0.1050 -0.0983  0.1770
  175loPI   C4B 2800   3.520   9.104   9.333  0.0823 -0.2700 -0.2896
  176loPI    C1 2801   7.611   6.240  11.351 -0.0339  0.0068 -0.1804
  176loPI    C2 2802   7.614   6.597  11.170 -0.0937 -0.0585 -0.3117
  176loPI    C3 2803   7.267   6.408  11.235 -0.1025  0.1080  0.1610
  176loPI   PO4 2804   7.777   6.052  11.117 -0.1566  0.3238  0.0377
  176loPI   GL1 2805   7.926   6.029  10.701 -0.2366  0.2614 -0.1315
  176loPI   GL2 2806   8.007   5.670  10.814 -0.0836  0.0558 -0.0653
  176loPI   C1A 2807   8.013   6.199  10.312 -0.1225  0.1042 -0.2385
  176loPI   C2A 2808   7.986   6.243   9.832  0.0113 -0.1600  0.0069
  176loPI   C3A 2809   8.095   6.286   9.367  0.2053  0.1586 -0.0521
  176loPI   C4A 2810   8.120   6.312   8.830  0.1515 -0.2221 -0.0054
  176loPI   C5A 2811   8.167   5.989   8.496  0.1778  0.0046  0.2510
  176loPI   C6A 2812   8.274   5.745   8.082  0.1864  0.2730 -0.0742
  176loPI   C1B 2813   8.207   5.697  10.403 -0.2541  0.0727  0.0971
  176loPI   C2B 2814   8.303   5.811   9.919 -0.2695  0.0658 -0.1192
  176loPI   C3B 2815   8.249   5.817   9.516  0.0585  0.0024  0.2461
  176loPI   C4B 2816   8.256   5.831   9.059  0.0198  0.0875 -0.0492
  177loPI    C1 2817  12.638   5.766  11.422  0.2361 -0.1456  0.0863
  177loPI    C2 2818  12.589   5.707  11.815 -0.0659  0.0369  0.0792
  177loPI    C3 2819  12.463   6.047  11.646  0.1141 -0.0157 -0.1678
  177loPI   PO4 2820  12.495   5.554  11.337  0.0708  0.1290 -0.2553
  177loPI   GL1 2821  12.357   5.540  10.934  0.3224  0.0878 -0.2702
  177loPI   GL2 2822  12.536   5.755  10.723 -0.0287 -0.1956  0.0894
  177loPI   C1A 2823  12.304   5.193  10.566 -0.1183  0.3278 -0.1905
  177loPI   C2A 2824  12.261   5.257  10.113 -0.0382  0.0393  0.1800
  177loPI   C3A 2825  12.284   5.229   9.721 -0.0513  0.0106 -0.0851
  177loPI   C4A 2826  12.259   5.258   9.281  0.0632 -0.1231  0.0154
  177loPI   C5A 2827  12.223   5.258   8.756 -0.4453 -0.1372  0.1212
  177loPI   C6A 2828  12.048   5.303   8.518  0.0625  0.2282  0.3374
  177loPI   C1B 2829  12.584   5.652  10.348  0.3336 -0.2659  0.3091
  177loPI   C2B 2830  12.557   5.634   9.878 -0.1895 -0.0770  0.0199
  177loPI   C3B 2831  12.600   5.664   9.392  0.1410  0.2023 -0.0725
  177loPI   C4B 2832  12.654   5.696   8.893  0.1269 -0.0433  0.1191
  178loPI    C1 2833   2.832  11.089  11.438 -0.1441 -0.1400 -0.1073
  178loPI    C2 2834   2.840  10.982  11.823 -0.2451  0.1353 -0.0263
  178loPI    C3 2835   2.633  11.305  11.710 -0.1795  0.0818 -0.3059
  178loPI   PO4 2836   2.975  10.835  11.290 -0.0446 -0.3141  0.0617
  178loPI   GL1 2837   3.064  10.678  10.826  0.0093 -0.1778  0.0327
  178loPI   GL2 2838   3.150  10.918  10.738  0.1449  0.1674 -0.0101
  178loPI   C1A 2839   2.874  10.590  10.444 -0.2425  0.4822 -0.1447
  178loPI   C2A 2840   2.892  10.396  10.103  0.2253  0.2548 -0.0503
  178loPI   C3A 2841   2.982  10.447   9.759 -0.0350 -0.0149 -0.0081
  178loPI   C4A 2842   2.957  10.481   9.346 -0.2556 -0.0398 -0.3298
  178loPI   C5A 2843   3.044  10.466   8.911  0.0824 -0.1658  0.2009
  178loPI   C6A 2844   3.176  10.567   8.497  0.0800 -0.1498  0.2129
  178loPI   C1B 2845   3.231  10.914  10.246  0.2801 -0.0187  0.0090
  178loPI   C2B 2846   3.265  10.899   9.864  0.2640 -0.1542  0.0707
  178loPI   C3B 2847   3.291  10.967   9.495 -0.2828  0.3007 -0.2098
  178loPI   C4B 2848   3.273  11.012   9.042 -0.3021 -0.3158 -0.4253
  179loPI    C1 2849  14.004  15.411  11.558  0.1991 -0.2464  0.1078
  179loPI    C2 2850  13.829  15.636  11.838  0.0521 -0.0052 -0.1711
  179loPI    C3 2851  13.952  15.266  11.926  0.2120  0.1458  0.2692
  179loPI   PO4 2852  13.854  15.442  11.368 -0.1635 -0.1969  0.2865
  179loPI   GL1 2853  13.785  15.105  11.034 -0.2224 -0.0685 -0.3797
  179loPI   GL2 2854  13.534  15.197  10.820  0.1197 -0.1407  0.1971
  179loPI   C1A 2855  14.022  15.161  10.647 -0.2227 -0.0737 -0.1844
  179loPI   C2A 2856  13.990  15.149  10.243  0.0722  0.0437 -0.1519
  179loPI   C3A 2857  14.070  15.086   9.804 -0.2524  0.0872  0.0479
  179loPI   C4A 2858  14.099  14.930   9.350  0.0944  0.0732  0.0075
  179loPI   C5A 2859  14.285  15.148   8.961 -0.1095 -0.0465 -0.2370
  179loPI   C6A 2860  14.356  15.607   8.724  0.0347 -0.0927 -0.1724
  179loPI   C1B 2861  13.486  15.225  10.408 -0.4588 -0.0110 -0.3387
  179loPI   C2B 2862  13.527  15.163   9.949 -0.2260  0.2765 -0.1533
  179loPI   C3B 2863  13.580  15.057   9.471 -0.0572 -0.0169 -0.1287
  179loPI   C4B 2864  13.718  15.043   9.083  0.1467 -0.2082 -0.1566
  180loPI    C1 2865  11.964   1.298  11.377 -0.0956  0.1849 -0.1922
  180loPI    C2 2866  11.809   1.596  11.593  0.2050  0.3039 -0.1361
  180loPI    C3 2867  11.875   1.240  11.762 -0.1591  0.1998 -0.2045
  180loPI   PO4 2868  11.831   1.265  11.180  0.1160 -0.0230  0.0270
  180loPI   GL1 2869  11.634   1.043  10.933  0.0803  0.1221 -0.1194
  180loPI   GL2 2870  11.536   1.346  10.739  0.0331  0.0211 -0.4074
  180loPI   C1A 2871  11.695   0.824  10.591 -0.3054 -0.0877 -0.0932
  180loPI   C2A 2872  11.705   0.870  10.129 -0.0593  0.0680 -0.1240
  180loPI   C3A 2873  11.661   0.835   9.705 -0.0069 -0.0101  0.0600
  180loPI   C4A 2874  11.622   0.822   9.287 -0.0755 -0.2454  0.0073
  180loPI   C5A 2875  11.681   0.876   8.810  0.0935 -0.2458  0.1033
  180loPI   C6A 2876  11.908   0.889   8.385 -0.2389  0.1978  0.1397
  180loPI   C1B 2877  11.595   1.294  10.397 -0.0751 -0.2716  0.0138
  180loPI   C2B 2878  11.458   1.274   9.948  0.0763 -0.2715  0.1105
  180loPI   C3B 2879  11.457   1.305   9.481 -0.0387  0.1079  0.3197
  180loPI   C4B 2880  11.447   1.275   9.025  0.0544  0.2407 -0.4598
  181loPI    C1 2881   4.568  12.471  11.710 -0.1766  0.3652 -0.0336
  181loPI    C2 2882   4.902  12.623  11.869  0.0402 -0.0360 -0.0911
  181loPI    C3 2883   4.618  12.470  12.107  0.0685 -0.0389 -0.0591
  181loPI   PO4 2884   4.585  12.460  11.397  0.0053  0.1215 -0.4665
  181loPI   GL1 2885   4.568  12.728  11.011  0.1394 -0.1085 -0.1322
  181loPI   GL2 2886   4.465  12.544  10.862 -0.0175 -0.0640 -0.1233
  181loPI   C1A 2887   4.646  13.000  10.655 -0.2668 -0.1850  0.2230
  181loPI   C2A 2888   4.711  13.013  10.174  0.0583 -0.0941  0.1671
  181loPI   C3A 2889   4.783  13.018   9.768  0.1788  0.1912 -0.0761
  181loPI   C4A 2890   4.840  13.056   9.332 -0.1036 -0.0370  0.2075
  181loPI   C5A 2891   4.901  13.067   8.884  0.3053  0.2909 -0.0959
  181loPI   C6A 2892   4.953  12.905   8.507  0.0883 -0.1237 -0.2615
  181loPI   C1B 2893   4.469  12.604  10.386  0.0644 -0.2906  0.0624
  181loPI   C2B 2894   4.474  12.584   9.942 -0.1702 -0.2275  0.1241
  181loPI   C3B 2895   4.561  12.639   9.512 -0.0704  0.0412  0.1531
  181loPI   C4B 2896   4.465  12.702   9.057  0.0758  0.4793  0.0630
  182loPI    C1 2897  14.170   7.575  11.426 -0.0768 -0.3632  0.2791
  182loPI    C2 2898  14.024   7.820  11.707 -0.0951 -0.1146  0.0575
  182loPI    C3 2899  14.410   7.715  11.713 -0.0303  0.1167  0.0168
  182loPI   PO4 2900  14.143   7.665  11.201 -0.1195 -0.0610  0.0166
  182loPI   GL1 2901  14.178   7.785  10.885 -0.3458  0.3277 -0.3834
  182loPI   GL2 2902  14.450   7.669  10.743 -0.1444  0.0133 -0.3271
  182loPI   C1A 2903  14.189   7.734  10.377  0.3367  0.2498  0.1449
  182loPI   C2A 2904  14.067   7.786  10.021  0.3890  0.1003 -0.1430
  182loPI   C3A 2905  14.101   7.759   9.605  0.0271  0.0977  0.2007
  182loPI   C4A 2906  14.125   7.832   9.217 -0.4216  0.0842 -0.0227
  182loPI   C5A 2907  14.092   7.652   8.753 -0.3711  0.0568  0.1229
  182loPI   C6A 2908  14.179   7.718   8.267  0.2384 -0.2603 -0.0754
  182loPI   C1B 2909  14.715   7.689  10.436  0.0504  0.0141  0.0193
  182loPI   C2B 2910  14.689   7.637  10.071 -0.0029 -0.1315 -0.0093
  182loPI   C3B 2911  14.607   7.688   9.721  0.2601 -0.2122  0.0889
  182loPI   C4B 2912  14.530   7.635   9.272 -0.3051  0.0542  0.0443
  183loPI    C1 2913  17.460   4.633  11.523 -0.0780 -0.2938 -0.2071
  183loPI    C2 2914  17.768   4.478  11.725 -0.0214 -0.0478 -0.1017
  183loPI    C3 2915  17.432   4.576  11.917 -0.1021 -0.1532 -0.1881
  183loPI   PO4 2916  17.530   4.558  11.282 -0.2244  0.0033  0.0281
  183loPI   GL1 2917  17.663   4.719  10.944  0.1651 -0.0271  0.2772
  183loPI   GL2 2918  17.880   4.576  10.794  0.0123 -0.3150  0.1837
  183loPI   C1A 2919  17.357   4.686  10.556 -0.0552  0.0969  0.0542
  183loPI   C2A 2920  17.286   4.719  10.191  0.0330 -0.0157 -0.0432
  183loPI   C3A 2921  17.251   4.601   9.779  0.0124  0.0861 -0.1981
  183loPI   C4A 2922  17.346   4.681   9.384  0.2236 -0.1398 -0.0404
  183loPI   C5A 2923  17.352   4.749   8.970 -0.1350 -0.0367 -0.3125
  183loPI   C6A 2924  17.202   4.865   8.631 -0.3851 -0.1328  0.0685
  183loPI   C1B 2925  17.798   4.691  10.333 -0.1092  0.1763 -0.3474
  183loPI   C2B 2926  17.802   4.600   9.899  0.0506 -0.0263  0.0655
  183loPI   C3B 2927  17.830   4.501   9.444  0.1825 -0.0807 -0.0592
  183loPI   C4B 2928  17.935   4.734   8.990  0.1089 -0.1793 -0.0368
  184loPI    C1 2929  13.506  13.025  11.437  0.2069  0.1259  0.0451
  184loPI    C2 2930  13.527  12.672  11.623  0.1630  0.2174  0.2258
  184loPI    C3 2931  13.452  13.004  11.833 -0.0287  0.3036  0.0249
  184loPI   PO4 2932  13.551  12.921  11.157  0.0220  0.2266  0.1862
  184loPI   GL1 2933  13.664  13.267  10.804  0.4678  0.1418  0.1280
  184loPI   GL2 2934  13.784  13.476  10.674  0.4419  0.0561  0.1772
  184loPI   C1A 2935  13.371  13.430  10.424 -0.1435  0.1056 -0.1684
  184loPI   C2A 2936  13.340  13.373  10.040  0.4077  0.0918 -0.0819
  184loPI   C3A 2937  13.351  13.320   9.605 -0.0848  0.0657  0.0274
  184loPI   C4A 2938  13.406  13.225   9.147 -0.0444  0.1951 -0.0037
  184loPI   C5A 2939  13.280  13.191   8.678 -0.1509  0.0249 -0.1236
  184loPI   C6A 2940  13.477  13.029   8.303  0.2023 -0.3726 -0.0933
  184loPI   C1B 2941  13.851  13.272  10.167 -0.2037 -0.1714 -0.1311
  184loPI   C2B 2942  13.899  13.278   9.766 -0.0839 -0.2450 -0.1473
  184loPI   C3B 2943  13.963  13.107   9.435  0.1510 -0.0108  0.2064
  184loPI   C4B 2944  13.927  13.190   9.027 -0.3633  0.0866  0.4269
  185loPI    C1 2945  17.302   7.261  11.585  0.0483  0.0216  0.1367
  185loPI    C2 2946  17.573   7.512  11.739 -0.0995  0.1717  0.1551
  185loPI    C3 2947  17.262   7.392  11.961 -0.0879  0.0581  0.1104
  185loPI   PO4 2948  17.295   7.271  11.300 -0.1779 -0.3700  0.0452
  185loPI   GL1 2949  17.190   7.428  10.987  0.2485 -0.1825 -0.1095
  185loPI   GL2 2950  17.367   7.635  10.883 -0.2974 -0.0351  0.4318
  185loPI   C1A 2951  17.116   7.411  10.510 -0.0178  0.0026 -0.1480
  185loPI   C2A 2952  17.203   7.382  10.041  0.1930  0.0596  0.1146
  185loPI   C3A 2953  17.156   7.430   9.556  0.4618 -0.1525 -0.1425
  185loPI   C4A 2954  17.087   7.482   9.116 -0.0124  0.3703  0.1865
  185loPI   C5A 2955  17.190   7.511   8.602 -0.2331 -0.1058 -0.0523
  185loPI   C6A 2956  17.183   7.860   8.331 -0.1460  0.0334 -0.1571
  185loPI   C1B 2957  17.437   7.773  10.523 -0.4556  0.1703  0.2745
  185loPI   C2B 2958  17.525   7.820  10.069  0.5707  0.1835  0.2623
  185loPI   C3B 2959  17.372   7.851   9.640  0.0580  0.0540  0.0537
  185loPI   C4B 2960  17.484   7.835   9.266  0.0220 -0.2620 -0.2513
  186loPI    C1 2961   3.092   7.209  11.539  0.0050  0.0431  0.1102
  186loPI    C2 2962   3.366   6.919  11.570  0.1830  0.2149  0.1626
  186loPI    C3 2963   3.155   7.030  11.892  0.0817  0.1130  0.1321
  186loPI   PO4 2964   3.008   7.168  11.326  0.2438  0.0588  0.0099
  186loPI   GL1 2965   2.894   6.986  10.962  0.0228  0.0165 -0.2970
  186loPI   GL2 2966   2.529   7.037  10.780 -0.1766  0.0746  0.1595
  186loPI   C1A 2967   3.069   6.924  10.609  0.1156  0.2860  0.0733
  186loPI   C2A 2968   3.055   6.847  10.165  0.3671 -0.0864 -0.0544
  186loPI   C3A 2969   2.970   6.925   9.701 -0.0548 -0.1462  0.1723
  186loPI   C4A 2970   3.011   6.936   9.209 -0.1189  0.1908  0.0151
  186loPI   C5A 2971   3.401   6.957   8.867 -0.1684 -0.0844  0.3469
  186loPI   C6A 2972   3.537   6.819   8.498  0.1731 -0.0485 -0.3610
  186loPI   C1B 2973   2.501   7.032  10.386 -0.0874  0.1829 -0.1156
  186loPI   C2B 2974   2.491   7.003   9.906 -0.0694 -0.0621  0.3168
  186loPI   C3B 2975   2.436   7.100   9.498  0.0217 -0.0056  0.3942
  186loPI   C4B 2976   2.455   6.947   9.099  0.1746 -0.1806  0.2689
  187loPI    C1 2977   1.763  13.085  11.549 -0.0553 -0.2413 -0.0361
  187loPI    C2 2978   1.681  13.264  11.897  0.0922 -0.0803 -0.0831
  187loPI    C3 2979   1.946  12.964  11.883 -0.0258 -0.1876 -0.0327
  187loPI   PO4 2980   1.625  12.999  11.416 -0.1947 -0.2170 -0.1863
  187loPI   GL1 2981   1.347  13.103  11.164  0.1000 -0.0412  0.3630
  187loPI   GL2 2982   1.539  13.346  11.027  0.0490  0.0115  0.3502
  187loPI   C1A 2983   1.324  12.934  10.759 -0.2220  0.0181 -0.3629
  187loPI   C2A 2984   1.454  12.997  10.318  0.0829  0.0445  0.0239
  187loPI   C3A 2985   1.449  12.933   9.858  0.0743 -0.0020 -0.3285
  187loPI   C4A 2986   1.429  13.069   9.444 -0.3792  0.2164 -0.1223
  187loPI   C5A 2987   1.420  12.883   9.000 -0.0214  0.1413 -0.1319
  187loPI   C6A 2988   1.019  12.993   8.792  0.0406 -0.1732 -0.0347
  187loPI   C1B 2989   1.628  13.358  10.620 -0.3369  0.0213 -0.2933
  187loPI   C2B 2990   1.726  13.441  10.223 -0.0338 -0.1747 -0.1879
  187loPI   C3B 2991   1.764  13.361   9.864  0.0206  0.3741  0.2342
  187loPI   C4B 2992   1.778  13.488   9.407  0.0101 -0.2471 -0.2120
  188loPI    C1 2993   8.975   6.566  11.690  0.0995  0.2716  0.0664
  188loPI    C2 2994   9.275   6.513  11.950 -0.1397 -0.0670  0.2827
  188loPI    C3 2995   8.980   6.244  11.928 -0.2615  0.0939 -0.1580
  188loPI   PO4 2996   9.107   6.622  11.424  0.3576  0.4513  0.1232
  188loPI   GL1 2997   9.039   6.602  10.957 -0.0617 -0.1357  0.1334
  188loPI   GL2 2998   9.320   6.580  10.959  0.3369 -0.3483  0.1243
  188loPI   C1A 2999   8.813   6.562  10.569  0.0715  0.0238  0.1645
  188loPI   C2A 3000   8.772   6.569  10.110  0.0525 -0.0457 -0.1327
  188loPI   C3A 3001   8.854   6.578   9.666 -0.5692  0.0997 -0.3159
  188loPI   C4A 3002   8.881   6.556   9.278 -0.0083 -0.0459 -0.0050
  188loPI   C5A 3003   8.864   6.688   8.897 -0.0275 -0.3157 -0.2022
  188loPI   C6A 3004   9.234   6.731   8.731  0.2992  0.0194 -0.1517
  188loPI   C1B 3005   9.311   6.532  10.547 -0.0730  0.1865 -0.1293
  188loPI   C2B 3006   9.306   6.453  10.163  0.0808  0.1854  0.1292
  188loPI   C3B 3007   9.388   6.522   9.662 -0.1676  0.1384 -0.3045
  188loPI   C4B 3008   9.366   6.608   9.225  0.1983 -0.0412  0.1793
  189loPI    C1 3009  14.290   9.005  11.531 -0.0250  0.2145 -0.0310
  189loPI    C2 3010  14.616   9.235  11.550  0.1613 -0.0615  0.1954
  189loPI    C3 3011  14.425   9.131  11.886 -0.1289  0.0508  0.0683
  189loPI   PO4 3012  14.247   8.949  11.309  0.2230  0.2061  0.2390
  189loPI   GL1 3013  14.435   9.032  11.016  0.0754  0.1325 -0.0642
  189loPI   GL2 3014  14.150   8.978  10.844 -0.1970 -0.0123  0.1264
  189loPI   C1A 3015  14.575   9.123  10.705 -0.0145 -0.0488  0.0063
  189loPI   C2A 3016  14.635   9.005  10.295 -0.1567 -0.0777 -0.3039
  189loPI   C3A 3017  14.491   9.026   9.913  0.2485  0.3122  0.1105
  189loPI   C4A 3018  14.540   9.016   9.520  0.0041 -0.1705 -0.2979
  189loPI   C5A 3019  14.537   9.004   9.088 -0.2677  0.2381  0.0695
  189loPI   C6A 3020  14.903   8.931   8.863  0.0904 -0.0432  0.0551
  189loPI   C1B 3021  14.061   9.133  10.453  0.1588 -0.2111  0.2633
  189loPI   C2B 3022  14.049   9.157  10.053 -0.1693 -0.3210 -0.2125
  189loPI   C3B 3023  14.045   9.118   9.676 -0.1452 -0.1452  0.2160
  189loPI   C4B 3024  14.063   9.079   9.282 -0.2325 -0.2819  0.1660
  190loPI    C1 3025  16.333   8.347  11.661 -0.0370 -0.1907  0.0700
  190loPI    C2 3026  15.972   8.486  11.761  0.0212 -0.0008  0.0206
  190loPI    C3 3027  16.300   8.646  11.924  0.1027  0.1096 -0.2451
  190loPI   PO4 3028  16.227   8.223  11.383  0.1000  0.1916 -0.1047
  190loPI   GL1 3029  16.164   8.348  10.975 -0.0476  0.0195 -0.1295
  190loPI   GL2 3030  15.879   8.626  10.993  0.4162  0.0339  0.0578
  190loPI   C1A 3031  16.212   8.371  10.608  0.0142  0.0255 -0.0300
  190loPI   C2A 3032  16.209   8.375  10.216  0.1422  0.2018 -0.0077
  190loPI   C3A 3033  16.319   8.344   9.724  0.4620 -0.1033  0.1329
  190loPI   C4A 3034  16.360   8.367   9.278 -0.0111  0.2809  0.2629
  190loPI   C5A 3035  16.107   8.129   8.987  0.0381 -0.0563 -0.4038
  190loPI   C6A 3036  15.789   7.821   8.839 -0.1058  0.0344  0.1773
  190loPI   C1B 3037  15.723   8.393  10.631  0.0625  0.1779  0.0274
  190loPI   C2B 3038  15.726   8.371  10.145  0.1268  0.2048 -0.1410
  190loPI   C3B 3039  15.768   8.412   9.669  0.0505 -0.0934 -0.1968
  190loPI   C4B 3040  15.805   8.422   9.310  0.1485  0.3476 -0.1789
  191loPI    C1 3041  17.781   7.073  11.571  0.0864  0.0455 -0.2891
  191loPI    C2 3042  17.513   6.800  11.687 -0.2275  0.2557 -0.5059
  191loPI    C3 3043  17.725   7.000  11.961  0.1130 -0.3011 -0.3470
  191loPI   PO4 3044  17.767   7.057  11.333 -0.0761  0.1907  0.0016
  191loPI   GL1 3045  17.891   7.161  10.949  0.2839  0.1564 -0.1091
  191loPI   GL2 3046  17.601   7.163  10.796  0.0290  0.2529 -0.1393
  191loPI   C1A 3047  17.906   6.857  10.553 -0.4614 -0.1120 -0.0491
  191loPI   C2A 3048  17.937   6.889  10.112  0.1631  0.0730 -0.3426
  191loPI   C3A 3049  17.856   6.876   9.619  0.0351 -0.3786 -0.2055
  191loPI   C4A 3050  17.762   6.886   9.230  0.0996  0.1906  0.1404
  191loPI   C5A 3051  17.948   6.652   8.881 -0.0605 -0.2368  0.2191
  191loPI   C6A 3052  18.102   6.554   8.421  0.2004  0.1714 -0.0809
  191loPI   C1B 3053  17.687   7.279  10.379  0.2217 -0.2875  0.2035
  191loPI   C2B 3054  17.645   7.382   9.859 -0.3652  0.1010  0.0689
  191loPI   C3B 3055  17.685   7.421   9.442  0.0892  0.1880 -0.3014
  191loPI   C4B 3056  17.633   7.361   9.052  0.2052 -0.0236 -0.1287
  192loPI    C1 3057   8.229   3.362  11.023 -0.0969 -0.0611  0.1332
  192loPI    C2 3058   8.321   3.373  11.412  0.1606 -0.0050  0.0723
  192loPI    C3 3059   8.562   3.548  11.145 -0.0839  0.0720 -0.1005
  192loPI   PO4 3060   7.916   3.436  11.007  0.0140 -0.0707 -0.5338
  192loPI   GL1 3061   7.656   3.619  10.698  0.1108 -0.1346  0.1400
  192loPI   GL2 3062   7.500   3.295  10.759  0.0200  0.0519  0.2769
  192loPI   C1A 3063   7.713   3.444  10.272  0.4002  0.0096 -0.1932
  192loPI   C2A 3064   7.700   3.469   9.854 -0.2043  0.1895  0.1329
  192loPI   C3A 3065   7.617   3.608   9.416  0.1763 -0.0661 -0.0592
  192loPI   C4A 3066   7.756   3.559   9.006 -0.0769 -0.4685 -0.2271
  192loPI   C5A 3067   7.710   3.765   8.605 -0.1971  0.1849 -0.1585
  192loPI   C6A 3068   7.651   4.158   8.534 -0.1267 -0.1591 -0.0651
  192loPI   C1B 3069   7.404   3.079  10.466  0.0339  0.3678  0.3738
  192loPI   C2B 3070   7.392   3.091   9.982 -0.1491 -0.1456  0.1416
  192loPI   C3B 3071   7.330   3.102   9.622 -0.0709  0.2856 -0.0593
  192loPI   C4B 3072   7.445   3.192   9.223  0.1616  0.1858 -0.0643
  193loPI    C1 3073  14.245  14.085  11.465 -0.1884 -0.4209  0.0288
  193loPI    C2 3074  14.626  14.032  11.574 -0.0952 -0.1046 -0.1297
  193loPI    C3 3075  14.339  13.800  11.730  0.1185 -0.1233  0.2481
  193loPI   PO4 3076  14.280  14.200  11.224  0.0072  0.0111 -0.1202
  193loPI   GL1 3077  14.248  14.103  10.884 -0.1425  0.0135  0.0822
  193loPI   GL2 3078  14.156  13.855  10.645  0.3435 -0.0320  0.0048
  193loPI   C1A 3079  14.385  14.259  10.450  0.1188  0.2834  0.0969
  193loPI   C2A 3080  14.485  14.094   9.990 -0.1205 -0.4006 -0.0051
  193loPI   C3A 3081  14.522  13.979   9.634 -0.0987 -0.0260 -0.0358
  193loPI   C4A 3082  14.488  13.923   9.224 -0.1070  0.0646  0.0801
  193loPI   C5A 3083  14.485  13.630   8.856  0.0883 -0.0512  0.1665
  193loPI   C6A 3084  14.203  13.442   8.549  0.1568  0.1766  0.2300
  193loPI   C1B 3085  14.091  13.777  10.298 -0.2016  0.0172  0.1958
  193loPI   C2B 3086  14.205  13.642   9.936 -0.0498 -0.1401  0.1880
  193loPI   C3B 3087  14.124  13.657   9.518  0.2952 -0.3560  0.2085
  193loPI   C4B 3088  14.069  13.630   9.146  0.3263  0.0979  0.2020
  194loPI    C1 3089  17.554  17.480  11.631  0.0338  0.0914 -0.2424
  194loPI    C2 3090  17.829  17.330  11.880 -0.2002  0.2233  0.1019
  194loPI    C3 3091  17.530  17.554  12.023 -0.2967  0.3666 -0.3104
  194loPI   PO4 3092  17.601  17.276  11.451 -0.0671 -0.0854  0.0519
  194loPI   GL1 3093  17.779  17.010  11.166  0.0077  0.3563  0.1762
  194loPI   GL2 3094  17.894  17.307  11.011 -0.0881 -0.0359 -0.3711
  194loPI   C1A 3095  17.696  16.993  10.735 -0.0917 -0.1061 -0.1048
  194loPI   C2A 3096  17.658  16.984  10.332  0.0821 -0.2252  0.0385
  194loPI   C3A 3097  17.599  16.887   9.925  0.3976  0.3993  0.0187
  194loPI   C4A 3098  17.599  16.883   9.479  0.0369  0.0311  0.0070
  194loPI   C5A 3099  17.445  16.679   9.151 -0.1059 -0.0834 -0.0759
  194loPI   C6A 3100  17.280  16.532   8.920 -0.0356 -0.0085 -0.0640
  194loPI   C1B 3101  17.988  17.316  10.561  0.1447 -0.1409 -0.1119
  194loPI   C2B 3102  17.979  17.328  10.179 -0.1008 -0.1821 -0.1305
  194loPI   C3B 3103  17.900  17.312   9.766  0.1584  0.3008  0.2990
  194loPI   C4B 3104  17.971  17.215   9.295  0.2802  0.0383 -0.1790
  195loPI    C1 3105  15.881  14.240  11.748  0.3197  0.0486 -0.2518
  195loPI    C2 3106  16.121  14.454  11.987  0.0658  0.0705 -0.0113
  195loPI    C3 3107  16.045  14.071  12.072  0.1404  0.0181 -0.1761
  195loPI   PO4 3108  16.002  14.274  11.489  0.2323 -0.0742  0.2167
  195loPI   GL1 3109  16.335  14.212  11.187  0.3122 -0.0360  0.0123
  195loPI   GL2 3110  16.373  13.912  11.111  0.0518  0.3128  0.2239
  195loPI   C1A 3111  16.282  14.430  10.795  0.2233 -0.1868  0.1049
  195loPI   C2A 3112  16.266  14.341  10.402  0.0404 -0.0110 -0.1128
  195loPI   C3A 3113  16.282  14.337   9.988 -0.0615 -0.3041 -0.3964
  195loPI   C4A 3114  16.345  14.206   9.532  0.1763 -0.0024  0.2509
  195loPI   C5A 3115  16.422  14.301   9.159 -0.0567  0.0169 -0.0050
  195loPI   C6A 3116  16.642  14.284   8.822 -0.4267  0.1728 -0.3834
  195loPI   C1B 3117  16.502  13.964  10.643 -0.1656  0.1920 -0.1020
  195loPI   C2B 3118  16.449  13.918  10.190  0.3758 -0.1387 -0.0839
  195loPI   C3B 3119  16.529  13.779   9.809  0.2377 -0.1383  0.1539
  195loPI   C4B 3120  16.611  13.812   9.401  0.0250 -0.1457 -0.2579
  196loPI    C1 3121   0.579   6.440  11.781  0.0273  0.0952 -0.1611
  196loPI    C2 3122   0.487   6.809  11.907 -0.2110 -0.0048 -0.0352
  196loPI    C3 3123   0.675   6.554  12.152 -0.2429 -0.0396 -0.0469
  196loPI   PO4 3124   0.723   6.461  11.616  0.0149 -0.1292 -0.0459
  196loPI   GL1 3125   0.781   6.527  11.181  0.1581 -0.0999 -0.1066
  196loPI   GL2 3126   0.488   6.378  11.081 -0.1556 -0.2420  0.1578
  196loPI   C1A 3127   0.884   6.274  10.860 -0.0244  0.1664  0.1937
  196loPI   C2A 3128   0.735   6.347  10.456  0.1908  0.0179 -0.3028
  196loPI   C3A 3129   0.809   6.379  10.075 -0.0755 -0.0673  0.0385
  196loPI   C4A 3130   0.778   6.368   9.618  0.3323  0.2415  0.1400
  196loPI   C5A 3131   0.733   6.378   9.160  0.0371  0.2474  0.4806
  196loPI   C6A 3132   0.434   6.156   8.839  0.0526 -0.0311 -0.0315
  196loPI   C1B 3133   0.274   6.292  10.646  0.1172 -0.0376 -0.2159
  196loPI   C2B 3134   0.267   6.408  10.239  0.0088  0.0798 -0.4364
  196loPI   C3B 3135   0.274   6.405   9.814  0.0803  0.2311 -0.4231
  196loPI   C4B 3136   0.274   6.382   9.409  0.4054  0.2750 -0.2734
  197loPI    C1 3137   8.098  16.427  11.374 -0.1037  0.2029  0.0714
  197loPI    C2 3138   7.987  16.109  11.589  0.0507 -0.0024 -0.1479
  197loPI    C3 3139   8.178  16.412  11.766 -0.2383  0.0430  0.0936
  197loPI   PO4 3140   8.182  16.350  11.173 -0.0284 -0.2645 -0.1247
  197loPI   GL1 3141   8.429  16.252  10.778  0.1209  0.2714  0.1450
  197loPI   GL2 3142   8.214  16.085  10.739 -0.3243 -0.2143  0.0360
  197loPI   C1A 3143   8.685  16.539  10.479  0.2850  0.1907  0.0166
  197loPI   C2A 3144   8.647  16.672  10.051 -0.3013 -0.0552  0.1944
  197loPI   C3A 3145   8.594  16.597   9.575  0.0008 -0.0267  0.0693
  197loPI   C4A 3146   8.574  16.741   9.167 -0.0938  0.0635 -0.1854
  197loPI   C5A 3147   8.664  16.822   8.761  0.1945  0.1646 -0.1066
  197loPI   C6A 3148   8.988  16.813   8.503  0.0582 -0.2420  0.0277
  197loPI   C1B 3149   8.377  16.257  10.251  0.4884  0.2817 -0.0534
  197loPI   C2B 3150   8.349  16.237   9.783 -0.1293 -0.1439 -0.0235
  197loPI   C3B 3151   8.275  16.258   9.254  0.2877  0.4719  0.0010
  197loPI   C4B 3152   8.346  16.438   8.822  0.3591 -0.1055 -0.0482
  198loPI    C1 3153   9.942  15.723  11.129  0.1346 -0.0503 -0.0086
  198loPI    C2 3154  10.009  15.695  11.522  0.1201  0.1160  0.0063
  198loPI    C3 3155   9.725  15.471  11.352  0.0561  0.1192  0.1084
  198loPI   PO4 3156  10.109  15.701  11.005 -0.1550  0.1886 -0.0666
  198loPI   GL1 3157  10.137  15.787  10.681  0.0110  0.2661 -0.1540
  198loPI   GL2 3158  10.492  15.867  10.523 -0.0410  0.1923 -0.3312
  198loPI   C1A 3159  10.082  15.590  10.380 -0.0816 -0.1027  0.3975
  198loPI   C2A 3160  10.072  15.519   9.927 -0.0172 -0.1477  0.1022
  198loPI   C3A 3161  10.052  15.549   9.396 -0.1624 -0.0307  0.0333
  198loPI   C4A 3162  10.141  15.911   9.009  0.0849  0.1231  0.1165
  198loPI   C5A 3163  10.353  16.146   8.685  0.1025  0.1308  0.1903
  198loPI   C6A 3164  10.750  16.405   8.489 -0.0119 -0.0578 -0.1348
  198loPI   C1B 3165  10.558  15.547  10.130 -0.0533 -0.1382  0.1003
  198loPI   C2B 3166  10.888  15.614   9.776 -0.4401 -0.0957 -0.1416
  198loPI   C3B 3167  10.979  15.981   9.552 -0.0310 -0.1510  0.0072
  198loPI   C4B 3168  10.967  16.341   9.341  0.1166  0.0943  0.1272
  199loPI    C1 3169   5.485   6.049  11.666  0.1062 -0.3246 -0.3621
  199loPI    C2 3170   5.782   5.889  11.882  0.0532 -0.1518 -0.1570
  199loPI    C3 3171   5.419   5.934  12.044  0.0304  0.0427 -0.2595
  199loPI   PO4 3172   5.497   5.936  11.476  0.3613  0.2233 -0.0505
  199loPI   GL1 3173   5.466   5.981  11.077  0.1595 -0.0840 -0.1865
  199loPI   GL2 3174   5.739   6.085  10.811  0.0374 -0.1459  0.0145
  199loPI   C1A 3175   5.289   6.074  10.740 -0.0473  0.1023 -0.1699
  199loPI   C2A 3176   5.224   6.182  10.267 -0.0301 -0.2186 -0.1988
  199loPI   C3A 3177   5.254   6.133   9.860 -0.0489  0.0316  0.1054
  199loPI   C4A 3178   5.138   6.159   9.466  0.0032  0.1231  0.2321
  199loPI   C5A 3179   5.197   6.154   9.071  0.0978 -0.0114  0.2227
  199loPI   C6A 3180   5.357   6.404   8.723  0.1541  0.1511 -0.4123
  199loPI   C1B 3181   5.671   6.002  10.402 -0.0164  0.0746  0.0686
  199loPI   C2B 3182   5.694   6.148   9.967  0.4238  0.2597 -0.0487
  199loPI   C3B 3183   5.673   6.115   9.618 -0.1208 -0.0109  0.1660
  199loPI   C4B 3184   5.711   6.101   9.172  0.1138 -0.1489 -0.0522
  200loPI    C1 3185  11.688   4.362  11.486  0.0206  0.0412  0.0845
  200loPI    C2 3186  11.515   4.662  11.686 -0.0841 -0.0980  0.2048
  200loPI    C3 3187  11.379   4.288  11.729 -0.0238 -0.1482 -0.0274
  200loPI   PO4 3188  11.641   4.380  11.266 -0.1809 -0.0757 -0.2198
  200loPI   GL1 3189  11.702   4.154  10.892 -0.0272  0.1407 -0.1002
  200loPI   GL2 3190  11.393   4.028  10.936 -0.0541  0.0504  0.0549
  200loPI   C1A 3191  11.838   4.029  10.407 -0.3285 -0.2382 -0.4780
  200loPI   C2A 3192  11.844   3.956   9.923 -0.0180  0.0232 -0.1049
  200loPI   C3A 3193  11.806   3.967   9.490 -0.1593 -0.1421 -0.0536
  200loPI   C4A 3194  11.825   3.970   9.000 -0.1434  0.0235 -0.3021
  200loPI   C5A 3195  11.919   4.205   8.578 -0.4338  0.1826 -0.2399
  200loPI   C6A 3196  12.395   4.288   8.509  0.1295 -0.2155  0.3614
  200loPI   C1B 3197  11.283   4.080  10.493 -0.5771  0.0220 -0.1556
  200loPI   C2B 3198  11.343   3.988  10.064 -0.5021 -0.2574 -0.0744
  200loPI   C3B 3199  11.325   4.064   9.757 -0.2265 -0.2272 -0.1511
  200loPI   C4B 3200  11.343   3.960   9.323  0.3553  0.1584 -0.0798
  201loPI    C1 3201  11.673  16.030  11.497 -0.1656 -0.2826 -0.1527
  201loPI    C2 3202  11.689  15.803  11.826 -0.1112 -0.0229  0.0270
  201loPI    C3 3203  11.358  16.012  11.743 -0.1871 -0.2206 -0.1756
  201loPI   PO4 3204  11.761  15.908  11.306 -0.0675 -0.0744 -0.3526
  201loPI   GL1 3205  11.990  15.914  10.848 -0.3941 -0.3962  0.0523
  201loPI   GL2 3206  11.936  16.151  10.812 -0.1848 -0.2989  0.0047
  201loPI   C1A 3207  12.300  15.852  10.487 -0.1890  0.0273  0.0712
  201loPI   C2A 3208  12.291  15.772  10.080  0.1074 -0.0057 -0.0910
  201loPI   C3A 3209  12.357  15.642   9.650  0.2119  0.4016 -0.0441
  201loPI   C4A 3210  12.258  15.609   9.253  0.0390 -0.0347  0.1710
  201loPI   C5A 3211  12.064  15.737   8.842  0.0109  0.0088 -0.0288
  201loPI   C6A 3212  11.599  15.921   8.815  0.2032  0.0499  0.1079
  201loPI   C1B 3213  12.083  16.316  10.412  0.1574  0.1278  0.0303
  201loPI   C2B 3214  12.071  16.286  10.009  0.0427  0.0859  0.1200
  201loPI   C3B 3215  12.103  16.192   9.523 -0.1405 -0.1142 -0.1113
  201loPI   C4B 3216  11.932  16.063   9.181  0.0705 -0.1291 -0.1756
  202loPI    C1 3217  10.350   8.822  11.671 -0.0233 -0.0532  0.0621
  202loPI    C2 3218  10.564   8.957  11.981 -0.0519  0.1405 -0.0014
  202loPI    C3 3219  10.555   8.565  11.900  0.2174  0.1221  0.0469
  202loPI   PO4 3220  10.443   8.933  11.399  0.3732  0.0848 -0.0746
  202loPI   GL1 3221  10.260   8.896  11.056 -0.2084 -0.1597  0.2562
  202loPI   GL2 3222  10.487   8.578  11.048 -0.1302 -0.1473 -0.2607
  202loPI   C1A 3223  10.237   9.159  10.773  0.2803 -0.2916 -0.0653
  202loPI   C2A 3224  10.217   9.167  10.330 -0.0493 -0.0871  0.1677
  202loPI   C3A 3225  10.236   9.127   9.998  0.0326 -0.2398  0.0510
  202loPI   C4A 3226  10.174   9.125   9.549 -0.0907 -0.2199  0.1799
  202loPI   C5A 3227  10.317   9.146   9.110  0.3049 -0.0370  0.0456
  202loPI   C6A 3228  10.781   9.103   9.052  0.0013  0.0594  0.2194
  202loPI   C1B 3229  10.454   8.594  10.655 -0.3854 -0.0684  0.1299
  202loPI   C2B 3230  10.467   8.668  10.169  0.2132  0.1298 -0.0394
  202loPI   C3B 3231  10.390   8.649   9.722 -0.2691 -0.2257 -0.1072
  202loPI   C4B 3232  10.373   8.654   9.296  0.0207  0.0190  0.1027
  203loPI    C1 3233   1.203  10.927  11.591 -0.3789 -0.0887 -0.0004
  203loPI    C2 3234   0.895  11.126  11.751 -0.3023 -0.2332  0.3340
  203loPI    C3 3235   1.211  11.030  11.977  0.0459  0.0185 -0.0335
  203loPI   PO4 3236   1.169  11.076  11.271  0.2060 -0.1347  0.4109
  203loPI   GL1 3237   1.138  11.074  10.803  0.0133  0.1712  0.3670
  203loPI   GL2 3238   0.849  10.815  10.771  0.1353  0.3323  0.0571
  203loPI   C1A 3239   1.238  11.202  10.373  0.1563 -0.0001  0.3252
  203loPI   C2A 3240   1.304  11.185   9.953  0.0666  0.3014  0.3646
  203loPI   C3A 3241   1.329  11.122   9.501  0.0440  0.0361  0.1461
  203loPI   C4A 3242   1.175  11.205   9.114  0.3238 -0.0751 -0.0565
  203loPI   C5A 3243   0.760  11.180   8.767  0.2975 -0.0148  0.2980
  203loPI   C6A 3244   0.406  11.293   8.511 -0.2361  0.1779  0.1188
  203loPI   C1B 3245   0.895  10.758  10.374 -0.1503  0.1076  0.0881
  203loPI   C2B 3246   0.973  10.820   9.924  0.0355  0.0400 -0.1233
  203loPI   C3B 3247   0.926  10.841   9.527  0.3063 -0.1712 -0.1284
  203loPI   C4B 3248   0.816  10.819   9.059  0.0505 -0.0280  0.0755
  204loPI    C1 3249   0.446   2.318  11.503  0.0738 -0.1785  0.2467
  204loPI    C2 3250   0.844   2.326  11.544  0.0878 -0.1954  0.1164
  204loPI    C3 3251   0.609   2.361  11.866  0.1915  0.0990  0.1628
  204loPI   PO4 3252   0.456   2.588  11.317  0.0883 -0.0598 -0.2082
  204loPI   GL1 3253   0.383   2.831  11.004  0.0851 -0.1305  0.0961
  204loPI   GL2 3254   0.687   2.998  10.897  0.2281 -0.0461 -0.2338
  204loPI   C1A 3255   0.411   2.634  10.662 -0.2938 -0.1798 -0.1774
  204loPI   C2A 3256   0.409   2.805  10.234  0.2132 -0.2835 -0.1157
  204loPI   C3A 3257   0.341   2.704   9.863 -0.2811 -0.3238 -0.0602
  204loPI   C4A 3258   0.349   2.614   9.433 -0.0553  0.0899  0.3240
  204loPI   C5A 3259   0.404   2.548   9.050 -0.2924  0.1898 -0.0511
  204loPI   C6A 3260   0.709   2.526   8.659  0.3314  0.1308 -0.0975
  204loPI   C1B 3261   0.703   3.179  10.468 -0.1311  0.1985 -0.2129
  204loPI   C2B 3262   0.635   3.231  10.074  0.0042 -0.1842 -0.1463
  204loPI   C3B 3263   0.765   3.101   9.654  0.3963 -0.3367  0.2661
  204loPI   C4B 3264   0.690   2.946   9.296 -0.1031  0.1747  0.0875
  205loPI    C1 3265  15.096  15.825  11.426 -0.2484  0.4156 -0.2444
  205loPI    C2 3266  14.844  15.885  11.731 -0.1112 -0.3306  0.0377
  205loPI    C3 3267  15.239  15.911  11.790 -0.0949  0.1730 -0.2444
  205loPI   PO4 3268  14.945  15.837  11.260 -0.2174  0.1334 -0.1661
  205loPI   GL1 3269  14.691  15.744  10.877  0.2171  0.0346  0.0553
  205loPI   GL2 3270  14.624  16.021  10.860  0.1680  0.0798 -0.1398
  205loPI   C1A 3271  14.872  15.538  10.644 -0.1115 -0.2267 -0.0134
  205loPI   C2A 3272  14.887  15.450  10.314 -0.0570 -0.1055 -0.1792
  205loPI   C3A 3273  14.918  15.473   9.927  0.3730 -0.3112 -0.1938
  205loPI   C4A 3274  14.902  15.321   9.604 -0.0237  0.0846  0.1378
  205loPI   C5A 3275  14.921  15.279   9.151 -0.0473 -0.3631 -0.0593
  205loPI   C6A 3276  14.874  15.104   8.813 -0.1621  0.3066  0.0330
  205loPI   C1B 3277  14.615  15.946  10.393  0.1358 -0.0834 -0.0814
  205loPI   C2B 3278  14.693  15.943   9.992 -0.1849  0.0458 -0.2322
  205loPI   C3B 3279  14.681  15.790   9.556 -0.0084 -0.0039 -0.1077
  205loPI   C4B 3280  14.748  15.727   9.113  0.1254 -0.1883 -0.1115
  206loPI    C1 3281   7.732   7.579  11.795  0.1636 -0.3674  0.3220
  206loPI    C2 3282   7.372   7.408  11.762  0.0833 -0.1744  0.1802
  206loPI    C3 3283   7.421   7.727  11.999  0.0284  0.1468 -0.2296
  206loPI   PO4 3284   7.747   7.573  11.450  0.1715  0.2175  0.0530
  206loPI   GL1 3285   7.804   7.622  11.042  0.1471  0.0462 -0.1420
  206loPI   GL2 3286   7.977   7.449  11.016 -0.1692  0.1132  0.0434
  206loPI   C1A 3287   7.515   7.553  10.661  0.0449 -0.0560  0.3255
  206loPI   C2A 3288   7.437   7.599  10.235  0.0500  0.1104 -0.0746
  206loPI   C3A 3289   7.415   7.628   9.841 -0.2216  0.1995  0.1680
  206loPI   C4A 3290   7.386   7.725   9.452  0.1613 -0.1305  0.2146
  206loPI   C5A 3291   7.419   7.728   9.052 -0.0906 -0.1121 -0.0858
  206loPI   C6A 3292   7.498   8.128   8.845  0.2320 -0.0459  0.0003
  206loPI   C1B 3293   8.024   7.538  10.639  0.2306  0.1530 -0.1992
  206loPI   C2B 3294   7.962   7.562  10.279 -0.2892 -0.2798 -0.1454
  206loPI   C3B 3295   7.951   7.584   9.795  0.0027  0.1676  0.0499
  206loPI   C4B 3296   7.938   7.651   9.351 -0.3861 -0.0250  0.1213
  207loPI    C1 3297  14.187  13.358  11.561  0.2030  0.2129  0.2826
  207loPI    C2 3298  14.138  13.267  11.948  0.0596 -0.0864  0.1968
  207loPI    C3 3299  13.819  13.305  11.709  0.1575 -0.1151  0.0606
  207loPI   PO4 3300  14.431  13.175  11.387 -0.2471 -0.3850  0.0201
  207loPI   GL1 3301  14.570  13.203  10.981 -0.0822  0.1031  0.2402
  207loPI   GL2 3302  14.518  12.873  10.925 -0.2492  0.0982  0.2962
  207loPI   C1A 3303  14.791  13.168  10.650  0.3116 -0.1159  0.2621
  207loPI   C2A 3304  14.901  13.127  10.209 -0.2161  0.1947  0.1600
  207loPI   C3A 3305  14.895  13.144   9.705  0.1887  0.0163  0.1513
  207loPI   C4A 3306  15.005  13.057   9.319 -0.0002  0.2160 -0.1323
  207loPI   C5A 3307  15.066  13.026   8.895 -0.1362 -0.1682 -0.2057
  207loPI   C6A 3308  14.815  12.748   8.576  0.2839  0.1863 -0.0904
  207loPI   C1B 3309  14.531  12.783  10.398  0.2339 -0.0056 -0.2011
  207loPI   C2B 3310  14.562  12.669   9.926 -0.0840  0.1458  0.1597
  207loPI   C3B 3311  14.657  12.715   9.538  0.1449 -0.5865 -0.2137
  207loPI   C4B 3312  14.615  12.528   9.090 -0.2544 -0.2464  0.0756
  208loPI    C1 3313  16.919   5.011  11.481 -0.0710 -0.0191  0.2645
  208loPI    C2 3314  16.935   5.299  11.758 -0.0907  0.1344  0.1081
  208loPI    C3 3315  17.117   4.949  11.822  0.2293  0.3060  0.1553
  208loPI   PO4 3316  16.906   5.187  11.278  0.0317  0.2118  0.0904
  208loPI   GL1 3317  17.040   5.116  10.807 -0.2411 -0.0803 -0.0507
  208loPI   GL2 3318  17.328   5.072  10.912  0.1165  0.0913 -0.0855
  208loPI   C1A 3319  17.068   5.140  10.390  0.0008 -0.2470  0.0960
  208loPI   C2A 3320  17.112   5.084   9.973 -0.0582 -0.1311 -0.1579
  208loPI   C3A 3321  17.056   5.076   9.571 -0.1718 -0.0212  0.1617
  208loPI   C4A 3322  17.176   5.135   9.182  0.0918 -0.2678 -0.1668
  208loPI   C5A 3323  17.537   5.182   8.849  0.3076  0.0912 -0.0253
  208loPI   C6A 3324  17.742   4.841   8.503  0.1352 -0.0758 -0.1187
  208loPI   C1B 3325  17.542   5.127  10.547 -0.0701 -0.3810 -0.3027
  208loPI   C2B 3326  17.590   5.149  10.112 -0.1349  0.2326  0.2912
  208loPI   C3B 3327  17.579   4.992   9.715  0.0436  0.1307 -0.1047
  208loPI   C4B 3328  17.694   5.039   9.282  0.0775 -0.0094 -0.0621
  209loPI    C1 3329   2.568   2.749  11.682 -0.0462  0.1003  0.0371
  209loPI    C2 3330   2.424   2.982  11.974 -0.0396 -0.0247  0.1408
  209loPI    C3 3331   2.738   2.744  12.044  0.0331  0.0284 -0.0008
  209loPI   PO4 3332   2.619   2.906  11.350 -0.1169 -0.0409 -0.2179
  209loPI   GL1 3333   2.570   2.722  11.064 -0.5811  0.0657 -0.1481
  209loPI   GL2 3334   2.311   2.508  11.172 -0.2080 -0.0638  0.4722
  209loPI   C1A 3335   2.683   2.665  10.691  0.2182 -0.0001  0.1375
  209loPI   C2A 3336   2.758   2.833  10.269 -0.0353  0.1633 -0.0086
  209loPI   C3A 3337   2.737   2.899   9.821 -0.0004  0.4122  0.0369
  209loPI   C4A 3338   2.611   2.839   9.371  0.2155  0.0237 -0.1158
  209loPI   C5A 3339   2.215   2.980   9.128  0.3041 -0.4546  0.1382
  209loPI   C6A 3340   1.964   3.306   8.883  0.1328  0.0886  0.1157
  209loPI   C1B 3341   2.321   2.322  10.752 -0.1144  0.1047  0.2026
  209loPI   C2B 3342   2.437   2.379  10.396 -0.2023 -0.1311 -0.2260
  209loPI   C3B 3343   2.468   2.538  10.025  0.0968  0.1536  0.0736
  209loPI   C4B 3344   2.414   2.417   9.576  0.2316  0.1292  0.0928
  210loPI    C1 3345   4.612   6.065  11.940 -0.2407 -0.1128  0.0349
  210loPI    C2 3346   4.636   5.741  12.174  0.0551  0.0507  0.2373
  210loPI    C3 3347   4.921   6.022  12.191  0.0571  0.0898 -0.2874
  210loPI   PO4 3348   4.598   5.992  11.594  0.0318  0.2782 -0.3985
  210loPI   GL1 3349   4.476   6.155  11.188  0.3026 -0.1741 -0.2749
  210loPI   GL2 3350   4.432   5.898  10.978 -0.0907  0.0978 -0.1043
  210loPI   C1A 3351   4.750   6.225  10.779 -0.3241 -0.1219  0.1691
  210loPI   C2A 3352   4.721   6.208  10.260  0.1643  0.1931  0.0545
  210loPI   C3A 3353   4.752   6.152   9.885  0.3508 -0.0435 -0.1287
  210loPI   C4A 3354   4.588   6.191   9.457  0.1801  0.1171  0.0791
  210loPI   C5A 3355   4.666   6.224   9.010 -0.4060 -0.2861 -0.2034
  210loPI   C6A 3356   4.853   6.229   8.564 -0.2109 -0.0289 -0.1296
  210loPI   C1B 3357   4.422   5.818  10.494 -0.1655  0.1077  0.4552
  210loPI   C2B 3358   4.409   5.771  10.080  0.1476 -0.0773 -0.0876
  210loPI   C3B 3359   4.306   5.777   9.658 -0.0399 -0.2798 -0.1819
  210loPI   C4B 3360   4.346   5.844   9.215  0.1108  0.0171  0.1879
  211loPI    C1 3361  13.154   2.692  11.609 -0.0397  0.1075  0.1591
  211loPI    C2 3362  12.801   2.769  11.782 -0.0718  0.0271  0.1301
  211loPI    C3 3363  13.125   2.704  12.007 -0.0642  0.1521  0.1561
  211loPI   PO4 3364  13.115   2.578  11.385  0.4033  0.0181 -0.1214
  211loPI   GL1 3365  12.901   2.503  10.959  0.0012 -0.1853 -0.3499
  211loPI   GL2 3366  12.792   2.834  10.848 -0.0966 -0.0884 -0.1267
  211loPI   C1A 3367  12.906   2.444  10.491  0.1815 -0.1986  0.1281
  211loPI   C2A 3368  12.848   2.516  10.016 -0.1004 -0.2757 -0.1599
  211loPI   C3A 3369  12.923   2.484   9.622  0.1133  0.3765  0.1519
  211loPI   C4A 3370  12.942   2.417   9.180 -0.1010 -0.2158  0.1331
  211loPI   C5A 3371  12.668   2.273   8.868 -0.0557 -0.1151  0.0865
  211loPI   C6A 3372  12.679   1.976   8.607  0.1350  0.1700 -0.0304
  211loPI   C1B 3373  12.760   2.921  10.406  0.1067  0.0579  0.2526
  211loPI   C2B 3374  12.668   2.980   9.996 -0.1465  0.1995 -0.1298
  211loPI   C3B 3375  12.701   3.030   9.519 -0.0335  0.0211  0.1110
  211loPI   C4B 3376  12.731   2.865   9.182 -0.1456  0.0669 -0.0240
  212loPI    C1 3377  13.393   2.232  11.694 -0.3513  0.2358  0.2295
  212loPI    C2 3378  13.413   2.067  12.057  0.0865 -0.1151  0.0553
  212loPI    C3 3379  13.592   2.418  11.987  0.1019 -0.1040  0.1489
  212loPI   PO4 3380  13.312   2.118  11.556 -0.0600  0.0288 -0.1863
  212loPI   GL1 3381  13.382   2.196  11.135 -0.1948  0.4517 -0.2967
  212loPI   GL2 3382  13.013   2.092  11.152 -0.0088 -0.1678  0.2752
  212loPI   C1A 3383  13.423   2.382  10.768 -0.0496  0.0504  0.0439
  212loPI   C2A 3384  13.364   2.431  10.366 -0.1882  0.0785  0.0943
  212loPI   C3A 3385  13.341   2.444   9.985 -0.0599  0.2453  0.2435
  212loPI   C4A 3386  13.381   2.343   9.447 -0.1119  0.0612  0.0210
  212loPI   C5A 3387  13.445   2.237   9.089 -0.0532 -0.0244  0.1925
  212loPI   C6A 3388  13.147   2.308   8.724  0.0810  0.0506 -0.3857
  212loPI   C1B 3389  13.089   1.923  10.786  0.4849 -0.1187 -0.2519
  212loPI   C2B 3390  13.109   2.000  10.372  0.2984  0.3627  0.1968
  212loPI   C3B 3391  13.082   2.026   9.971 -0.0983 -0.0844  0.1247
  212loPI   C4B 3392  13.033   1.987   9.629 -0.0464  0.1942  0.3185
  213loPI    C1 3393   1.241  13.093  11.711 -0.0199 -0.1345  0.0515
  213loPI    C2 3394   1.227  13.077  12.110  0.1204 -0.1025  0.0585
  213loPI    C3 3395   1.458  12.821  11.908  0.0340 -0.1320 -0.0040
  213loPI   PO4 3396   1.007  13.144  11.643 -0.0901  0.0672 -0.0345
  213loPI   GL1 3397   0.843  13.183  11.373  0.1905 -0.0864  0.1945
  213loPI   GL2 3398   0.590  13.064  11.215  0.2363 -0.0629  0.0626
  213loPI   C1A 3399   0.889  13.145  10.905 -0.0790  0.0471 -0.0199
  213loPI   C2A 3400   0.907  13.063  10.509  0.0846  0.0205 -0.0743
  213loPI   C3A 3401   0.983  13.035  10.108  0.1676 -0.1127 -0.2261
  213loPI   C4A 3402   0.934  13.040   9.641 -0.2453 -0.2095 -0.0238
  213loPI   C5A 3403   0.966  13.013   9.307 -0.0909  0.0963  0.2128
  213loPI   C6A 3404   0.618  13.067   9.028  0.0569  0.2369  0.0542
  213loPI   C1B 3405   0.434  13.205  10.760  0.0482 -0.1587  0.2187
  213loPI   C2B 3406   0.468  13.205  10.359 -0.0690  0.2098 -0.1610
  213loPI   C3B 3407   0.478  13.102   9.966  0.0451  0.0312 -0.1321
  213loPI   C4B 3408   0.415  13.039   9.447  0.0838  0.1992  0.0733
  214loPI    C1 3409   9.759  13.542  11.326  0.1110 -0.0465 -0.1349
  214loPI    C2 3410  10.105  13.485  11.520 -0.0786 -0.2935  0.1390
  214loPI    C3 3411   9.814  13.702  11.688  0.0103  0.0805 -0.1751
  214loPI   PO4 3412   9.832  13.698  11.135  0.1068  0.0015 -0.2369
  214loPI   GL1 3413   9.957  13.887  10.808  0.2071 -0.1296 -0.3600
  214loPI   GL2 3414  10.123  14.029  10.587 -0.1105 -0.1883 -0.0441
  214loPI   C1A 3415   9.881  13.663  10.402  0.1502  0.0966  0.1286
  214loPI   C2A 3416   9.818  13.740   9.966 -0.2925 -0.0192 -0.2516
  214loPI   C3A 3417   9.853  13.684   9.621 -0.2630 -0.1665  0.0069
  214loPI   C4A 3418   9.773  13.749   9.192  0.2005 -0.4023 -0.2413
  214loPI   C5A 3419   9.534  13.974   8.843  0.3318  0.1254 -0.2091
  214loPI   C6A 3420   9.666  14.135   8.450  0.1409  0.0562  0.0166
  214loPI   C1B 3421  10.345  14.165  10.275  0.0926  0.0258 -0.0564
  214loPI   C2B 3422  10.668  14.005   9.964  0.3987  0.1415  0.2124
  214loPI   C3B 3423  10.816  13.590  10.013  0.1937 -0.0126 -0.3094
  214loPI   C4B 3424  11.003  13.157  10.076  0.1299  0.3047  0.0338
  215loPI    C1 3425   5.099  14.156  11.705  0.0530  0.1438  0.2508
  215loPI    C2 3426   4.775  14.158  11.940  0.0690  0.1157  0.2731
  215loPI    C3 3427   5.100  13.950  12.048 -0.0665 -0.2310  0.0323
  215loPI   PO4 3428   5.034  14.104  11.431  0.1031  0.0089 -0.1635
  215loPI   GL1 3429   5.246  14.238  11.088 -0.1455  0.1241 -0.0909
  215loPI   GL2 3430   5.323  13.955  10.953  0.2359 -0.1051  0.1909
  215loPI   C1A 3431   5.197  14.344  10.666 -0.1213 -0.1684 -0.0767
  215loPI   C2A 3432   5.173  14.327  10.151  0.0828 -0.2140 -0.1104
  215loPI   C3A 3433   5.228  14.265   9.743  0.1625  0.1387 -0.2476
  215loPI   C4A 3434   5.244  14.262   9.250 -0.0759  0.0124  0.1648
  215loPI   C5A 3435   5.154  14.050   8.903  0.1339 -0.0470 -0.2425
  215loPI   C6A 3436   4.741  13.906   8.805  0.3608  0.0258  0.1055
  215loPI   C1B 3437   5.348  13.846  10.507  0.3745  0.2899  0.0123
  215loPI   C2B 3438   5.428  13.918  10.198 -0.0805  0.3333 -0.1904
  215loPI   C3B 3439   5.478  13.879   9.712  0.3524  0.2460 -0.0519
  215loPI   C4B 3440   5.433  13.840   9.248  0.0057  0.0068  0.1407
  216loPI    C1 3441  17.512   2.609  11.711 -0.0622 -0.2111  0.0964
  216loPI    C2 3442  17.908   2.637  11.759 -0.0610 -0.0203 -0.0137
  216loPI    C3 3443  17.665   2.680  12.073  0.0028 -0.0824  0.0445
  216loPI   PO4 3444  17.572   2.457  11.420  0.0491 -0.0095 -0.1576
  216loPI   GL1 3445  17.729   2.544  10.994 -0.0448  0.0213  0.1145
  216loPI   GL2 3446  17.608   2.946  10.964 -0.2031 -0.0273  0.1924
  216loPI   C1A 3447  17.823   2.265  10.684 -0.2317  0.4065  0.1048
  216loPI   C2A 3448  17.851   2.395  10.236  0.1625  0.0661 -0.3321
  216loPI   C3A 3449  17.824   2.286   9.884 -0.2477  0.1415 -0.1239
  216loPI   C4A 3450  17.785   2.165   9.484 -0.2287  0.2782  0.0858
  216loPI   C5A 3451  17.792   2.178   9.012 -0.0611 -0.1326 -0.0775
  216loPI   C6A 3452  17.664   2.249   8.691  0.1370  0.3223 -0.0309
  216loPI   C1B 3453  17.562   2.751  10.561 -0.1094 -0.1112 -0.1729
  216loPI   C2B 3454  17.588   2.877  10.119 -0.2478 -0.0794  0.3392
  216loPI   C3B 3455  17.628   2.762   9.702  0.1326  0.0862 -0.0869
  216loPI   C4B 3456  17.634   2.753   9.291  0.0862  0.0327  0.1212
  217loPI    C1 3457  14.343   2.097  11.491  0.2351  0.0703  0.1575
  217loPI    C2 3458  14.141   2.424  11.603  0.0324  0.0139 -0.0366
  217loPI    C3 3459  14.248   2.152  11.876  0.0410  0.1518  0.0990
  217loPI   PO4 3460  14.500   2.191  11.230  0.0658  0.2236 -0.2814
  217loPI   GL1 3461  14.586   2.336  10.811 -0.0805  0.2400 -0.2288
  217loPI   GL2 3462  14.614   2.607  10.949  0.1028 -0.0548  0.2104
  217loPI   C1A 3463  14.478   2.254  10.374 -0.0441 -0.2640 -0.1614
  217loPI   C2A 3464  14.367   2.222   9.964  0.0617 -0.0051  0.1437
  217loPI   C3A 3465  14.473   2.152   9.507  0.1238 -0.2028  0.1437
  217loPI   C4A 3466  14.390   2.017   9.093 -0.2552 -0.1985 -0.0042
  217loPI   C5A 3467  14.580   1.716   8.698 -0.2073  0.0143 -0.3218
  217loPI   C6A 3468  14.898   1.589   8.417 -0.3310 -0.2958 -0.0364
  217loPI   C1B 3469  14.712   2.715  10.475 -0.0928 -0.0646  0.0951
  217loPI   C2B 3470  14.715   2.596  10.043  0.0245 -0.1871  0.1849
  217loPI   C3B 3471  14.733   2.596   9.582  0.1842 -0.0971  0.1549
  217loPI   C4B 3472  14.713   2.531   9.183  0.1331 -0.0993  0.0551
  218loPI    C1 3473  12.484   3.819  11.680  0.0224 -0.0151  0.0618
  218loPI    C2 3474  12.267   3.589  11.925 -0.0560  0.2661  0.2614
  218loPI    C3 3475  12.623   3.728  12.044 -0.0147  0.2592  0.1472
  218loPI   PO4 3476  12.439   3.724  11.411 -0.0676 -0.1119 -0.2815
  218loPI   GL1 3477  12.342   3.694  11.010 -0.0092 -0.0321 -0.1041
  218loPI   GL2 3478  12.048   3.744  10.891  0.0099  0.0995 -0.1735
  218loPI   C1A 3479  12.500   3.381  10.687 -0.2922 -0.0984  0.3816
  218loPI   C2A 3480  12.555   3.400  10.231  0.0327 -0.0206 -0.0488
  218loPI   C3A 3481  12.554   3.461   9.767  0.1477  0.0720 -0.1736
  218loPI   C4A 3482  12.477   3.522   9.400 -0.2639  0.0400  0.0352
  218loPI   C5A 3483  12.518   3.564   8.945  0.3970  0.1073 -0.2158
  218loPI   C6A 3484  12.456   3.266   8.561 -0.0102  0.2505 -0.0680
  218loPI   C1B 3485  12.345   3.819  10.539  0.0482 -0.2207 -0.2329
  218loPI   C2B 3486  12.345   3.863  10.006 -0.2245  0.3932 -0.1066
  218loPI   C3B 3487  12.334   3.900   9.612  0.1556 -0.1475 -0.2023
  218loPI   C4B 3488  12.265   3.945   9.188 -0.2545  0.1531  0.1584
  219loPI    C1 3489   7.546  15.446  11.515  0.2736  0.0191 -0.1357
  219loPI    C2 3490   7.468  15.839  11.517  0.2616  0.0177 -0.2519
  219loPI    C3 3491   7.709  15.681  11.794  0.0630  0.0652 -0.0496
  219loPI   PO4 3492   7.476  15.427  11.292  0.3112 -0.0898 -0.3263
  219loPI   GL1 3493   7.162  15.640  11.029 -0.1104  0.0048 -0.1400
  219loPI   GL2 3494   6.988  15.923  10.909  0.5334  0.3128  0.0373
  219loPI   C1A 3495   7.479  15.790  10.724  0.1549  0.0830 -0.1592
  219loPI   C2A 3496   7.518  15.825  10.296  0.0977  0.0947  0.0316
  219loPI   C3A 3497   7.515  15.783   9.855 -0.1250 -0.0611 -0.0133
  219loPI   C4A 3498   7.478  15.857   9.401 -0.0236  0.1000  0.2467
  219loPI   C5A 3499   7.408  15.894   8.876  0.0216  0.1433  0.0778
  219loPI   C6A 3500   7.448  15.869   8.473  0.3097  0.0763 -0.1022
  219loPI   C1B 3501   7.051  15.858  10.475 -0.1148 -0.1784 -0.0092
  219loPI   C2B 3502   6.999  15.830  10.001  0.0926 -0.1480  0.3027
  219loPI   C3B 3503   7.032  15.886   9.556  0.1875  0.1368  0.0127
  219loPI   C4B 3504   6.975  16.082   9.213  0.0098  0.0639 -0.1887
  220loPI    C1 3505   8.488  16.795  11.409 -0.1882  0.0495 -0.1502
  220loPI    C2 3506   8.222  16.972  11.650 -0.1889 -0.0712 -0.0612
  220loPI    C3 3507   8.583  16.871  11.791 -0.1754 -0.1074 -0.1215
  220loPI   PO4 3508   8.413  16.849  11.213 -0.0449  0.0264 -0.1856
  220loPI   GL1 3509   8.285  16.760  10.869 -0.3129  0.0111  0.0090
  220loPI   GL2 3510   8.366  16.997  10.694  0.2315  0.1471  0.1800
  220loPI   C1A 3511   8.112  16.636  10.458 -0.1204 -0.0122 -0.0031
  220loPI   C2A 3512   8.071  16.713  10.030  0.0063  0.0481 -0.1159
  220loPI   C3A 3513   8.105  16.704   9.526 -0.3608  0.0446 -0.0357
  220loPI   C4A 3514   8.090  16.738   9.125 -0.2872  0.0252 -0.3149
  220loPI   C5A 3515   7.739  16.582   8.738 -0.0527  0.1460 -0.3505
  220loPI   C6A 3516   7.682  16.308   8.295  0.0222  0.2228  0.0522
  220loPI   C1B 3517   8.475  17.033  10.293  0.0905  0.0853  0.0795
  220loPI   C2B 3518   8.352  17.137   9.852 -0.0722  0.2007 -0.1771
  220loPI   C3B 3519   8.356  17.157   9.374 -0.5139  0.0697 -0.0812
  220loPI   C4B 3520   8.329  17.164   9.006  0.1180 -0.1723  0.2446
  221loPI    C1 3521  16.270  12.193  11.517 -0.0713  0.1151 -0.1249
  221loPI    C2 3522  16.250  12.537  11.721  0.1510  0.1363 -0.1358
  221loPI    C3 3523  16.407  12.212  11.893 -0.1533  0.0099 -0.0893
  221loPI   PO4 3524  16.066  12.187  11.416 -0.0347  0.2203  0.1572
  221loPI   GL1 3525  15.949  12.257  10.926  0.1207 -0.0545  0.1984
  221loPI   GL2 3526  16.189  11.996  10.941  0.0530  0.2339 -0.1080
  221loPI   C1A 3527  15.728  12.219  10.579 -0.0765 -0.0349 -0.2220
  221loPI   C2A 3528  15.781  12.125  10.180  0.0301  0.0466  0.0233
  221loPI   C3A 3529  15.741  12.106   9.743 -0.1324  0.1660  0.0871
  221loPI   C4A 3530  15.693  12.095   9.310  0.1727 -0.0604  0.1724
  221loPI   C5A 3531  15.804  11.991   8.938  0.3507 -0.0032  0.0896
  221loPI   C6A 3532  16.070  11.856   8.623 -0.0737  0.0290  0.0001
  221loPI   C1B 3533  16.246  12.114  10.526  0.1172 -0.0709  0.3329
  221loPI   C2B 3534  16.294  12.057  10.050 -0.0060  0.0431  0.0383
  221loPI   C3B 3535  16.296  12.017   9.577  0.2634  0.0553 -0.0773
  221loPI   C4B 3536  16.208  11.905   9.196  0.1895  0.1533 -0.1676
  222loPI    C1 3537   0.438   7.326  11.424  0.0118 -0.2911  0.3400
  222loPI    C2 3538   0.291   7.655  11.599 -0.0883 -0.2599  0.1990
  222loPI    C3 3539   0.397   7.341  11.822 -0.1170 -0.1818  0.3237
  222loPI   PO4 3540   0.499   7.456  11.122 -0.2534 -0.0781 -0.0940
  222loPI   GL1 3541   0.430   7.572  10.810 -0.2107  0.2371  0.2284
  222loPI   GL2 3542   0.150   7.604  10.712 -0.0866  0.0277  0.1314
  222loPI   C1A 3543   0.467   7.270  10.434  0.0787 -0.1358  0.2465
  222loPI   C2A 3544   0.429   7.282  10.084  0.2032 -0.0824 -0.4659
  222loPI   C3A 3545   0.544   7.324   9.725 -0.2982 -0.2189 -0.1252
  222loPI   C4A 3546   0.385   7.356   9.234 -0.0900  0.2880 -0.2201
  222loPI   C5A 3547   0.383   7.306   8.820  0.0974  0.0300  0.1428
  222loPI   C6A 3548   0.009   7.054   8.684  0.1442  0.0138 -0.3543
  222loPI   C1B 3549   0.181   7.749  10.359  0.0450  0.0809 -0.0901
  222loPI   C2B 3550   0.224   7.701   9.823 -0.1864 -0.0999  0.0716
  222loPI   C3B 3551   0.334   7.794   9.466  0.1313  0.0375 -0.0993
  222loPI   C4B 3552   0.246   7.759   8.962  0.1036 -0.0584  0.0025
  223loPI    C1 3553  17.232   2.854  11.398 -0.1864 -0.0032 -0.1937
  223loPI    C2 3554  17.394   3.217  11.354 -0.1127 -0.0263 -0.1143
  223loPI    C3 3555  17.098   3.161  11.617  0.2250 -0.1309  0.2530
  223loPI   PO4 3556  17.203   2.814  11.170  0.1147 -0.1026  0.2866
  223loPI   GL1 3557  17.107   2.846  10.802  0.0920  0.0884 -0.3231
  223loPI   GL2 3558  17.149   3.119  10.774 -0.2001  0.2255 -0.0152
  223loPI   C1A 3559  17.080   2.798  10.348  0.3447 -0.0764  0.0155
  223loPI   C2A 3560  17.175   2.811   9.834 -0.0519 -0.2224  0.0274
  223loPI   C3A 3561  17.152   2.820   9.391  0.1142 -0.4890 -0.1782
  223loPI   C4A 3562  17.042   2.704   9.022 -0.1173  0.1466  0.1724
  223loPI   C5A 3563  16.789   2.747   8.707 -0.0769 -0.1827  0.1351
  223loPI   C6A 3564  16.599   2.465   8.450 -0.1258  0.0314 -0.0984
  223loPI   C1B 3565  17.371   3.252  10.465 -0.1118 -0.0694 -0.1249
  223loPI   C2B 3566  17.420   3.334  10.033  0.1018 -0.0850  0.1124
  223loPI   C3B 3567  17.411   3.272   9.563  0.0166  0.1950  0.0759
  223loPI   C4B 3568  17.444   3.163   9.101 -0.1111 -0.3594  0.1798
  224loPI    C1 3569   2.121  17.438  11.572  0.0048  0.4163  0.0681
  224loPI    C2 3570   2.218  17.570  11.937  0.0966  0.0145  0.1937
  224loPI    C3 3571   1.983  17.248  11.896  0.2049 -0.0304 -0.0998
  224loPI   PO4 3572   2.170  17.621  11.412 -0.1857 -0.1279 -0.0877
  224loPI   GL1 3573   2.074  17.731  10.991 -0.1681  0.0201 -0.0847
  224loPI   GL2 3574   1.934  17.968  10.851  0.1730  0.1090 -0.2714
  224loPI   C1A 3575   2.075  17.422  10.594  0.1329  0.1189 -0.1305
  224loPI   C2A 3576   2.100  17.446  10.185 -0.3952  0.1459 -0.2284
  224loPI   C3A 3577   2.061  17.518   9.779  0.1173 -0.1164 -0.0257
  224loPI   C4A 3578   1.981  17.576   9.293 -0.0183 -0.1237 -0.3978
  224loPI   C5A 3579   1.811  17.355   8.886 -0.1562  0.0141  0.2424
  224loPI   C6A 3580   1.748  17.290   8.491 -0.1832  0.1172  0.1315
  224loPI   C1B 3581   1.857  17.814  10.419 -0.2836 -0.1640 -0.1432
  224loPI   C2B 3582   1.823  17.940   9.952  0.0540  0.0286  0.1744
  224loPI   C3B 3583   1.881  18.023   9.568  0.1250  0.1498  0.1018
  224loPI   C4B 3584   1.833  18.010   9.127  0.1328  0.1226  0.0406
  225loPI    C1 3585   0.621  12.838  11.769  0.0290  0.0758  0.0812
  225loPI    C2 3586   0.916  12.714  12.010  0.0224  0.1913  0.1491
  225loPI    C3 3587   0.577  12.859  12.166 -0.1442 -0.1088  0.0730
  225loPI   PO4 3588   0.711  12.719  11.552  0.0449 -0.2167  0.0970
  225loPI   GL1 3589   0.753  12.496  11.103  0.2852 -0.0628  0.0516
  225loPI   GL2 3590   0.903  12.651  11.051 -0.0441  0.0129  0.0609
  225loPI   C1A 3591   0.707  12.148  10.732 -0.1330 -0.0676  0.0696
  225loPI   C2A 3592   0.803  12.230  10.350  0.1574 -0.0275  0.4505
  225loPI   C3A 3593   0.868  12.129   9.887  0.0731  0.3353  0.1714
  225loPI   C4A 3594   0.846  12.102   9.535 -0.0668  0.1594 -0.1607
  225loPI   C5A 3595   0.653  12.192   9.079 -0.5027  0.0590  0.0044
  225loPI   C6A 3596   0.773  12.543   8.857  0.0629 -0.0113  0.0173
  225loPI   C1B 3597   0.593  12.663  10.656  0.2236 -0.2099 -0.0607
  225loPI   C2B 3598   0.615  12.733  10.247  0.0223  0.3502  0.2568
  225loPI   C3B 3599   0.683  12.678   9.837  0.1148  0.2392 -0.4721
  225loPI   C4B 3600   0.658  12.554   9.409  0.0644 -0.0496  0.0968
  226loPI    C1 3601   4.568  14.024  11.495  0.3209 -0.0224 -0.0390
  226loPI    C2 3602   4.355  13.753  11.698  0.1156  0.1771  0.0161
  226loPI    C3 3603   4.753  13.719  11.675  0.0772 -0.2297 -0.1329
  226loPI   PO4 3604   4.368  14.167  11.460 -0.0133 -0.0782 -0.1718
  226loPI   GL1 3605   4.211  14.183  10.968  0.0927  0.0422 -0.0561
  226loPI   GL2 3606   4.365  14.391  10.689 -0.1035  0.1989 -0.1220
  226loPI   C1A 3607   4.336  13.944  10.524  0.2154 -0.0281 -0.0931
  226loPI   C2A 3608   4.430  13.977  10.100  0.0464  0.0248  0.2195
  226loPI   C3A 3609   4.355  13.950   9.683 -0.1233  0.0840 -0.2838
  226loPI   C4A 3610   4.407  14.009   9.350  0.0470  0.3072  0.2139
  226loPI   C5A 3611   4.295  14.078   9.014  0.1405 -0.1128 -0.0673
  226loPI   C6A 3612   4.316  14.507   8.800  0.1546 -0.0901 -0.1809
  226loPI   C1B 3613   4.710  14.434  10.357 -0.0787 -0.2006 -0.0577
  226loPI   C2B 3614   4.705  14.395   9.962  0.1325 -0.1047 -0.1249
  226loPI   C3B 3615   4.648  14.399   9.517 -0.1392 -0.0828 -0.1117
  226loPI   C4B 3616   4.756  14.325   9.115 -0.0285  0.2842 -0.2264
  227loPI    C1 3617   9.609   9.986  11.574 -0.3961  0.2420 -0.2558
  227loPI    C2 3618   9.470  10.317  11.750 -0.3653  0.0763  0.0872
  227loPI    C3 3619   9.637  10.028  11.970 -0.1567 -0.0564 -0.2377
  227loPI   PO4 3620   9.624  10.003  11.329  0.0095 -0.1612  0.3707
  227loPI   GL1 3621   9.661  10.174  10.902  0.0073  0.1201 -0.0302
  227loPI   GL2 3622   9.612   9.822  10.827  0.1285  0.1069 -0.2997
  227loPI   C1A 3623   9.862  10.100  10.390  0.2370  0.0651 -0.1312
  227loPI   C2A 3624   9.877  10.124   9.907  0.3257  0.2514 -0.1807
  227loPI   C3A 3625   9.867  10.129   9.540  0.0639 -0.1413 -0.4477
  227loPI   C4A 3626   9.875  10.181   9.008 -0.2335  0.3072 -0.1574
  227loPI   C5A 3627   9.994  10.249   8.636 -0.1489 -0.0892 -0.1350
  227loPI   C6A 3628  10.393  10.263   8.541  0.1342 -0.0890 -0.1240
  227loPI   C1B 3629   9.542   9.688  10.448  0.0914  0.1700  0.1824
  227loPI   C2B 3630   9.521   9.598   9.991 -0.3161 -0.0600 -0.2938
  227loPI   C3B 3631   9.480   9.784   9.552  0.0270  0.0609 -0.0919
  227loPI   C4B 3632   9.583   9.753   9.165 -0.0284 -0.1647  0.2518
  228loPI    C1 3633  13.471  14.660  11.633  0.3734 -0.1284  0.1034
  228loPI    C2 3634  13.712  14.967  11.547 -0.1615  0.3154  0.1354
  228loPI    C3 3635  13.701  14.819  11.919  0.2134  0.1438  0.0832
  228loPI   PO4 3636  13.432  14.474  11.458 -0.0322 -0.1637  0.1959
  228loPI   GL1 3637  13.527  14.590  11.000 -0.0707 -0.3344 -0.1271
  228loPI   GL2 3638  13.276  14.337  10.952  0.2399  0.0325  0.0000
  228loPI   C1A 3639  13.616  14.750  10.628 -0.0713 -0.0899  0.1794
  228loPI   C2A 3640  13.758  14.704  10.222  0.0174 -0.1739  0.3546
  228loPI   C3A 3641  13.762  14.661   9.805 -0.0139 -0.1916  0.1198
  228loPI   C4A 3642  13.723  14.538   9.321 -0.0421  0.0673 -0.2456
  228loPI   C5A 3643  13.758  14.533   8.882 -0.1921 -0.2171  0.0981
  228loPI   C6A 3644  13.993  14.818   8.626  0.0265  0.1887  0.0095
  228loPI   C1B 3645  13.377  14.315  10.553 -0.2454 -0.1008 -0.1468
  228loPI   C2B 3646  13.504  14.258  10.147 -0.2811  0.0201 -0.2821
  228loPI   C3B 3647  13.501  14.188   9.791  0.0234 -0.0148  0.0748
  228loPI   C4B 3648  13.374  14.177   9.397  0.1607 -0.0553  0.1254
  229loPI    C1 3649   2.833   5.259  11.510 -0.1638 -0.1072 -0.2118
  229loPI    C2 3650   2.490   5.055  11.531 -0.0016 -0.3693 -0.0569
  229loPI    C3 3651   2.722   5.090  11.855  0.0445 -0.0616 -0.1206
  229loPI   PO4 3652   2.851   5.315  11.235  0.2175 -0.1728 -0.2211
  229loPI   GL1 3653   2.585   5.130  11.015 -0.0912  0.4178  0.1642
  229loPI   GL2 3654   2.811   4.849  10.985 -0.1903 -0.0054  0.0630
  229loPI   C1A 3655   2.706   5.194  10.612 -0.2667 -0.1024  0.0537
  229loPI   C2A 3656   2.728   5.168  10.241 -0.1621  0.3213 -0.1025
  229loPI   C3A 3657   2.745   5.107   9.679  0.0105  0.1540 -0.3131
  229loPI   C4A 3658   2.699   5.197   9.272 -0.1240 -0.1482 -0.1661
  229loPI   C5A 3659   2.908   5.031   8.881  0.2651 -0.2482 -0.0737
  229loPI   C6A 3660   3.229   5.099   8.616  0.1184  0.0874  0.0186
  229loPI   C1B 3661   2.852   4.670  10.541  0.2397  0.0977  0.0761
  229loPI   C2B 3662   2.947   4.691  10.112 -0.3695  0.2423 -0.1877
  229loPI   C3B 3663   2.929   4.586   9.697 -0.2007 -0.1154 -0.3059
  229loPI   C4B 3664   2.889   4.712   9.245  0.1596  0.0011  0.0939
  230loPI    C1 3665   9.470  10.892  11.503  0.0536  0.1676 -0.0527
  230loPI    C2 3666   9.164  10.993  11.266 -0.0448 -0.0327 -0.0136
  230loPI    C3 3667   9.116  10.709  11.543  0.1183  0.0811  0.1332
  230loPI   PO4 3668   9.621  10.894  11.373  0.0760 -0.1425 -0.0743
  230loPI   GL1 3669   9.535  10.882  10.956 -0.0572 -0.0003 -0.1658
  230loPI   GL2 3670   9.279  10.583  10.818  0.1376 -0.2314  0.0313
  230loPI   C1A 3671   9.730  10.631  10.636 -0.2104 -0.1057  0.0803
  230loPI   C2A 3672   9.625  10.499  10.152 -0.0800  0.1845 -0.2085
  230loPI   C3A 3673   9.727  10.604   9.724 -0.1724 -0.2666 -0.2598
  230loPI   C4A 3674   9.689  10.490   9.336 -0.1422  0.2134  0.3652
  230loPI   C5A 3675   9.662  10.663   8.897 -0.1265  0.0175 -0.1017
  230loPI   C6A 3676   9.607  10.572   8.414 -0.3489 -0.3269  0.2597
  230loPI   C1B 3677   9.222  10.600  10.444 -0.1120 -0.0757  0.0781
  230loPI   C2B 3678   9.174  10.630  10.032  0.1335 -0.0598  0.1370
  230loPI   C3B 3679   9.123  10.642   9.590  0.0394  0.1593  0.1354
  230loPI   C4B 3680   9.136  10.666   9.196  0.0639  0.0786 -0.0635
  231loPI    C1 3681   7.819  10.127  11.363  0.0551 -0.1371 -0.1873
  231loPI    C2 3682   8.015  10.038  11.700  0.0986  0.2719 -0.0998
  231loPI    C3 3683   7.616  10.055  11.699  0.0873  0.0413 -0.1289
  231loPI   PO4 3684   7.996  10.151  11.232  0.0172 -0.2704  0.1261
  231loPI   GL1 3685   8.019  10.033  10.822 -0.0441 -0.2790  0.1449
  231loPI   GL2 3686   7.809  10.388  10.686 -0.0777  0.0659 -0.2528
  231loPI   C1A 3687   7.951   9.881  10.405 -0.3025 -0.0854  0.0579
  231loPI   C2A 3688   8.016   9.900  10.036  0.0419  0.0677  0.1528
  231loPI   C3A 3689   7.951   9.838   9.613  0.0823  0.0901 -0.0804
  231loPI   C4A 3690   7.960   9.877   9.209  0.1058 -0.1366  0.2121
  231loPI   C5A 3691   8.008   9.809   8.752  0.0672 -0.1763 -0.1919
  231loPI   C6A 3692   8.037   9.809   8.304 -0.2227 -0.0252  0.4192
  231loPI   C1B 3693   7.840  10.393  10.207 -0.0308  0.2475  0.0007
  231loPI   C2B 3694   7.815  10.320   9.824  0.2270 -0.4654 -0.0060
  231loPI   C3B 3695   7.789  10.366   9.399  0.3678 -0.0658 -0.1705
  231loPI   C4B 3696   7.771  10.272   8.988  0.0750  0.1534 -0.3642
  232loPI    C1 3697  16.873   1.964  11.777 -0.0552 -0.2276 -0.0358
  232loPI    C2 3698  16.576   2.007  12.042  0.1003 -0.0570  0.1134
  232loPI    C3 3699  16.922   1.842  12.155  0.2422  0.2082  0.0728
  232loPI   PO4 3700  16.805   1.933  11.539  0.4061 -0.1991  0.0467
  232loPI   GL1 3701  17.033   2.157  11.086 -0.0781  0.1279  0.0877
  232loPI   GL2 3702  17.217   2.328  11.040  0.1797  0.0666  0.1510
  232loPI   C1A 3703  16.993   1.978  10.673  0.0844 -0.0655 -0.3573
  232loPI   C2A 3704  17.047   1.948  10.219  0.0812  0.0402 -0.2252
  232loPI   C3A 3705  17.015   1.950   9.819 -0.0968 -0.0354 -0.0536
  232loPI   C4A 3706  17.032   1.914   9.428 -0.0486  0.1422  0.0865
  232loPI   C5A 3707  16.903   1.705   9.117 -0.0737  0.2529  0.1976
  232loPI   C6A 3708  16.859   1.452   8.728  0.0019  0.3688 -0.0359
  232loPI   C1B 3709  17.284   2.369  10.624  0.1343  0.1990 -0.0790
  232loPI   C2B 3710  17.354   2.339  10.129 -0.1077  0.0181  0.0013
  232loPI   C3B 3711  17.374   2.310   9.675  0.0456 -0.0683  0.2944
  232loPI   C4B 3712  17.324   2.333   9.212 -0.1470 -0.1182 -0.1015
  233loPI    C1 3713   0.990   3.187  11.801  0.1656 -0.0081  0.0960
  233loPI    C2 3714   0.988   3.466  12.087 -0.3278  0.1285 -0.0294
  233loPI    C3 3715   0.766   3.136  12.129  0.0045 -0.0999 -0.0266
  233loPI   PO4 3716   1.010   3.341  11.592  0.0826 -0.0115  0.0423
  233loPI   GL1 3717   0.942   3.335  11.177 -0.2217  0.1080  0.3169
  233loPI   GL2 3718   1.140   3.102  10.996 -0.0716 -0.1439  0.3038
  233loPI   C1A 3719   0.868   3.555  10.828 -0.1399 -0.1656 -0.1542
  233loPI   C2A 3720   0.980   3.611  10.402 -0.3235  0.1681 -0.2409
  233loPI   C3A 3721   0.988   3.568   9.874  0.2680  0.0610  0.1390
  233loPI   C4A 3722   0.998   3.457   9.385  0.1988 -0.3487 -0.0332
  233loPI   C5A 3723   0.872   3.259   8.965  0.2251 -0.1957 -0.1048
  233loPI   C6A 3724   0.849   3.152   8.493  0.1565 -0.3002 -0.1642
  233loPI   C1B 3725   1.143   3.099  10.621 -0.0836 -0.0001  0.1902
  233loPI   C2B 3726   1.178   3.080  10.193  0.1238 -0.1370 -0.4083
  233loPI   C3B 3727   1.254   3.097   9.775 -0.0891  0.1454  0.4351
  233loPI   C4B 3728   1.234   2.943   9.384  0.1421 -0.1971  0.3847
  234loPI    C1 3729  15.346  11.541  11.434 -0.0300 -0.0625  0.1463
  234loPI    C2 3730  15.196  11.885  11.573 -0.0528 -0.0624  0.1217
  234loPI    C3 3731  15.321  11.604  11.828 -0.5944 -0.2856  0.1552
  234loPI   PO4 3732  15.543  11.544  11.276 -0.1338  0.2461 -0.2321
  234loPI   GL1 3733  15.703  11.794  10.829  0.2728 -0.1294  0.1500
  234loPI   GL2 3734  15.436  11.844  10.652  0.0549  0.1329 -0.2901
  234loPI   C1A 3735  15.896  11.676  10.497  0.0405  0.0381  0.2027
  234loPI   C2A 3736  15.885  11.661  10.059 -0.1856  0.1142 -0.0576
  234loPI   C3A 3737  15.893  11.550   9.595  0.0719 -0.1357 -0.1836
  234loPI   C4A 3738  15.907  11.499   9.205  0.1323 -0.0957 -0.0947
  234loPI   C5A 3739  15.819  11.328   8.750  0.1656 -0.0999  0.1442
  234loPI   C6A 3740  15.869  11.264   8.317  0.3061 -0.1189  0.1797
  234loPI   C1B 3741  15.409  11.675  10.259  0.0880  0.4389  0.5482
  234loPI   C2B 3742  15.446  11.587   9.750  0.1505  0.0525 -0.1001
  234loPI   C3B 3743  15.444  11.692   9.342  0.5047 -0.2330  0.0167
  234loPI   C4B 3744  15.452  11.534   8.956  0.2007 -0.0410  0.0028
  235loPI    C1 3745  12.864   1.306  11.561  0.1667 -0.0633 -0.0323
  235loPI    C2 3746  12.916   0.930  11.687  0.1000 -0.0516  0.0310
  235loPI    C3 3747  12.557   1.103  11.718  0.1463  0.0396  0.0622
  235loPI   PO4 3748  12.917   1.270  11.275  0.0725 -0.4531  0.2278
  235loPI   GL1 3749  12.865   1.081  10.913 -0.2166  0.0805 -0.0230
  235loPI   GL2 3750  12.516   1.173  10.740  0.1496  0.2164  0.0019
  235loPI   C1A 3751  13.051   1.134  10.427  0.0920 -0.1047 -0.0763
  235loPI   C2A 3752  13.003   1.103   9.954 -0.2800  0.0700 -0.0832
  235loPI   C3A 3753  12.921   1.042   9.497 -0.0913 -0.1132 -0.0562
  235loPI   C4A 3754  12.943   0.985   9.064  0.0632  0.2126  0.1974
  235loPI   C5A 3755  12.918   1.037   8.655  0.1766 -0.0665 -0.1471
  235loPI   C6A 3756  12.907   1.087   8.256  0.0555 -0.0266  0.1485
  235loPI   C1B 3757  12.550   1.168  10.302  0.1729 -0.2245  0.1354
  235loPI   C2B 3758  12.507   1.220   9.810 -0.3458 -0.0495  0.0799
  235loPI   C3B 3759  12.432   1.120   9.385 -0.0677  0.0271 -0.1379
  235loPI   C4B 3760  12.487   1.183   8.954 -0.2571  0.1179 -0.0678
  236loPI    C1 3761  16.414   9.140  11.545 -0.0363 -0.3345  0.0252
  236loPI    C2 3762  16.749   9.209  11.753 -0.1478  0.0244  0.0936
  236loPI    C3 3763  16.409   9.121  11.944 -0.1562 -0.0619  0.0393
  236loPI   PO4 3764  16.381   9.281  11.382 -0.2298 -0.3444 -0.0713
  236loPI   GL1 3765  16.548   9.344  10.983  0.3485 -0.1347 -0.0525
  236loPI   GL2 3766  16.394   9.350  10.829 -0.2414  0.0414  0.1211
  236loPI   C1A 3767  16.860   9.198  10.662 -0.0821  0.2306 -0.1253
  236loPI   C2A 3768  16.864   9.173  10.227 -0.1857  0.2070  0.2823
  236loPI   C3A 3769  16.937   9.228   9.828  0.1549 -0.4070  0.1147
  236loPI   C4A 3770  16.982   9.214   9.347 -0.0624 -0.1433 -0.2978
  236loPI   C5A 3771  17.023   9.342   8.910  0.2488 -0.1022  0.1472
  236loPI   C6A 3772  16.839   9.663   8.571  0.1154  0.1781  0.0849
  236loPI   C1B 3773  16.402   9.183  10.378  0.2011  0.0319 -0.1037
  236loPI   C2B 3774  16.397   9.217   9.991  0.0638 -0.0461  0.2563
  236loPI   C3B 3775  16.426   9.252   9.573  0.2237 -0.0341 -0.0830
  236loPI   C4B 3776  16.453   9.330   9.191  0.0613 -0.1642  0.2066
  237loPI    C1 3777  14.949  16.707  11.703 -0.0237 -0.1798  0.0134
  237loPI    C2 3778  14.566  16.619  11.780 -0.0539 -0.0596  0.0021
  237loPI    C3 3779  14.858  16.436  11.983 -0.1208 -0.0685  0.0906
  237loPI   PO4 3780  14.982  16.752  11.442  0.0635  0.0781 -0.0254
  237loPI   GL1 3781  15.039  16.512  11.085 -0.0216  0.0428  0.0296
  237loPI   GL2 3782  15.283  16.777  10.977  0.2214  0.0787  0.0537
  237loPI   C1A 3783  15.004  16.418  10.693 -0.1721  0.0605  0.3731
  237loPI   C2A 3784  14.939  16.316  10.162 -0.2430  0.1263  0.2546
  237loPI   C3A 3785  15.010  16.289   9.734 -0.0424 -0.0019 -0.3359
  237loPI   C4A 3786  14.957  16.171   9.391  0.0444  0.1214 -0.0514
  237loPI   C5A 3787  15.146  16.036   9.077  0.1147 -0.3167  0.2292
  237loPI   C6A 3788  15.566  16.208   8.974  0.1191 -0.0719  0.0671
  237loPI   C1B 3789  15.302  16.812  10.500 -0.1081  0.3971 -0.1572
  237loPI   C2B 3790  15.241  16.720  10.091 -0.0907  0.3387  0.0180
  237loPI   C3B 3791  15.288  16.749   9.632  0.2461  0.0392  0.1587
  237loPI   C4B 3792  15.250  16.528   9.228  0.0046 -0.0806  0.1778
  238loPI    C1 3793  15.103  13.780  11.384  0.3486 -0.0267  0.0227
  238loPI    C2 3794  15.141  13.973  11.732 -0.0913 -0.1186  0.1283
  238loPI    C3 3795  15.294  13.606  11.689  0.2427  0.0183  0.1155
  238loPI   PO4 3796  15.031  13.937  11.224 -0.4351  0.2719 -0.0304
  238loPI   GL1 3797  14.712  13.866  10.846  0.0292 -0.0154  0.0408
  238loPI   GL2 3798  14.592  13.650  10.752  0.0136  0.3769 -0.0349
  238loPI   C1A 3799  14.868  14.131  10.492  0.0697  0.0111  0.0446
  238loPI   C2A 3800  14.952  13.985  10.056  0.1103 -0.3976 -0.1787
  238loPI   C3A 3801  15.027  13.962   9.659 -0.1651  0.0037  0.0542
  238loPI   C4A 3802  15.060  13.942   9.210  0.0908 -0.0908  0.2651
  238loPI   C5A 3803  15.053  13.817   8.709 -0.2020  0.0563 -0.0230
  238loPI   C6A 3804  14.751  13.772   8.452  0.1469 -0.1012 -0.1794
  238loPI   C1B 3805  14.677  13.617  10.236  0.0353  0.0302 -0.0054
  238loPI   C2B 3806  14.691  13.533   9.875  0.1714  0.2526 -0.0040
  238loPI   C3B 3807  14.784  13.586   9.504  0.0079 -0.1394  0.2427
  238loPI   C4B 3808  14.873  13.474   9.118  0.3630  0.1814  0.1415
  239loPI    C1 3809   6.873   9.646  11.639 -0.2493 -0.1393  0.0059
  239loPI    C2 3810   6.805   9.310  11.845  0.1263 -0.0705  0.2518
  239loPI    C3 3811   6.732   9.666  12.012  0.2125 -0.0191  0.1813
  239loPI   PO4 3812   6.872   9.499  11.338 -0.2480  0.1132  0.0412
  239loPI   GL1 3813   6.949   9.871  11.087  0.0669  0.1087  0.3296
  239loPI   GL2 3814   7.061  10.035  10.907 -0.0106 -0.1130  0.0188
  239loPI   C1A 3815   6.710   9.691  10.727  0.1057 -0.0033  0.2574
  239loPI   C2A 3816   6.719   9.628  10.213 -0.1219  0.3047 -0.1040
  239loPI   C3A 3817   6.679   9.498   9.769  0.0516  0.2245  0.1295
  239loPI   C4A 3818   6.643   9.704   9.391  0.1411  0.1167 -0.0905
  239loPI   C5A 3819   6.487   9.958   9.088  0.2538  0.1854 -0.1735
  239loPI   C6A 3820   6.491  10.204   8.675 -0.0060  0.1953 -0.1330
  239loPI   C1B 3821   7.013  10.022  10.455 -0.1594 -0.1393  0.0338
  239loPI   C2B 3822   6.945  10.051  10.078 -0.0083 -0.0076 -0.0295
  239loPI   C3B 3823   6.936   9.992   9.682  0.0065 -0.2739  0.2000
  239loPI   C4B 3824   6.951  10.059   9.219  0.0352 -0.1552 -0.1315
  240loPI    C1 3825   4.951  17.758  11.669 -0.0960 -0.0143 -0.1351
  240loPI    C2 3826   4.641  17.666  11.904  0.0519  0.1292  0.1197
  240loPI    C3 3827   5.014  17.592  12.027  0.1149 -0.3129 -0.3055
  240loPI   PO4 3828   4.859  17.990  11.595 -0.2666  0.1559  0.1469
  240loPI   GL1 3829   4.894  18.022  11.166  0.0681  0.0556  0.2861
  240loPI   GL2 3830   4.763  18.093  11.062 -0.0515 -0.1359 -0.0461
  240loPI   C1A 3831   5.155  17.941  10.749  0.3537  0.0972 -0.2026
  240loPI   C2A 3832   5.170  17.963  10.310 -0.1474 -0.4489 -0.3105
  240loPI   C3A 3833   5.215  17.966   9.899  0.2069 -0.1893 -0.0434
  240loPI   C4A 3834   5.208  18.081   9.478 -0.2791  0.2322 -0.2635
  240loPI   C5A 3835   5.308  18.019   9.064 -0.1029  0.0641  0.3269
  240loPI   C6A 3836   5.483  17.946   8.620  0.0251 -0.0031  0.1840
  240loPI   C1B 3837   4.656  18.010  10.637  0.0910  0.0173 -0.1535
  240loPI   C2B 3838   4.693  18.012  10.121 -0.0173 -0.1051 -0.1616
  240loPI   C3B 3839   4.699  18.145   9.685  0.0168 -0.1767 -0.1796
  240loPI   C4B 3840   4.682  18.085   9.286 -0.1852 -0.2833 -0.0987
  241loPI    C1 3841   5.732  11.812  11.573  0.1432  0.0832  0.0745
  241loPI    C2 3842   5.502  12.061  11.785  0.0900  0.0885  0.0111
  241loPI    C3 3843   5.449  11.666  11.816 -0.0738  0.0951 -0.1657
  241loPI   PO4 3844   5.727  11.803  11.367  0.1363  0.1066 -0.1907
  241loPI   GL1 3845   5.551  11.766  11.045  0.0265  0.2417  0.2286
  241loPI   GL2 3846   5.343  12.129  10.822 -0.3931 -0.1371 -0.2547
  241loPI   C1A 3847   5.434  11.616  10.636 -0.0060  0.4278  0.0670
  241loPI   C2A 3848   5.400  11.542  10.222  0.0735  0.0500 -0.0591
  241loPI   C3A 3849   5.419  11.579   9.864  0.3302  0.0602 -0.2454
  241loPI   C4A 3850   5.425  11.597   9.476  0.0904 -0.1465 -0.0489
  241loPI   C5A 3851   5.559  11.614   9.079  0.1479 -0.2774  0.2668
  241loPI   C6A 3852   5.747  11.751   8.660  0.0844 -0.1202  0.1375
  241loPI   C1B 3853   5.168  12.148  10.519  0.1068  0.1214 -0.3470
  241loPI   C2B 3854   5.220  12.065  10.099  0.0094 -0.0615  0.2381
  241loPI   C3B 3855   5.161  12.056   9.696 -0.1527 -0.0034  0.1341
  241loPI   C4B 3856   5.235  12.105   9.284 -0.0119  0.3214  0.0053
  242loPI    C1 3857  15.397   2.815  11.505  0.0556 -0.2440 -0.1030
  242loPI    C2 3858  15.731   2.667  11.666  0.1692  0.1978  0.0810
  242loPI    C3 3859  15.376   2.579  11.827  0.2198 -0.0064  0.0844
  242loPI   PO4 3860  15.498   2.773  11.255  0.1253  0.0664  0.1719
  242loPI   GL1 3861  15.543   2.873  10.927 -0.1195  0.0740  0.1871
  242loPI   GL2 3862  15.697   2.534  10.652  0.3443  0.0488  0.1398
  242loPI   C1A 3863  15.233   2.661  10.569 -0.3007  0.2379 -0.0854
  242loPI   C2A 3864  15.281   2.707  10.150  0.0653  0.1511 -0.1423
  242loPI   C3A 3865  15.268   2.482   9.786 -0.2212 -0.0471  0.0546
  242loPI   C4A 3866  15.264   2.499   9.325 -0.0113 -0.1068  0.1670
  242loPI   C5A 3867  15.271   2.426   8.891 -0.0006 -0.1520 -0.4512
  242loPI   C6A 3868  15.001   2.518   8.626  0.3360 -0.3030 -0.2230
  242loPI   C1B 3869  15.795   2.565  10.256  0.0840  0.0112 -0.3486
  242loPI   C2B 3870  15.761   2.488   9.769  0.1016  0.3440 -0.1533
  242loPI   C3B 3871  15.767   2.443   9.364  0.1721 -0.0273  0.3001
  242loPI   C4B 3872  15.831   2.397   8.863  0.2293 -0.0034  0.2208
  243loPI    C1 3873   0.095   9.965  11.640 -0.1010 -0.0970 -0.0628
  243loPI    C2 3874   0.268   9.689  11.872  0.0504  0.0878  0.0485
  243loPI    C3 3875  -0.110   9.800  11.941 -0.0540 -0.1813 -0.0766
  243loPI   PO4 3876   0.259  10.021  11.462 -0.1603 -0.0278  0.1602
  243loPI   GL1 3877   0.150  10.185  11.024 -0.1177 -0.2336  0.0776
  243loPI   GL2 3878  -0.045  10.441  10.895 -0.2795  0.2759  0.0990
  243loPI   C1A 3879   0.271  10.071  10.615  0.3271 -0.0536 -0.2226
  243loPI   C2A 3880   0.199  10.125  10.292 -0.0497  0.0607 -0.1299
  243loPI   C3A 3881   0.289  10.003   9.860 -0.1395 -0.1601  0.1420
  243loPI   C4A 3882   0.317  10.040   9.438 -0.0635 -0.1888  0.1560
  243loPI   C5A 3883   0.364   9.981   8.955 -0.1151 -0.0943  0.1615
  243loPI   C6A 3884   0.061   9.901   8.589 -0.2395  0.2384 -0.4414
  243loPI   C1B 3885   0.096  10.557  10.495  0.1866 -0.0970 -0.4179
  243loPI   C2B 3886   0.125  10.602  10.100 -0.0193  0.1228 -0.0704
  243loPI   C3B 3887   0.145  10.500   9.682 -0.1534 -0.2587 -0.3248
  243loPI   C4B 3888   0.087  10.437   9.296  0.2971 -0.0168 -0.0509
  244loPI    C1 3889   5.637   8.042  11.616  0.0452 -0.1412 -0.1794
  244loPI    C2 3890   5.937   8.137  11.863 -0.2160  0.1477  0.0354
  244loPI    C3 3891   5.623   7.931  12.000 -0.2439  0.0849 -0.1200
  244loPI   PO4 3892   5.647   7.875  11.424 -0.1086  0.3435 -0.0242
  244loPI   GL1 3893   5.730   7.761  10.988  0.0430  0.0197 -0.1484
  244loPI   GL2 3894   6.060   7.837  11.083  0.3481 -0.1301 -0.2581
  244loPI   C1A 3895   5.619   7.490  10.613  0.2660  0.1546  0.2700
  244loPI   C2A 3896   5.677   7.396  10.190 -0.0349 -0.0918  0.3144
  244loPI   C3A 3897   5.632   7.452   9.778  0.1328  0.3294 -0.2085
  244loPI   C4A 3898   5.550   7.419   9.363 -0.0481 -0.0487 -0.1181
  244loPI   C5A 3899   5.519   7.416   9.040 -0.2236  0.0068  0.0444
  244loPI   C6A 3900   5.593   7.240   8.724 -0.1167 -0.1968  0.0017
  244loPI   C1B 3901   5.986   7.873  10.593  0.0549 -0.1878  0.1159
  244loPI   C2B 3902   5.983   7.896  10.138 -0.1453  0.0252 -0.3049
  244loPI   C3B 3903   5.970   7.844   9.691 -0.2626 -0.4015  0.1443
  244loPI   C4B 3904   5.840   7.835   9.194 -0.0579 -0.2624  0.3207
  245loPI    C1 3905   6.881   8.470  11.711  0.1844 -0.1603  0.0189
  245loPI    C2 3906   6.936   8.745  11.996  0.1067 -0.1519  0.0261
  245loPI    C3 3907   6.832   8.372  12.096  0.1932 -0.1790  0.0152
  245loPI   PO4 3908   7.079   8.637  11.521 -0.0544 -0.0855 -0.0172
  245loPI   GL1 3909   7.012   8.777  11.087 -0.1885  0.2123 -0.0339
  245loPI   GL2 3910   7.169   8.560  10.987  0.0795 -0.3460  0.0410
  245loPI   C1A 3911   6.936   9.016  10.705  0.1529 -0.0668 -0.0282
  245loPI   C2A 3912   6.927   9.083  10.216  0.1760  0.0653  0.3719
  245loPI   C3A 3913   6.913   9.044   9.815  0.0019  0.3220  0.1531
  245loPI   C4A 3914   6.857   9.161   9.427 -0.1417 -0.2527  0.1803
  245loPI   C5A 3915   6.818   9.290   9.096 -0.2101 -0.2416  0.1864
  245loPI   C6A 3916   7.179   9.393   8.733  0.1605 -0.1360 -0.1513
  245loPI   C1B 3917   7.118   8.549  10.581 -0.1156  0.0422  0.2341
  245loPI   C2B 3918   7.136   8.631  10.141 -0.0491  0.1239  0.0936
  245loPI   C3B 3919   6.987   8.588   9.731  0.2248 -0.0560 -0.1532
  245loPI   C4B 3920   7.093   8.701   9.263 -0.3435 -0.1700 -0.1341
  246loPI    C1 3921  12.059   9.752  11.469 -0.2816  0.2368 -0.3063
  246loPI    C2 3922  12.045  10.056  11.728  0.0097  0.1791 -0.2193
  246loPI    C3 3923  11.707   9.918  11.564 -0.1740  0.2459  0.0938
  246loPI   PO4 3924  12.241   9.826  11.293 -0.0145 -0.1496  0.1796
  246loPI   GL1 3925  12.439   9.695  10.938 -0.0847 -0.2774 -0.0044
  246loPI   GL2 3926  12.251  10.049  10.799 -0.0348  0.3952 -0.0873
  246loPI   C1A 3927  12.412   9.748  10.440  0.1648 -0.0322 -0.6012
  246loPI   C2A 3928  12.334   9.733   9.980 -0.2014  0.0972  0.0829
  246loPI   C3A 3929  12.339   9.765   9.485 -0.0693 -0.0743  0.1146
  246loPI   C4A 3930  12.319   9.791   9.067  0.0747 -0.1210 -0.1757
  246loPI   C5A 3931  12.257   9.972   8.731 -0.2827 -0.1715 -0.0882
  246loPI   C6A 3932  12.291  10.402   8.640  0.1378 -0.1986  0.2462
  246loPI   C1B 3933  12.136  10.193  10.406 -0.2270  0.2372  0.0766
  246loPI   C2B 3934  12.090  10.339   9.986 -0.0577 -0.1318 -0.2798
  246loPI   C3B 3935  12.173  10.238   9.568 -0.0043  0.2242  0.0847
  246loPI   C4B 3936  12.220  10.287   9.189 -0.2137 -0.0987  0.1890
  247loPI    C1 3937  12.584  15.245  11.391 -0.2863  0.1210  0.0807
  247loPI    C2 3938  12.663  15.630  11.466  0.1637  0.0313  0.0971
  247loPI    C3 3939  12.535  15.390  11.760 -0.0419  0.1480  0.1045
  247loPI   PO4 3940  12.754  15.155  11.266  0.0411  0.0181  0.2517
  247loPI   GL1 3941  12.997  15.314  10.973  0.1174  0.1267  0.1888
  247loPI   GL2 3942  12.853  15.584  11.025  0.2906  0.2207 -0.1086
  247loPI   C1A 3943  13.041  15.253  10.571  0.2913 -0.0712  0.0229
  247loPI   C2A 3944  12.992  15.219  10.218  0.2908 -0.1063 -0.3293
  247loPI   C3A 3945  13.049  15.135   9.804  0.2284 -0.1135  0.1457
  247loPI   C4A 3946  13.073  15.151   9.341 -0.0534  0.2117 -0.0494
  247loPI   C5A 3947  12.888  15.125   8.916 -0.4205  0.1179 -0.4057
  247loPI   C6A 3948  12.541  15.064   8.640  0.0497  0.0907 -0.1272
  247loPI   C1B 3949  12.756  15.702  10.636 -0.0856 -0.0558  0.0247
  247loPI   C2B 3950  12.793  15.709  10.164  0.2086  0.1689 -0.3470
  247loPI   C3B 3951  12.852  15.569   9.731  0.0289  0.1247 -0.1397
  247loPI   C4B 3952  12.766  15.552   9.352  0.1676 -0.0673  0.0256
  248loPI    C1 3953   1.711  10.188  11.761 -0.0650  0.0660  0.2020
  248loPI    C2 3954   1.810   9.939  12.057  0.1269  0.0829  0.1536
  248loPI    C3 3955   1.686  10.310  12.141 -0.1731 -0.0305  0.2264
  248loPI   PO4 3956   1.615  10.047  11.491 -0.0712  0.2806 -0.3435
  248loPI   GL1 3957   1.479  10.146  11.050  0.2741 -0.3011 -0.1245
  248loPI   GL2 3958   1.636   9.775  10.970 -0.0004 -0.3708 -0.0955
  248loPI   C1A 3959   1.612  10.279  10.711 -0.0355 -0.1676 -0.0082
  248loPI   C2A 3960   1.575  10.197  10.258 -0.1184 -0.1946 -0.0048
  248loPI   C3A 3961   1.693  10.238   9.818 -0.0056  0.1422 -0.0767
  248loPI   C4A 3962   1.659  10.300   9.420  0.1868 -0.3181 -0.0316
  248loPI   C5A 3963   1.721  10.292   8.915  0.0688 -0.0742  0.2465
  248loPI   C6A 3964   1.738   9.881   8.636 -0.1296 -0.1293  0.1368
  248loPI   C1B 3965   1.745   9.750  10.525 -0.0840 -0.0385  0.2362
  248loPI   C2B 3966   1.824   9.766  10.039  0.2135  0.0377  0.0391
  248loPI   C3B 3967   1.883   9.750   9.580  0.0730  0.2420  0.2722
  248loPI   C4B 3968   1.891   9.814   9.151 -0.3585  0.0226 -0.1489
  249loPI    C1 3969  11.376  17.261  11.407 -0.0628  0.0882 -0.0643
  249loPI    C2 3970  11.202  17.431  11.724 -0.0178 -0.0177  0.0179
  249loPI    C3 3971  11.585  17.320  11.743  0.0015  0.0284 -0.0935
  249loPI   PO4 3972  11.355  17.433  11.227 -0.1478 -0.0033 -0.0078
  249loPI   GL1 3973  11.264  17.288  10.763 -0.0430  0.0098  0.1095
  249loPI   GL2 3974  11.577  17.361  10.738  0.0410  0.0983 -0.2029
  249loPI   C1A 3975  11.240  17.311  10.341 -0.4306  0.0546  0.2663
  249loPI   C2A 3976  11.262  17.312   9.778  0.0443  0.4745  0.2818
  249loPI   C3A 3977  11.176  17.226   9.347  0.0929  0.0036 -0.0691
  249loPI   C4A 3978  11.151  17.164   8.874 -0.1139 -0.1775 -0.0305
  249loPI   C5A 3979  11.103  17.365   8.464 -0.0480  0.1593  0.0262
  249loPI   C6A 3980  10.854  17.759   8.171  0.1100 -0.1672  0.1358
  249loPI   C1B 3981  11.734  17.272  10.489 -0.1525  0.2179 -0.1907
  249loPI   C2B 3982  11.807  17.196  10.097  0.0304 -0.2441  0.2070
  249loPI   C3B 3983  11.691  17.182   9.607 -0.1032  0.2033  0.2343
  249loPI   C4B 3984  11.732  17.063   9.143 -0.1659 -0.4394  0.0298
  250loPI    C1 3985  10.298  17.287  11.699  0.0343  0.0951  0.0758
  250loPI    C2 3986  10.291  17.537  12.011 -0.1473 -0.0445  0.1855
  250loPI    C3 3987  10.407  17.157  12.061  0.1483  0.0194  0.0155
  250loPI   PO4 3988  10.408  17.395  11.464 -0.0870 -0.0463 -0.0476
  250loPI   GL1 3989  10.275  17.399  11.081 -0.1055  0.0058 -0.0253
  250loPI   GL2 3990  10.049  17.684  11.039  0.1010  0.2012 -0.0045
  250loPI   C1A 3991  10.259  17.382  10.615 -0.0419 -0.2726  0.0243
  250loPI   C2A 3992  10.177  17.478  10.142  0.2797  0.1880 -0.0620
  250loPI   C3A 3993  10.210  17.376   9.725  0.1501  0.0338 -0.1905
  250loPI   C4A 3994  10.169  17.427   9.320  0.0510  0.2630  0.3488
  250loPI   C5A 3995   9.985  17.621   9.071 -0.1526 -0.1980  0.4729
  250loPI   C6A 3996   9.977  17.994   8.781  0.3051  0.0944 -0.0781
  250loPI   C1B 3997  10.049  17.809  10.690 -0.0457 -0.1551 -0.1368
  250loPI   C2B 3998  10.015  17.915  10.239 -0.0911 -0.0712 -0.0133
  250loPI   C3B 3999  10.110  17.848   9.800  0.2574  0.2057  0.2349
  250loPI   C4B 4000  10.061  17.904   9.454  0.1251 -0.2611 -0.0717
  251loPI    C1 4001   3.713  16.648  11.251  0.1914  0.0663  0.0410
  251loPI    C2 4002   3.658  16.545  11.634  0.2724 -0.0760  0.0151
  251loPI    C3 4003   4.029  16.583  11.488  0.2427  0.1006 -0.0176
  251loPI   PO4 4004   3.426  16.799  11.227  0.0775  0.0623  0.1256
  251loPI   GL1 4005   3.114  16.724  11.101  0.2403  0.1005  0.0090
  251loPI   GL2 4006   2.872  16.892  10.993  0.1411 -0.2646 -0.0710
  251loPI   C1A 4007   3.211  16.757  10.631 -0.0202  0.0462  0.0958
  251loPI   C2A 4008   3.188  16.863  10.264  0.1834  0.1124 -0.0491
  251loPI   C3A 4009   3.189  16.871   9.808 -0.1826  0.2102  0.0317
  251loPI   C4A 4010   3.181  16.973   9.459  0.2632  0.0146 -0.0009
  251loPI   C5A 4011   3.259  16.924   9.014  0.2144 -0.0233  0.2611
  251loPI   C6A 4012   3.490  17.074   8.666  0.0461  0.1633  0.0796
  251loPI   C1B 4013   2.693  16.857  10.537 -0.0980 -0.3956 -0.1214
  251loPI   C2B 4014   2.721  16.954  10.148 -0.0149  0.0009  0.0239
  251loPI   C3B 4015   2.711  17.024   9.715 -0.0258  0.1769 -0.1941
  251loPI   C4B 4016   2.713  17.008   9.212 -0.1160 -0.2095 -0.0576
  252loPI    C1 4017   2.798   1.115  11.639 -0.4890  0.0690  0.0123
  252loPI    C2 4018   2.850   1.474  11.808 -0.1763  0.0131  0.0398
  252loPI    C3 4019   2.871   1.143  12.031 -0.2297 -0.0354 -0.0267
  252loPI   PO4 4020   2.853   1.153  11.378  0.1191 -0.0489 -0.1493
  252loPI   GL1 4021   2.615   1.083  10.996  0.0227  0.0226 -0.0220
  252loPI   GL2 4022   2.632   1.408  10.872  0.2231 -0.2765  0.0531
  252loPI   C1A 4023   2.497   1.003  10.493  0.0343 -0.2081 -0.1092
  252loPI   C2A 4024   2.499   1.046  10.075  0.0898  0.1120 -0.0997
  252loPI   C3A 4025   2.527   1.101   9.730  0.1607  0.3833  0.2827
  252loPI   C4A 4026   2.513   1.100   9.364 -0.0742  0.4480 -0.0600
  252loPI   C5A 4027   2.396   1.165   8.948  0.0598  0.1719  0.0551
  252loPI   C6A 4028   2.493   1.314   8.466 -0.1093  0.1737 -0.0303
  252loPI   C1B 4029   2.775   1.394  10.421  0.1089  0.2555 -0.2924
  252loPI   C2B 4030   2.783   1.480   9.967  0.4173 -0.2196  0.0030
  252loPI   C3B 4031   2.783   1.493   9.570  0.0901 -0.3296  0.0974
  252loPI   C4B 4032   2.766   1.425   9.174 -0.3162  0.2800 -0.1386
  253loPI    C1 4033  10.852  10.480  11.731 -0.0790 -0.2767 -0.0020
  253loPI    C2 4034  11.114  10.545  12.026  0.0848 -0.0964 -0.1845
  253loPI    C3 4035  10.734  10.659  12.070  0.1072 -0.0741 -0.0418
  253loPI   PO4 4036  10.973  10.609  11.515  0.3113  0.0321  0.1577
  253loPI   GL1 4037  10.865  10.659  11.028  0.1849 -0.0658  0.0561
  253loPI   GL2 4038  11.098  10.472  11.053  0.1392 -0.3411 -0.0853
  253loPI   C1A 4039  10.854  10.881  10.634  0.0317  0.1035 -0.3951
  253loPI   C2A 4040  10.923  10.901  10.238  0.0789  0.2312 -0.4775
  253loPI   C3A 4041  10.921  10.949   9.829  0.1388  0.2149  0.2063
  253loPI   C4A 4042  10.974  10.770   9.453 -0.3458  0.1237 -0.1505
  253loPI   C5A 4043  11.059  10.662   8.940  0.1624 -0.1349  0.1771
  253loPI   C6A 4044  11.228  10.281   8.787 -0.3417 -0.2706  0.2063
  253loPI   C1B 4045  11.140  10.385  10.672 -0.0365  0.0423  0.0818
  253loPI   C2B 4046  11.130  10.371  10.194 -0.1500  0.2564  0.1587
  253loPI   C3B 4047  11.203  10.421   9.794 -0.1276  0.5164 -0.0120
  253loPI   C4B 4048  11.197  10.334   9.326  0.0837 -0.2865  0.0140
  254loPI    C1 4049  16.039   6.699  11.649  0.1878  0.2482  0.1645
  254loPI    C2 4050  16.257   6.387  11.775 -0.1000 -0.1820 -0.3605
  254loPI    C3 4051  15.903   6.465  11.944  0.1040  0.0504 -0.0283
  254loPI   PO4 4052  16.052   6.585  11.324 -0.1361 -0.2905  0.4045
  254loPI   GL1 4053  16.029   6.254  10.960 -0.2376 -0.1765 -0.0503
  254loPI   GL2 4054  15.719   6.241  10.902 -0.3019  0.1360  0.2689
  254loPI   C1A 4055  16.066   6.579  10.550  0.0805 -0.2274  0.3133
  254loPI   C2A 4056  16.040   6.611  10.064 -0.0397 -0.0364 -0.0714
  254loPI   C3A 4057  16.100   6.610   9.688 -0.4365  0.0364  0.3193
  254loPI   C4A 4058  16.074   6.646   9.182 -0.0615 -0.1272  0.4197
  254loPI   C5A 4059  15.913   6.426   8.816 -0.0527 -0.2867 -0.1685
  254loPI   C6A 4060  15.542   6.532   8.589  0.1505  0.4914  0.0465
  254loPI   C1B 4061  15.616   6.188  10.507  0.0495  0.1042  0.2939
  254loPI   C2B 4062  15.686   6.159  10.087  0.1018  0.0860  0.0799
  254loPI   C3B 4063  15.719   6.222   9.677  0.0523  0.3011 -0.2952
  254loPI   C4B 4064  15.788   6.283   9.293 -0.2511 -0.0722 -0.0006
  255loPI    C1 4065   3.069   2.701  11.652  0.0009 -0.0206 -0.1639
  255loPI    C2 4066   3.315   2.408  11.767 -0.1320  0.0018  0.1883
  255loPI    C3 4067   3.381   2.783  11.889 -0.0063  0.1101 -0.1988
  255loPI   PO4 4068   3.128   2.706  11.376  0.0357  0.1803  0.1588
  255loPI   GL1 4069   3.135   2.816  10.960  0.2770  0.0022  0.1557
  255loPI   GL2 4070   2.984   3.079  11.000  0.3425 -0.0643 -0.0894
  255loPI   C1A 4071   3.169   2.772  10.530 -0.1952  0.2466 -0.2835
  255loPI   C2A 4072   3.245   2.783  10.071 -0.0391 -0.3972  0.1571
  255loPI   C3A 4073   3.209   2.780   9.683  0.1289  0.1675 -0.1669
  255loPI   C4A 4074   3.168   2.757   9.344  0.1998 -0.2934 -0.1866
  255loPI   C5A 4075   2.930   2.772   8.921 -0.0346  0.2038  0.0720
  255loPI   C6A 4076   2.834   2.808   8.467 -0.3653  0.2202  0.3421
  255loPI   C1B 4077   2.951   3.182  10.685  0.2074 -0.0074 -0.0196
  255loPI   C2B 4078   2.912   3.296  10.284 -0.1817 -0.0169 -0.0297
  255loPI   C3B 4079   2.983   3.360   9.884  0.0342  0.0215 -0.1300
  255loPI   C4B 4080   3.000   3.240   9.471 -0.2502 -0.2161 -0.0078
  256loPI    C1 4081   0.535   0.883  11.820 -0.1077 -0.1391  0.0584
  256loPI    C2 4082   0.777   1.114  12.038  0.0621  0.0157 -0.2873
  256loPI    C3 4083   0.667   0.755  12.175 -0.0322  0.2087  0.1589
  256loPI   PO4 4084   0.600   0.969  11.581 -0.0507 -0.1631 -0.1208
  256loPI   GL1 4085   0.443   0.741  11.277  0.0515 -0.1794  0.2321
  256loPI   GL2 4086   0.371   0.854  11.035 -0.2830  0.0595 -0.1438
  256loPI   C1A 4087   0.783   0.859  10.890 -0.1495 -0.4998  0.1840
  256loPI   C2A 4088   0.669   0.859  10.448 -0.0069  0.0167  0.0004
  256loPI   C3A 4089   0.729   0.798  10.111 -0.0531 -0.4858 -0.0866
  256loPI   C4A 4090   0.656   0.769   9.721  0.0258 -0.1412  0.2079
  256loPI   C5A 4091   0.587   0.800   9.303 -0.1745  0.1317  0.0965
  256loPI   C6A 4092   0.265   0.955   9.006 -0.1785 -0.0570  0.0988
  256loPI   C1B 4093   0.179   0.893  10.571  0.0152  0.1994 -0.0595
  256loPI   C2B 4094   0.157   0.891  10.144  0.0956  0.0716 -0.0284
  256loPI   C3B 4095   0.218   0.908   9.809 -0.1072 -0.2069 -0.0667
  256loPI   C4B 4096   0.061   0.833   9.384  0.1252  0.0457 -0.0390
  257loPI    C1 4097  16.106   4.865  11.660  0.1917 -0.3732 -0.0335
  257loPI    C2 4098  15.793   4.703  11.848  0.1161 -0.0258  0.1486
  257loPI    C3 4099  16.157   4.679  12.010  0.0945  0.0405  0.2072
  257loPI   PO4 4100  15.964   4.920  11.375 -0.3559  0.3145 -0.0415
  257loPI   GL1 4101  15.749   4.850  11.060 -0.0985 -0.2802 -0.2096
  257loPI   GL2 4102  15.612   4.542  10.962  0.1343 -0.0335  0.1260
  257loPI   C1A 4103  15.823   4.869  10.614  0.2678  0.3408 -0.2171
  257loPI   C2A 4104  15.838   4.840  10.120  0.2566  0.2379  0.0088
  257loPI   C3A 4105  15.811   4.762   9.746  0.1960  0.0549 -0.0653
  257loPI   C4A 4106  15.710   4.691   9.255 -0.1824  0.0877  0.2636
  257loPI   C5A 4107  15.621   4.868   8.859 -0.1769 -0.3105 -0.0563
  257loPI   C6A 4108  16.004   5.041   8.610 -0.0748  0.5045  0.0415
  257loPI   C1B 4109  15.568   4.400  10.540  0.1152 -0.0557 -0.0038
  257loPI   C2B 4110  15.546   4.348  10.096  0.0501  0.1816 -0.0732
  257loPI   C3B 4111  15.501   4.367   9.671 -0.1409 -0.2258  0.1296
  257loPI   C4B 4112  15.465   4.272   9.237  0.0412  0.0018 -0.2111
  258loPI    C1 4113   9.019   3.686  11.590  0.1122  0.2767  0.0194
  258loPI    C2 4114   8.647   3.829  11.557  0.0472  0.1056 -0.0004
  258loPI    C3 4115   8.709   3.469  11.719  0.2115  0.1658  0.0729
  258loPI   PO4 4116   9.050   3.626  11.340  0.3796  0.0235 -0.0706
  258loPI   GL1 4117   9.139   3.498  10.933  0.0541  0.2793  0.1837
  258loPI   GL2 4118   9.547   3.362  10.865  0.0729  0.0477  0.0595
  258loPI   C1A 4119   9.206   3.390  10.515 -0.1850  0.0245 -0.3447
  258loPI   C2A 4120   9.227   3.379  10.082  0.1189 -0.2884 -0.1596
  258loPI   C3A 4121   9.192   3.323   9.647 -0.1447 -0.2170 -0.0489
  258loPI   C4A 4122   9.168   3.407   9.199  0.1815  0.0685 -0.2208
  258loPI   C5A 4123   9.183   3.368   8.805 -0.1875  0.0199 -0.1345
  258loPI   C6A 4124   9.663   3.317   8.598  0.2039 -0.1991  0.3014
  258loPI   C1B 4125   9.688   3.308  10.420  0.0264 -0.2686 -0.2774
  258loPI   C2B 4126   9.667   3.275  10.015 -0.0420 -0.0221 -0.0108
  258loPI   C3B 4127   9.711   3.340   9.546 -0.1688 -0.0973  0.0969
  258loPI   C4B 4128   9.629   3.335   9.084  0.3348 -0.2843 -0.2900
  259loPI    C1 4129  15.809   9.235  11.522 -0.1598 -0.0048 -0.0500
  259loPI    C2 4130  15.961   8.993  11.802  0.2345  0.1316 -0.1390
  259loPI    C3 4131  15.947   9.387  11.865 -0.1312  0.1186 -0.1157
  259loPI   PO4 4132  15.849   9.133  11.349 -0.1625 -0.0495 -0.0099
  259loPI   GL1 4133  15.963   9.238  10.956 -0.1079  0.0548  0.1302
  259loPI   GL2 4134  15.940   9.499  10.855 -0.1234  0.1665  0.0117
  259loPI   C1A 4135  16.056   8.951  10.720  0.1381  0.0602  0.1902
  259loPI   C2A 4136  16.047   8.796  10.344  0.0502 -0.1054 -0.3110
  259loPI   C3A 4137  16.075   8.809   9.859  0.1923 -0.2721 -0.2120
  259loPI   C4A 4138  16.140   8.913   9.391 -0.1541 -0.0777 -0.1017
  259loPI   C5A 4139  16.127   8.697   9.026  0.1785  0.1058 -0.1016
  259loPI   C6A 4140  16.384   8.539   8.763  0.1263  0.2764  0.1416
  259loPI   C1B 4141  15.872   9.311  10.429 -0.2162 -0.1184 -0.0127
  259loPI   C2B 4142  15.881   9.311   9.876  0.1859 -0.1749  0.2210
  259loPI   C3B 4143  15.865   9.372   9.496  0.0415  0.0653  0.1017
  259loPI   C4B 4144  15.892   9.283   9.112 -0.0603 -0.0357  0.0310
  260loPI    C1 4145  14.008  13.668  11.095 -0.1514 -0.1184 -0.2895
  260loPI    C2 4146  13.731  13.437  11.267 -0.0338 -0.1937 -0.1995
  260loPI    C3 4147  13.899  13.735  11.474 -0.2643  0.0443 -0.3498
  260loPI   PO4 4148  14.169  13.511  10.977  0.0344  0.0034  0.0336
  260loPI   GL1 4149  14.312  13.338  10.526 -0.1328 -0.1101  0.1005
  260loPI   GL2 4150  14.120  13.057  10.637  0.2385 -0.0268  0.0164
  260loPI   C1A 4151  14.374  13.171  10.093 -0.2251 -0.0077  0.1935
  260loPI   C2A 4152  14.380  13.171   9.755  0.1405  0.2305  0.1977
  260loPI   C3A 4153  14.467  13.203   9.364 -0.1005 -0.1680 -0.0628
  260loPI   C4A 4154  14.445  13.104   8.933 -0.0585  0.2294  0.0124
  260loPI   C5A 4155  14.118  12.885   8.664  0.3378  0.1547  0.0352
  260loPI   C6A 4156  13.680  12.893   8.741  0.1678  0.1402  0.1458
  260loPI   C1B 4157  14.058  12.768  10.317 -0.0164 -0.1408  0.1839
  260loPI   C2B 4158  14.045  12.784   9.856  0.0251  0.0588 -0.0269
  260loPI   C3B 4159  14.204  12.647   9.504  0.0873 -0.4053  0.1489
  260loPI   C4B 4160  14.091  12.668   9.105 -0.0806 -0.2311  0.2388
  261loPI    C1 4161   1.398   8.649  11.664 -0.0709 -0.0901  0.2201
  261loPI    C2 4162   1.448   8.957  11.413 -0.0500 -0.2012  0.0866
  261loPI    C3 4163   1.088   8.789  11.454 -0.0733 -0.1250  0.2003
  261loPI   PO4 4164   1.567   8.468  11.530 -0.0060 -0.2573 -0.1340
  261loPI   GL1 4165   1.570   8.307  11.133 -0.1301  0.1608 -0.1629
  261loPI   GL2 4166   1.826   8.482  11.053 -0.2671  0.3159  0.0521
  261loPI   C1A 4167   1.330   8.537  10.868  0.3707  0.0431 -0.0057
  261loPI   C2A 4168   1.416   8.533  10.377 -0.0364  0.2040  0.0589
  261loPI   C3A 4169   1.454   8.510   9.936  0.2457  0.3769 -0.2262
  261loPI   C4A 4170   1.452   8.542   9.498 -0.1879  0.1476  0.2045
  261loPI   C5A 4171   1.466   8.489   9.007  0.0616  0.2346  0.2344
  261loPI   C6A 4172   1.166   8.346   8.754 -0.0687 -0.3142  0.1692
  261loPI   C1B 4173   1.889   8.352  10.574 -0.0983  0.3060 -0.3061
  261loPI   C2B 4174   1.981   8.343  10.183  0.1062 -0.3066  0.2651
  261loPI   C3B 4175   1.897   8.470   9.722  0.0256 -0.0685  0.2804
  261loPI   C4B 4176   1.874   8.411   9.269 -0.2502  0.0007  0.1004
  262loPI    C1 4177   0.411   0.362  11.658 -0.0604 -0.0301  0.0569
  262loPI    C2 4178   0.182   0.087  11.836 -0.2598  0.0564 -0.0630
  262loPI    C3 4179   0.355   0.375  12.054 -0.2374 -0.0288  0.0324
  262loPI   PO4 4180   0.576   0.236  11.447  0.1703 -0.1690 -0.1400
  262loPI   GL1 4181   0.782   0.405  11.049 -0.2656 -0.1169 -0.1047
  262loPI   GL2 4182   1.117   0.584  11.073  0.1538  0.0836 -0.0580
  262loPI   C1A 4183   0.823   0.405  10.665 -0.3072 -0.2542  0.0713
  262loPI   C2A 4184   0.946   0.326  10.339 -0.1241 -0.1862  0.1952
  262loPI   C3A 4185   0.831   0.318   9.864 -0.0662  0.0378 -0.1416
  262loPI   C4A 4186   0.744   0.339   9.430  0.2252 -0.3208  0.2858
  262loPI   C5A 4187   0.992   0.289   8.992  0.0352 -0.0844  0.2843
  262loPI   C6A 4188   1.336   0.296   8.841  0.0636 -0.0895 -0.0438
  262loPI   C1B 4189   1.222   0.748  10.605 -0.1329 -0.0230 -0.2872
  262loPI   C2B 4190   1.244   0.775  10.126  0.1444 -0.2414 -0.1243
  262loPI   C3B 4191   1.163   0.758   9.670  0.0628 -0.2612 -0.1016
  262loPI   C4B 4192   1.202   0.716   9.170  0.0493  0.2706  0.2210
  263loPI    C1 4193   3.422  14.430  11.289 -0.0214  0.0344 -0.0105
  263loPI    C2 4194   3.815  14.380  11.233 -0.0513  0.0597 -0.2556
  263loPI    C3 4195   3.653  14.745  11.200 -0.0396  0.1145  0.2193
  263loPI   PO4 4196   3.343  14.258  11.142  0.0153 -0.1109  0.2187
  263loPI   GL1 4197   3.367  14.160  10.755  0.0879  0.0438 -0.1857
  263loPI   GL2 4198   3.566  14.438  10.759  0.0090 -0.3897  0.1730
  263loPI   C1A 4199   3.438  14.071  10.309  0.0302 -0.0077 -0.0297
  263loPI   C2A 4200   3.409  14.100   9.873 -0.2989  0.1702 -0.1103
  263loPI   C3A 4201   3.418  14.152   9.454 -0.1130 -0.2814  0.1368
  263loPI   C4A 4202   3.390  14.170   9.024  0.2451 -0.0338 -0.0685
  263loPI   C5A 4203   3.494  14.302   8.577 -0.2150  0.0111  0.0020
  263loPI   C6A 4204   3.720  14.322   8.329  0.1516  0.3422  0.1857
  263loPI   C1B 4205   3.922  14.471  10.481  0.2354  0.1274  0.0189
  263loPI   C2B 4206   4.224  14.472  10.185  0.3946  0.0934 -0.1145
  263loPI   C3B 4207   4.188  14.494   9.724  0.3254  0.0391 -0.0444
  263loPI   C4B 4208   4.200  14.527   9.331 -0.1618  0.0572 -0.2316
  264loPI    C1 4209  16.501  11.158  11.683  0.1104  0.0389 -0.0025
  264loPI    C2 4210  16.729  10.910  11.900 -0.0095 -0.0163  0.0609
  264loPI    C3 4211  16.481  11.166  12.082 -0.0369  0.0072 -0.0090
  264loPI   PO4 4212  16.519  11.029  11.446 -0.0891 -0.0768  0.2559
  264loPI   GL1 4213  16.299  11.152  11.039 -0.1277  0.1575  0.1899
  264loPI   GL2 4214  16.335  11.383  11.097 -0.2113 -0.0954  0.3961
  264loPI   C1A 4215  16.645  11.225  10.704 -0.1156 -0.2735 -0.0372
  264loPI   C2A 4216  16.606  11.080  10.238  0.1858  0.1259 -0.0563
  264loPI   C3A 4217  16.637  11.041   9.772 -0.1025  0.0571  0.1406
  264loPI   C4A 4218  16.624  10.962   9.367  0.0675  0.1440 -0.2595
  264loPI   C5A 4219  16.580  10.893   8.947  0.3654 -0.1004  0.0932
  264loPI   C6A 4220  16.907  10.901   8.647 -0.0693 -0.0008 -0.2411
  264loPI   C1B 4221  16.377  11.666  10.637 -0.0683 -0.0843 -0.0298
  264loPI   C2B 4222  16.386  11.567  10.235  0.1614  0.2279 -0.0709
  264loPI   C3B 4223  16.458  11.524   9.832 -0.0910  0.0286 -0.1455
  264loPI   C4B 4224  16.410  11.470   9.418  0.2705 -0.1671 -0.1715
  265loPI    C1 4225  13.763  17.256  11.651  0.1755  0.1054  0.2540
  265loPI    C2 4226  13.734  16.884  11.794  0.1359  0.0649  0.1421
  265loPI    C3 4227  13.678  17.197  12.037  0.0216 -0.0032  0.2046
  265loPI   PO4 4228  13.813  17.218  11.432  0.0018  0.0710 -0.0189
  265loPI   GL1 4229  13.935  17.509  11.007  0.1852 -0.1817 -0.2239
  265loPI   GL2 4230  13.639  17.608  11.029  0.0545  0.0933  0.1844
  265loPI   C1A 4231  14.116  17.344  10.635  0.0480  0.0048 -0.0209
  265loPI   C2A 4232  14.081  17.365  10.197  0.4760 -0.0985 -0.1073
  265loPI   C3A 4233  14.077  17.267   9.751 -0.0720 -0.0167  0.0007
  265loPI   C4A 4234  14.016  17.096   9.326  0.0592  0.0508  0.1313
  265loPI   C5A 4235  13.848  17.121   8.957 -0.2451  0.0694 -0.1117
  265loPI   C6A 4236  13.636  17.027   8.524  0.2038 -0.3926 -0.3311
  265loPI   C1B 4237  13.564  17.487  10.613  0.1039  0.2987 -0.0059
  265loPI   C2B 4238  13.560  17.451  10.103 -0.1751  0.1949 -0.1356
  265loPI   C3B 4239  13.513  17.312   9.712  0.1000  0.2642  0.1469
  265loPI   C4B 4240  13.513  17.270   9.292 -0.1483  0.0471  0.0847
  266loPI    C1 4241   2.160  10.169  11.635  0.3990 -0.0027 -0.1018
  266loPI    C2 4242   2.289   9.890  11.891 -0.1913 -0.1445  0.0564
  266loPI    C3 4243   2.209  10.260  12.022 -0.0545 -0.0874 -0.0190
  266loPI   PO4 4244   2.357  10.201  11.491  0.2967 -0.0129  0.0075
  266loPI   GL1 4245   2.273  10.295  11.084 -0.0068  0.0778  0.4710
  266loPI   GL2 4246   2.286   9.946  11.093  0.1932 -0.4358  0.0622
  266loPI   C1A 4247   2.142  10.174  10.679 -0.1727 -0.2983  0.1365
  266loPI   C2A 4248   2.060  10.141  10.234 -0.1481  0.1369  0.0076
  266loPI   C3A 4249   2.187  10.047   9.810 -0.3920  0.1580  0.2282
  266loPI   C4A 4250   2.139  10.214   9.393 -0.2839  0.1291  0.0359
  266loPI   C5A 4251   2.187  10.087   8.913  0.2773  0.1396  0.0536
  266loPI   C6A 4252   2.261  10.198   8.515  0.4025 -0.1579 -0.0824
  266loPI   C1B 4253   2.206   9.740  10.830  0.0545  0.3725 -0.1352
  266loPI   C2B 4254   2.218   9.692  10.337  0.2944 -0.3373  0.0903
  266loPI   C3B 4255   2.354   9.615   9.925  0.0102  0.1458 -0.1235
  266loPI   C4B 4256   2.349   9.678   9.477 -0.2884 -0.1876 -0.1628
  267loPI    C1 4257   4.695   8.908  11.826  0.1578  0.1268 -0.0442
  267loPI    C2 4258   4.753   9.222  12.066  0.2721 -0.0178  0.1194
  267loPI    C3 4259   4.687   8.860  12.223  0.1128 -0.0717 -0.0681
  267loPI   PO4 4260   4.825   8.918  11.568 -0.3016 -0.1647 -0.0170
  267loPI   GL1 4261   4.920   8.934  11.201 -0.2078 -0.1009  0.2784
  267loPI   GL2 4262   4.840   9.290  11.117 -0.1236 -0.1912 -0.2750
  267loPI   C1A 4263   4.764   8.595  10.774  0.1307  0.2630 -0.0862
  267loPI   C2A 4264   4.764   8.457  10.280 -0.0487 -0.2767  0.0114
  267loPI   C3A 4265   4.670   8.432   9.778  0.1706 -0.2246 -0.1266
  267loPI   C4A 4266   4.743   8.340   9.343 -0.1814 -0.1804 -0.4276
  267loPI   C5A 4267   4.835   8.475   8.977  0.0058  0.0988  0.1089
  267loPI   C6A 4268   5.155   8.280   8.597  0.1201 -0.0506 -0.2782
  267loPI   C1B 4269   4.839   9.475  10.681 -0.2311  0.3157 -0.3958
  267loPI   C2B 4270   4.856   9.386  10.218 -0.2503  0.1292 -0.2700
  267loPI   C3B 4271   4.803   9.343   9.736  0.2617 -0.0263  0.1052
  267loPI   C4B 4272   4.794   9.373   9.270 -0.1622  0.2006 -0.0427
  268loPI    C1 4273   2.602  15.560  11.585  0.0995  0.0535  0.0650
  268loPI    C2 4274   2.335  15.682  11.857 -0.1211 -0.0290 -0.1106
  268loPI    C3 4275   2.626  15.929  11.736 -0.0924  0.0480  0.1117
  268loPI   PO4 4276   2.545  15.463  11.384 -0.0821 -0.1526 -0.1308
  268loPI   GL1 4277   2.624  15.233  10.945  0.2981 -0.0813  0.1162
  268loPI   GL2 4278   2.717  15.524  10.852 -0.5231  0.1924 -0.2027
  268loPI   C1A 4279   2.477  15.146  10.550  0.2719  0.1939 -0.1000
  268loPI   C2A 4280   2.571  15.105  10.153  0.1048  0.1985  0.1793
  268loPI   C3A 4281   2.501  15.136   9.814 -0.2414  0.1612 -0.0294
  268loPI   C4A 4282   2.458  15.121   9.361 -0.1210 -0.0393 -0.1699
  268loPI   C5A 4283   2.398  15.093   8.917  0.0560  0.0263  0.0207
  268loPI   C6A 4284   2.190  14.747   8.780  0.1110  0.3859 -0.1532
  268loPI   C1B 4285   2.771  15.514  10.377 -0.2091 -0.1657  0.2594
  268loPI   C2B 4286   2.799  15.582   9.921 -0.0390  0.2110 -0.2181
  268loPI   C3B 4287   2.793  15.585   9.441 -0.0708 -0.1322 -0.2841
  268loPI   C4B 4288   2.882  15.375   9.063  0.0171  0.1727  0.0846
  269loPI    C1 4289   8.810  14.887  11.373  0.1256  0.1759  0.0894
  269loPI    C2 4290   9.186  14.773  11.451  0.0917  0.1774  0.2573
  269loPI    C3 4291   8.929  14.837  11.751  0.0039  0.3368  0.1500
  269loPI   PO4 4292   8.776  14.761  11.214  0.1951 -0.0782 -0.0903
  269loPI   GL1 4293   8.688  14.554  10.788  0.1760 -0.1882  0.1137
  269loPI   GL2 4294   8.886  14.784  10.556 -0.1915  0.0353 -0.1293
  269loPI   C1A 4295   8.655  14.368  10.310 -0.0489 -0.0087  0.0639
  269loPI   C2A 4296   8.543  14.320   9.931  0.1518  0.3281 -0.1351
  269loPI   C3A 4297   8.572  14.399   9.475 -0.0379  0.0219 -0.0336
  269loPI   C4A 4298   8.626  14.450   9.064 -0.0789 -0.0983 -0.1648
  269loPI   C5A 4299   8.849  14.626   8.725  0.0546 -0.0712  0.2417
  269loPI   C6A 4300   9.131  14.710   8.514  0.1291  0.1464 -0.1242
  269loPI   C1B 4301   8.936  14.786  10.140  0.3053 -0.0127  0.0583
  269loPI   C2B 4302   8.885  14.789   9.641  0.2083 -0.0866 -0.0895
  269loPI   C3B 4303   8.889  14.825   9.299  0.0887  0.0695  0.1121
  269loPI   C4B 4304   9.190  14.899   8.946  0.1510 -0.1813 -0.1333
  270loPI    C1 4305  13.592   7.652  11.488 -0.1609 -0.1647 -0.0165
  270loPI    C2 4306  13.747   7.439  11.789  0.0057 -0.1487 -0.0900
  270loPI    C3 4307  13.385   7.604  11.827  0.0224 -0.1537  0.0980
  270loPI   PO4 4308  13.674   7.516  11.255 -0.1289  0.1172 -0.0447
  270loPI   GL1 4309  13.592   7.683  10.883 -0.1891  0.0327  0.0912
  270loPI   GL2 4310  13.350   7.407  10.824 -0.1390 -0.0172 -0.1604
  270loPI   C1A 4311  13.695   7.769  10.529  0.3076  0.1033 -0.1122
  270loPI   C2A 4312  13.490   7.911  10.111  0.1114  0.0858 -0.0945
  270loPI   C3A 4313  13.620   7.840   9.645  0.1606  0.0137 -0.1993
  270loPI   C4A 4314  13.652   7.745   9.188 -0.0889 -0.2708  0.3922
  270loPI   C5A 4315  13.594   7.790   8.744 -0.1038 -0.1672 -0.2382
  270loPI   C6A 4316  13.719   7.913   8.356  0.0345 -0.0230  0.2475
  270loPI   C1B 4317  13.420   7.441  10.283  0.2772 -0.0483 -0.0240
  270loPI   C2B 4318  13.365   7.406   9.816 -0.0593  0.0402  0.0654
  270loPI   C3B 4319  13.380   7.425   9.425  0.0334  0.0926  0.1566
  270loPI   C4B 4320  13.307   7.370   8.940  0.0727 -0.0630  0.1838
  271loPI    C1 4321   7.169   3.963  11.433  0.0979  0.2918  0.0494
  271loPI    C2 4322   6.940   4.212  11.647 -0.1455  0.1341 -0.0239
  271loPI    C3 4323   6.971   3.827  11.752  0.2832  0.2055  0.1285
  271loPI   PO4 4324   7.159   4.051  11.187 -0.0916 -0.1215  0.0600
  271loPI   GL1 4325   6.882   4.088  10.839 -0.3205  0.1942 -0.1465
  271loPI   GL2 4326   6.648   4.044  10.902  0.1219  0.4091  0.0391
  271loPI   C1A 4327   6.928   4.042  10.381  0.0123 -0.0428 -0.2275
  271loPI   C2A 4328   6.967   4.037   9.923  0.0358 -0.2167 -0.0836
  271loPI   C3A 4329   6.966   4.016   9.482 -0.2308  0.1152  0.1555
  271loPI   C4A 4330   6.926   4.041   9.070  0.1175 -0.0913 -0.1361
  271loPI   C5A 4331   7.129   3.948   8.702  0.0275 -0.0865 -0.2680
  271loPI   C6A 4332   7.256   3.994   8.262  0.0654 -0.0295 -0.2608
  271loPI   C1B 4333   6.401   4.097  10.558  0.0087  0.1421  0.1969
  271loPI   C2B 4334   6.500   4.102  10.120  0.1423 -0.0943  0.4673
  271loPI   C3B 4335   6.468   4.245   9.678  0.2002  0.0590 -0.3190
  271loPI   C4B 4336   6.420   4.091   9.173 -0.0873  0.3975 -0.0554
  272loPI    C1 4337   5.409   1.547  11.528  0.2167 -0.0810 -0.0559
  272loPI    C2 4338   5.777   1.688  11.596  0.1813 -0.1382  0.2707
  272loPI    C3 4339   5.579   1.497  11.887  0.0461 -0.4550 -0.0226
  272loPI   PO4 4340   5.337   1.688  11.376 -0.0546  0.1613 -0.1339
  272loPI   GL1 4341   5.159   1.445  10.993  0.2340  0.3162 -0.1279
  272loPI   GL2 4342   5.423   1.567  10.886 -0.0931 -0.3122 -0.2321
  272loPI   C1A 4343   5.092   1.609  10.519 -0.0258  0.2390 -0.2328
  272loPI   C2A 4344   5.102   1.561  10.093 -0.1728 -0.1128  0.3343
  272loPI   C3A 4345   5.152   1.620   9.657 -0.0172 -0.0123  0.0505
  272loPI   C4A 4346   5.142   1.646   9.208  0.0126  0.0392 -0.0618
  272loPI   C5A 4347   5.151   1.829   8.851 -0.1160 -0.2130 -0.1368
  272loPI   C6A 4348   4.839   1.814   8.431  0.0924  0.1895 -0.1635
  272loPI   C1B 4349   5.613   1.542  10.490  0.0136  0.1987 -0.0734
  272loPI   C2B 4350   5.672   1.513  10.008 -0.1881 -0.4300 -0.0172
  272loPI   C3B 4351   5.645   1.563   9.607  0.1430 -0.2345  0.2387
  272loPI   C4B 4352   5.655   1.597   9.193 -0.0340 -0.0593  0.1953
  273loPI    C1 4353   2.406  10.720  11.538 -0.0904  0.0234 -0.0896
  273loPI    C2 4354   2.081  10.643  11.758  0.0408 -0.0498  0.0813
  273loPI    C3 4355   2.259  11.000  11.783  0.0896 -0.0780  0.1381
  273loPI   PO4 4356   2.354  10.693  11.297 -0.1323 -0.1633 -0.1879
  273loPI   GL1 4357   2.565  10.787  10.939 -0.0266 -0.0966  0.0324
  273loPI   GL2 4358   2.662  11.077  10.959 -0.2635  0.2225  0.0369
  273loPI   C1A 4359   2.367  10.706  10.530 -0.3277  0.2248  0.2990
  273loPI   C2A 4360   2.398  10.559  10.205 -0.1919  0.0682  0.1874
  273loPI   C3A 4361   2.468  10.527   9.871  0.1518 -0.0976  0.1596
  273loPI   C4A 4362   2.465  10.603   9.448 -0.0537 -0.0106 -0.0282
  273loPI   C5A 4363   2.462  10.548   9.067 -0.0876 -0.2501 -0.0016
  273loPI   C6A 4364   2.623  10.637   8.659  0.1168  0.1245 -0.3584
  273loPI   C1B 4365   2.704  11.071  10.526 -0.0928  0.1310  0.0224
  273loPI   C2B 4366   2.717  10.940  10.065  0.0316 -0.0282 -0.0781
  273loPI   C3B 4367   2.757  10.937   9.670 -0.0045  0.0895 -0.1645
  273loPI   C4B 4368   2.792  10.906   9.198 -0.0335  0.2865  0.3590
  274loPI    C1 4369   1.955   3.069  11.848  0.3208 -0.1122  0.0434
  274loPI    C2 4370   1.818   3.248  12.179  0.0842  0.0459 -0.1365
  274loPI    C3 4371   1.988   2.886  12.203  0.1284  0.0838  0.1646
  274loPI   PO4 4372   1.801   3.148  11.624 -0.1660 -0.1184  0.0723
  274loPI   GL1 4373   1.829   3.085  11.233 -0.0452  0.0130 -0.2635
  274loPI   GL2 4374   2.060   2.987  11.182 -0.1488  0.1063  0.0758
  274loPI   C1A 4375   1.609   3.109  10.873 -0.2372  0.0069 -0.1041
  274loPI   C2A 4376   1.699   2.933  10.521 -0.0337  0.5722 -0.1945
  274loPI   C3A 4377   1.701   3.030  10.092  0.2310 -0.0446  0.3729
  274loPI   C4A 4378   1.751   3.055   9.549 -0.1620 -0.0761 -0.0568
  274loPI   C5A 4379   1.734   2.930   9.106  0.3139  0.3690 -0.0092
  274loPI   C6A 4380   1.783   2.594   8.832 -0.2746 -0.2248 -0.0728
  274loPI   C1B 4381   2.139   2.957  10.824  0.0199 -0.0776  0.1283
  274loPI   C2B 4382   2.291   2.909  10.424 -0.2805 -0.1415  0.0844
  274loPI   C3B 4383   2.230   3.074  10.057  0.0412  0.0359  0.1384
  274loPI   C4B 4384   2.198   2.879   9.688 -0.1425 -0.0549  0.0026
  275loPI    C1 4385  12.978  14.720  11.494 -0.0666 -0.2118 -0.2563
  275loPI    C2 4386  12.663  14.870  11.691  0.1427 -0.1928  0.0704
  275loPI    C3 4387  12.818  14.517  11.799  0.3112 -0.1439 -0.0071
  275loPI   PO4 4388  12.944  14.665  11.260 -0.1402 -0.0594  0.1208
  275loPI   GL1 4389  12.819  14.884  10.883 -0.0306  0.0363  0.1072
  275loPI   GL2 4390  13.139  14.806  10.806 -0.2113  0.2558  0.1405
  275loPI   C1A 4391  12.676  14.792  10.472  0.1661 -0.2842  0.2062
  275loPI   C2A 4392  12.704  14.767   9.979  0.3485 -0.1324 -0.0416
  275loPI   C3A 4393  12.740  14.662   9.485 -0.1390 -0.1937  0.0350
  275loPI   C4A 4394  12.792  14.657   9.114 -0.4111  0.0632 -0.2524
  275loPI   C5A 4395  12.812  14.566   8.743 -0.2732 -0.2441 -0.0041
  275loPI   C6A 4396  12.720  14.339   8.436  0.0157  0.0313 -0.2402
  275loPI   C1B 4397  13.215  14.771  10.337 -0.1184  0.0807  0.0856
  275loPI   C2B 4398  13.304  14.671  10.016  0.1093 -0.2330 -0.4641
  275loPI   C3B 4399  13.254  14.708   9.555  0.0377 -0.0502 -0.1054
  275loPI   C4B 4400  13.271  14.670   9.147  0.1288 -0.1230  0.2159
  276loPI    C1 4401   6.207   3.748  11.730  0.1179  0.1990 -0.1126
  276loPI    C2 4402   6.131   3.943  12.072  0.1165  0.2407 -0.1366
  276loPI    C3 4403   6.307   3.584  12.081 -0.0573  0.1561 -0.0818
  276loPI   PO4 4404   6.228   3.912  11.552  0.0382  0.1382 -0.0697
  276loPI   GL1 4405   6.148   3.869  11.092  0.0769 -0.2502  0.2903
  276loPI   GL2 4406   5.999   4.085  11.086  0.0427 -0.2447  0.0871
  276loPI   C1A 4407   6.138   3.677  10.755 -0.2091 -0.1371 -0.0352
  276loPI   C2A 4408   6.158   3.666  10.325 -0.0216  0.0751 -0.1778
  276loPI   C3A 4409   6.140   3.739   9.832  0.2189 -0.0368 -0.0663
  276loPI   C4A 4410   6.107   3.732   9.393  0.1922  0.3026 -0.0746
  276loPI   C5A 4411   6.140   3.752   8.898 -0.2501 -0.2537  0.2006
  276loPI   C6A 4412   6.298   3.699   8.528 -0.5236  0.1670 -0.1187
  276loPI   C1B 4413   5.935   4.146  10.635  0.3972  0.0432 -0.5237
  276loPI   C2B 4414   5.920   4.171  10.257  0.0270  0.1417  0.0444
  276loPI   C3B 4415   5.985   4.197   9.818  0.3081  0.1495  0.0076
  276loPI   C4B 4416   6.016   4.269   9.411 -0.2271 -0.1861  0.0773
  277loPI    C1 4417   4.950  11.379  11.526 -0.1078  0.0006 -0.0597
  277loPI    C2 4418   5.153  11.036  11.550  0.0119  0.0762  0.0187
  277loPI    C3 4419   5.004  11.204  11.881 -0.2649 -0.0290 -0.0496
  277loPI   PO4 4420   4.782  11.310  11.364 -0.0523 -0.0079  0.1869
  277loPI   GL1 4421   4.773  11.010  11.024  0.0100 -0.1178 -0.0266
  277loPI   GL2 4422   4.550  11.269  10.852 -0.1834  0.1026  0.1039
  277loPI   C1A 4423   4.738  10.793  10.594  0.2474  0.1053  0.0778
  277loPI   C2A 4424   4.769  10.718  10.246  0.0470  0.2366  0.0286
  277loPI   C3A 4425   4.805  10.836   9.851  0.1595 -0.1326  0.0240
  277loPI   C4A 4426   4.720  10.771   9.499 -0.0046  0.0225 -0.1127
  277loPI   C5A 4427   4.838  10.785   9.092  0.0694 -0.0494 -0.0710
  277loPI   C6A 4428   5.133  10.697   8.735  0.1591  0.1683  0.1149
  277loPI   C1B 4429   4.620  11.271  10.375 -0.0768 -0.1363 -0.2677
  277loPI   C2B 4430   4.524  11.274   9.933 -0.3553  0.2622  0.0374
  277loPI   C3B 4431   4.628  11.293   9.482 -0.2270  0.2721 -0.2989
  277loPI   C4B 4432   4.604  11.385   9.078 -0.1613 -0.2225 -0.1249
  278loPI    C1 4433  17.250   5.843  11.738 -0.2798  0.0254 -0.0957
  278loPI    C2 4434  16.981   5.780  12.027  0.0029 -0.0068  0.1657
  278loPI    C3 4435  17.325   5.965  12.111  0.0873 -0.0117 -0.1537
  278loPI   PO4 4436  17.198   5.636  11.514 -0.1218 -0.1152 -0.1508
  278loPI   GL1 4437  17.117   5.596  11.005  0.0240 -0.1339  0.0579
  278loPI   GL2 4438  17.398   5.545  10.963 -0.2299 -0.2861  0.2738
  278loPI   C1A 4439  16.861   5.615  10.707 -0.0581  0.1635  0.4546
  278loPI   C2A 4440  16.895   5.642  10.359 -0.1263 -0.1007  0.1678
  278loPI   C3A 4441  16.971   5.579   9.826 -0.0036 -0.0204  0.2982
  278loPI   C4A 4442  17.041   5.599   9.425 -0.1230 -0.4162  0.2395
  278loPI   C5A 4443  16.988   5.595   9.047  0.1117  0.1265  0.0387
  278loPI   C6A 4444  17.147   5.441   8.612 -0.0633 -0.0328 -0.0357
  278loPI   C1B 4445  17.394   5.618  10.556 -0.0734  0.2174 -0.0464
  278loPI   C2B 4446  17.389   5.561  10.190  0.2136 -0.0453  0.1422
  278loPI   C3B 4447  17.434   5.459   9.661 -0.1669 -0.2202 -0.2597
  278loPI   C4B 4448  17.475   5.510   9.267 -0.0645 -0.3576 -0.0629
  279loPI    C1 4449   3.858   6.765  11.705  0.1251 -0.0760 -0.0469
  279loPI    C2 4450   4.062   6.953  11.992  0.0119 -0.0005 -0.0152
  279loPI    C3 4451   3.662   6.957  11.996  0.0098  0.0229 -0.1881
  279loPI   PO4 4452   3.907   6.876  11.494 -0.0595  0.2574 -0.1340
  279loPI   GL1 4453   3.972   6.987  11.042  0.0541  0.1643 -0.2829
  279loPI   GL2 4454   3.848   7.266  10.897 -0.1909 -0.0632  0.2516
  279loPI   C1A 4455   4.050   6.768  10.726  0.2220 -0.2585 -0.0252
  279loPI   C2A 4456   4.062   6.792  10.279 -0.0885  0.1422  0.1505
  279loPI   C3A 4457   4.087   6.687   9.879  0.1975 -0.1399  0.1389
  279loPI   C4A 4458   3.975   6.807   9.556  0.3055 -0.1818 -0.1917
  279loPI   C5A 4459   3.962   6.698   9.111  0.2153  0.0196  0.0897
  279loPI   C6A 4460   3.693   6.493   8.824 -0.0488  0.2994 -0.5147
  279loPI   C1B 4461   3.905   7.211  10.479 -0.0057  0.0581 -0.0864
  279loPI   C2B 4462   3.778   7.265  10.120  0.1244  0.1769  0.0499
  279loPI   C3B 4463   3.756   7.247   9.684 -0.0327  0.0456 -0.2985
  279loPI   C4B 4464   3.738   7.147   9.299  0.0810 -0.1673  0.0495
  280loPI    C1 4465   0.812   7.052  11.629 -0.0044 -0.0240  0.1070
  280loPI    C2 4466   1.165   7.180  11.766 -0.0762  0.0019  0.2701
  280loPI    C3 4467   0.850   7.160  12.012 -0.1725 -0.0831  0.1415
  280loPI   PO4 4468   0.952   6.893  11.469  0.1200 -0.1796  0.1583
  280loPI   GL1 4469   0.765   6.998  11.061 -0.1775  0.0084  0.1860
  280loPI   GL2 4470   0.868   7.221  10.746 -0.4012 -0.3852  0.1040
  280loPI   C1A 4471   0.613   6.800  10.682  0.1559 -0.3904  0.0409
  280loPI   C2A 4472   0.620   6.837  10.290 -0.0807 -0.2507 -0.1116
  280loPI   C3A 4473   0.647   6.844   9.854  0.0411 -0.1981 -0.1490
  280loPI   C4A 4474   0.585   6.765   9.433  0.1569  0.1946  0.2849
  280loPI   C5A 4475   0.633   6.849   9.056  0.1222  0.1686  0.1981
  280loPI   C6A 4476   0.693   6.919   8.629  0.0583 -0.1685 -0.1661
  280loPI   C1B 4477   0.953   7.228  10.273  0.4927 -0.2409 -0.2935
  280loPI   C2B 4478   0.970   7.213   9.864 -0.0642  0.0468 -0.1116
  280loPI   C3B 4479   0.909   7.245   9.437 -0.0093  0.2115  0.3580
  280loPI   C4B 4480   0.872   7.272   9.041  0.0119  0.1753 -0.1563
  281loPI    C1 4481   8.284  14.012  11.608 -0.1037 -0.0139 -0.1937
  281loPI    C2 4482   8.168  13.877  11.967  0.3465 -0.2199 -0.1188
  281loPI    C3 4483   8.145  14.268  11.883 -0.0232 -0.2056  0.0286
  281loPI   PO4 4484   8.214  13.982  11.420 -0.0450  0.3008 -0.0451
  281loPI   GL1 4485   8.349  13.895  10.930  0.0056  0.2579 -0.0699
  281loPI   GL2 4486   8.525  14.125  10.726 -0.2727 -0.1267  0.1386
  281loPI   C1A 4487   8.522  13.562  10.634 -0.1256 -0.0190  0.2271
  281loPI   C2A 4488   8.536  13.482  10.276 -0.1773  0.2835  0.2980
  281loPI   C3A 4489   8.427  13.405   9.834  0.1007 -0.2350 -0.1302
  281loPI   C4A 4490   8.534  13.375   9.429 -0.0741  0.2228  0.1210
  281loPI   C5A 4491   8.507  13.407   8.996 -0.1608 -0.1304 -0.1464
  281loPI   C6A 4492   8.865  13.240   8.591 -0.2843 -0.2339 -0.2002
  281loPI   C1B 4493   8.305  13.911  10.387 -0.0405 -0.1901 -0.1434
  281loPI   C2B 4494   8.253  13.893   9.971  0.1423  0.0015 -0.1846
  281loPI   C3B 4495   8.260  13.973   9.555  0.0159  0.1053 -0.0880
  281loPI   C4B 4496   8.243  13.821   9.187  0.0188 -0.1356 -0.1150
  282loPI    C1 4497   3.780   2.431  11.489  0.2158  0.0973  0.0736
  282loPI    C2 4498   3.633   2.791  11.394  0.0807 -0.0302 -0.2140
  282loPI    C3 4499   3.912   2.757  11.678 -0.0281  0.2807 -0.0656
  282loPI   PO4 4500   3.762   2.335  11.174  0.1737  0.1886  0.2613
  282loPI   GL1 4501   3.644   2.609  10.904  0.0537  0.3292 -0.0169
  282loPI   GL2 4502   3.431   2.428  10.762 -0.0372 -0.1550 -0.1384
  282loPI   C1A 4503   3.711   2.717  10.407  0.2411 -0.1613 -0.2601
  282loPI   C2A 4504   3.688   2.727   9.941  0.0027  0.2436 -0.1151
  282loPI   C3A 4505   3.719   2.668   9.478 -0.1934 -0.0061  0.0863
  282loPI   C4A 4506   3.598   2.821   9.068  0.0621  0.1072  0.0850
  282loPI   C5A 4507   3.422   2.675   8.703  0.1278 -0.0052  0.1688
  282loPI   C6A 4508   3.320   2.462   8.326  0.0785 -0.1729  0.1459
  282loPI   C1B 4509   3.376   2.262  10.299 -0.1243 -0.5385  0.2736
  282loPI   C2B 4510   3.423   2.332   9.855 -0.1924 -0.1545 -0.0905
  282loPI   C3B 4511   3.368   2.336   9.436 -0.1373  0.0742  0.2422
  282loPI   C4B 4512   3.261   2.363   9.070 -0.3904  0.0773  0.0636
  283loPI    C1 4513   4.748  10.752  11.534 -0.3328 -0.4636  0.0576
  283loPI    C2 4514   4.568  11.044  11.739  0.2309  0.0140 -0.0998
  283loPI    C3 4515   4.687  10.711  11.927 -0.3397 -0.0891  0.0988
  283loPI   PO4 4516   4.625  10.684  11.340 -0.0017  0.0730 -0.1931
  283loPI   GL1 4517   4.453  10.528  10.872 -0.1501  0.0280  0.1104
  283loPI   GL2 4518   4.315  10.742  10.960 -0.2456  0.2162  0.2822
  283loPI   C1A 4519   4.513  10.302  10.611  0.2793  0.2211  0.0111
  283loPI   C2A 4520   4.445  10.368  10.245 -0.2086 -0.3042  0.1003
  283loPI   C3A 4521   4.471  10.496   9.849 -0.0123  0.1676 -0.1282
  283loPI   C4A 4522   4.389  10.353   9.585  0.0504  0.0872  0.1356
  283loPI   C5A 4523   4.400  10.392   9.148  0.0437  0.3262 -0.0086
  283loPI   C6A 4524   4.076  10.339   8.814  0.1093  0.3188  0.2501
  283loPI   C1B 4525   4.159  10.879  10.512  0.0452 -0.1034  0.0757
  283loPI   C2B 4526   4.210  10.875  10.082 -0.2047 -0.0914 -0.0405
  283loPI   C3B 4527   4.300  10.951   9.620 -0.0897 -0.3591  0.2572
  283loPI   C4B 4528   4.337  10.944   9.106  0.0437 -0.0007  0.2006
  284loPI    C1 4529   0.269   3.909  11.703  0.0590  0.1779 -0.1222
  284loPI    C2 4530  -0.088   4.013  11.850  0.0181  0.0500 -0.1298
  284loPI    C3 4531   0.121   3.719  12.022  0.1096  0.1090 -0.1395
  284loPI   PO4 4532   0.248   4.092  11.465  0.0030 -0.0485 -0.1232
  284loPI   GL1 4533   0.110   4.137  11.034 -0.0209 -0.2213  0.0767
  284loPI   GL2 4534  -0.182   4.078  10.855  0.0478  0.3732 -0.0529
  284loPI   C1A 4535   0.260   4.126  10.606 -0.3228  0.0608  0.2158
  284loPI   C2A 4536   0.251   4.166  10.203  0.5020  0.1140 -0.1121
  284loPI   C3A 4537   0.252   4.124   9.815  0.2254  0.3922  0.0480
  284loPI   C4A 4538   0.172   3.958   9.410 -0.2183 -0.1108  0.0759
  284loPI   C5A 4539   0.277   4.126   9.034 -0.1188 -0.0534  0.1689
  284loPI   C6A 4540   0.413   4.043   8.562  0.0595  0.0460  0.2381
  284loPI   C1B 4541  -0.203   4.213  10.496  0.2539  0.1717  0.2027
  284loPI   C2B 4542  -0.268   4.229  10.051  0.0898  0.2080 -0.1445
  284loPI   C3B 4543  -0.262   4.157   9.565 -0.0601 -0.3837 -0.1747
  284loPI   C4B 4544  -0.273   4.124   9.155 -0.1242  0.1438 -0.0973
  285loPI    C1 4545   1.320   7.730  11.641 -0.0859 -0.1812  0.1747
  285loPI    C2 4546   1.441   8.065  11.823  0.0225 -0.2309  0.1952
  285loPI    C3 4547   1.614   7.716  11.912  0.0292 -0.2659  0.0470
  285loPI   PO4 4548   1.310   7.848  11.350 -0.0605  0.0218  0.0300
  285loPI   GL1 4549   1.541   7.795  11.004 -0.1831  0.1207  0.2065
  285loPI   GL2 4550   1.402   7.489  10.914 -0.0969  0.1028 -0.1955
  285loPI   C1A 4551   1.604   8.013  10.747 -0.2116 -0.1682 -0.1785
  285loPI   C2A 4552   1.626   8.018  10.296 -0.2859 -0.0249  0.1352
  285loPI   C3A 4553   1.581   7.997   9.830 -0.3930 -0.2175 -0.1327
  285loPI   C4A 4554   1.605   7.963   9.439  0.0370  0.0089 -0.2041
  285loPI   C5A 4555   1.691   8.001   9.070  0.1039  0.2698  0.3333
  285loPI   C6A 4556   1.589   8.045   8.652  0.2480 -0.0335 -0.3414
  285loPI   C1B 4557   1.281   7.623  10.565  0.0587  0.0104  0.1429
  285loPI   C2B 4558   1.300   7.659  10.150  0.0682 -0.1055  0.2997
  285loPI   C3B 4559   1.275   7.609   9.740 -0.0383  0.1259  0.2898
  285loPI   C4B 4560   1.310   7.633   9.302  0.1911  0.1732  0.0565
  286loPI    C1 4561  12.196  11.919  11.848 -0.2722  0.1046  0.0117
  286loPI    C2 4562  12.476  11.985  12.126  0.1825 -0.3699 -0.3131
  286loPI    C3 4563  12.179  11.727  12.199  0.0074 -0.1103 -0.0880
  286loPI   PO4 4564  12.310  11.775  11.588 -0.0823  0.0877  0.1706
  286loPI   GL1 4565  12.119  11.924  11.138 -0.1008 -0.0180 -0.0964
  286loPI   GL2 4566  12.324  11.612  11.003 -0.1196  0.2931  0.0975
  286loPI   C1A 4567  12.379  12.159  10.705  0.3794  0.2668 -0.0694
  286loPI   C2A 4568  12.338  12.133  10.296  0.2647  0.0957  0.1238
  286loPI   C3A 4569  12.471  12.078   9.901 -0.1391 -0.2661 -0.0343
  286loPI   C4A 4570  12.520  11.958   9.452 -0.1065  0.1922 -0.1326
  286loPI   C5A 4571  12.412  11.944   9.027  0.3625 -0.1915  0.1591
  286loPI   C6A 4572  12.438  12.040   8.592  0.1746 -0.1355  0.2295
  286loPI   C1B 4573  12.549  11.632  10.606 -0.3019  0.1394 -0.0887
  286loPI   C2B 4574  12.655  11.562  10.164  0.1832  0.0411  0.2283
  286loPI   C3B 4575  12.647  11.496   9.723 -0.0413 -0.3442  0.1517
  286loPI   C4B 4576  12.635  11.539   9.297  0.2875  0.3717 -0.2525
  287loPI    C1 4577   5.967   8.650  11.724 -0.1659 -0.0170  0.0264
  287loPI    C2 4578   5.921   8.668  12.121  0.0739 -0.0894  0.0588
  287loPI    C3 4579   5.969   9.005  11.909 -0.0628 -0.0502  0.0893
  287loPI   PO4 4580   5.785   8.569  11.571  0.1342  0.1985 -0.3040
  287loPI   GL1 4581   5.677   8.854  11.181 -0.1419  0.1246  0.1565
  287loPI   GL2 4582   5.431   9.054  11.147  0.3277 -0.0750  0.0407
  287loPI   C1A 4583   5.592   8.825  10.676  0.4222 -0.2782  0.1731
  287loPI   C2A 4584   5.524   8.912  10.228  0.0374  0.1231  0.0090
  287loPI   C3A 4585   5.494   8.801   9.723  0.1022 -0.1249 -0.1686
  287loPI   C4A 4586   5.540   8.790   9.253 -0.0708  0.1274  0.2456
  287loPI   C5A 4587   5.283   8.690   8.856 -0.2548 -0.0771  0.3068
  287loPI   C6A 4588   5.210   8.693   8.371  0.5308 -0.1059  0.0395
  287loPI   C1B 4589   5.072   8.982  10.755 -0.1391 -0.0781 -0.3193
  287loPI   C2B 4590   5.037   8.921  10.249  0.1971  0.0054 -0.1066
  287loPI   C3B 4591   5.043   8.892   9.880  0.2648 -0.1232  0.0506
  287loPI   C4B 4592   5.040   8.848   9.414 -0.0192 -0.1095 -0.3180
  288loPI    C1 4593   8.339   1.513  11.690 -0.1120  0.1872 -0.0352
  288loPI    C2 4594   7.960   1.418  11.776 -0.0621  0.0736  0.0625
  288loPI    C3 4595   8.256   1.293  12.014  0.0327  0.2051  0.0149
  288loPI   PO4 4596   8.331   1.494  11.362 -0.0353  0.1509  0.1008
  288loPI   GL1 4597   8.345   1.221  11.035  0.2680  0.0337 -0.0465
  288loPI   GL2 4598   8.046   1.112  10.931  0.2783 -0.0956 -0.1205
  288loPI   C1A 4599   8.429   1.503  10.651  0.2398  0.0483  0.0364
  288loPI   C2A 4600   8.436   1.622  10.236  0.2070 -0.0119 -0.2018
  288loPI   C3A 4601   8.428   1.644   9.798  0.1673  0.0381 -0.2959
  288loPI   C4A 4602   8.433   1.610   9.400  0.2429 -0.1519  0.1345
  288loPI   C5A 4603   8.355   1.671   9.004 -0.2964 -0.1875 -0.0966
  288loPI   C6A 4604   8.208   1.356   8.663  0.0449 -0.5340  0.1199
  288loPI   C1B 4605   8.141   1.120  10.520 -0.0540  0.1324 -0.0423
  288loPI   C2B 4606   8.119   1.232  10.103  0.2332  0.0221  0.0374
  288loPI   C3B 4607   8.077   1.210   9.712 -0.1995  0.1751  0.3979
  288loPI   C4B 4608   8.154   1.258   9.208 -0.1294  0.0824 -0.0551
  289loPI    C1 4609   6.624   2.338  11.638  0.1769 -0.0805  0.1514
  289loPI    C2 4610   6.560   2.732  11.662 -0.1118 -0.1053 -0.1417
  289loPI    C3 4611   6.913   2.579  11.773 -0.0414  0.2184  0.0933
  289loPI   PO4 4612   6.528   2.233  11.392  0.2622 -0.0951 -0.3310
  289loPI   GL1 4613   6.616   2.312  10.977  0.0435  0.1021  0.1627
  289loPI   GL2 4614   6.877   2.137  10.945 -0.1979  0.1086  0.1025
  289loPI   C1A 4615   6.752   2.332  10.508 -0.0787  0.0740 -0.2786
  289loPI   C2A 4616   6.735   2.342  10.075 -0.2385  0.1171  0.1774
  289loPI   C3A 4617   6.671   2.310   9.611  0.0596  0.0091 -0.1147
  289loPI   C4A 4618   6.699   2.324   9.159  0.1606 -0.3301  0.1401
  289loPI   C5A 4619   6.853   2.147   8.856 -0.2554  0.2467 -0.0975
  289loPI   C6A 4620   6.979   2.126   8.336  0.0677 -0.1410 -0.1434
  289loPI   C1B 4621   6.874   1.787  10.599 -0.2503 -0.1041 -0.2202
  289loPI   C2B 4622   6.918   1.765  10.120 -0.1263 -0.1520 -0.0221
  289loPI   C3B 4623   6.938   1.825   9.692 -0.0513 -0.0047  0.3837
  289loPI   C4B 4624   6.799   1.794   9.266 -0.0313  0.0967  0.1462
  290loPI    C1 4625   3.887  17.078  11.736  0.0184  0.0104  0.0118
  290loPI    C2 4626   3.711  17.437  11.749  0.2894  0.1433  0.0860
  290loPI    C3 4627   3.717  17.206  12.075  0.0320  0.0283  0.0119
  290loPI   PO4 4628   3.819  17.028  11.521 -0.0306  0.2323 -0.2976
  290loPI   GL1 4629   3.899  17.063  11.073 -0.2165  0.0588  0.2775
  290loPI   GL2 4630   4.125  17.146  10.947  0.0127  0.0295  0.1411
  290loPI   C1A 4631   3.757  16.874  10.731 -0.2680  0.3160  0.2143
  290loPI   C2A 4632   3.749  16.824  10.322  0.0953  0.1039 -0.2359
  290loPI   C3A 4633   3.814  16.815   9.969 -0.2118  0.1384 -0.1175
  290loPI   C4A 4634   3.789  16.838   9.534  0.1337  0.0294  0.0595
  290loPI   C5A 4635   3.887  16.891   9.095 -0.2769 -0.0726 -0.0210
  290loPI   C6A 4636   4.058  16.749   8.721  0.3740  0.0333  0.1345
  290loPI   C1B 4637   4.076  17.165  10.504 -0.0347 -0.0602  0.0476
  290loPI   C2B 4638   4.066  17.215  10.083  0.0019  0.0347  0.1100
  290loPI   C3B 4639   4.069  17.253   9.676 -0.2103  0.3183 -0.1413
  290loPI   C4B 4640   4.169  17.286   9.297  0.1307 -0.0452  0.0353
  291loPI    C1 4641   3.056  17.139  11.468 -0.0916  0.1563 -0.0685
  291loPI    C2 4642   3.079  17.329  11.819  0.3322  0.3523 -0.1971
  291loPI    C3 4643   3.363  17.067  11.714 -0.1536 -0.2360 -0.0982
  291loPI   PO4 4644   2.987  17.347  11.311  0.1050 -0.0656 -0.1429
  291loPI   GL1 4645   3.092  17.324  10.915  0.2653  0.0147 -0.0642
  291loPI   GL2 4646   3.328  17.159  10.918  0.1451  0.2644  0.2107
  291loPI   C1A 4647   3.023  17.288  10.467 -0.0349  0.1355  0.0351
  291loPI   C2A 4648   3.058  17.342   9.981  0.3518  0.3478 -0.2077
  291loPI   C3A 4649   3.084  17.419   9.552 -0.2819 -0.3101  0.1203
  291loPI   C4A 4650   3.079  17.400   9.100  0.2255 -0.0491  0.0117
  291loPI   C5A 4651   2.981  17.704   8.916  0.1206  0.1912 -0.0357
  291loPI   C6A 4652   2.604  18.005   8.903 -0.0713  0.3101  0.0277
  291loPI   C1B 4653   3.499  17.289  10.543 -0.2869  0.0959 -0.2467
  291loPI   C2B 4654   3.560  17.260  10.215  0.2209  0.3930  0.0183
  291loPI   C3B 4655   3.513  17.298   9.807  0.0530 -0.1111  0.4850
  291loPI   C4B 4656   3.593  17.324   9.297  0.0223  0.2922 -0.1885
  292loPI    C1 4657  11.072   6.302  11.699 -0.0761  0.2061  0.0687
  292loPI    C2 4658  11.401   6.139  11.858  0.0176  0.2597 -0.0684
  292loPI    C3 4659  11.077   6.197  12.085  0.1656  0.3793  0.1151
  292loPI   PO4 4660  11.078   6.200  11.445  0.0976  0.1679  0.1120
  292loPI   GL1 4661  11.045   6.138  11.013 -0.2438  0.2919  0.0712
  292loPI   GL2 4662  11.036   6.527  11.031  0.1197 -0.2421 -0.2353
  292loPI   C1A 4663  11.047   5.908  10.516  0.0938 -0.0018  0.2032
  292loPI   C2A 4664  11.069   5.900  10.075 -0.2655  0.1722  0.1338
  292loPI   C3A 4665  11.057   5.929   9.641 -0.0735 -0.0531  0.0738
  292loPI   C4A 4666  11.160   5.899   9.202  0.0096  0.0173  0.1821
  292loPI   C5A 4667  11.335   5.867   8.843 -0.1062 -0.2039 -0.2175
  292loPI   C6A 4668  11.563   5.965   8.493 -0.1868  0.1015 -0.0366
  292loPI   C1B 4669  10.903   6.414  10.565 -0.0609 -0.0496 -0.0786
  292loPI   C2B 4670  10.877   6.462  10.121  0.2554  0.0092  0.0200
  292loPI   C3B 4671  10.865   6.471   9.692  0.2781  0.0603 -0.0179
  292loPI   C4B 4672  10.807   6.318   9.268 -0.1268  0.1449  0.0623
  293loPI    C1 4673  10.488   4.734  11.185 -0.2353 -0.0435 -0.0280
  293loPI    C2 4674  10.684   4.442  11.376 -0.1296 -0.0410 -0.1314
  293loPI    C3 4675  10.334   4.574  11.517 -0.1974 -0.2452 -0.1063
  293loPI   PO4 4676  10.580   4.733  10.935  0.2890  0.3323  0.0024
  293loPI   GL1 4677  10.708   4.732  10.637 -0.0093  0.1823  0.0438
  293loPI   GL2 4678  10.958   4.994  10.611 -0.2341  0.0523 -0.0896
  293loPI   C1A 4679  10.617   4.595  10.220  0.0726  0.0153  0.1682
  293loPI   C2A 4680  10.700   4.533   9.770  0.2190 -0.2030  0.0542
  293loPI   C3A 4681  10.514   4.500   9.351 -0.2184 -0.2183 -0.0230
  293loPI   C4A 4682  10.671   4.513   8.886 -0.1086 -0.0316 -0.3044
  293loPI   C5A 4683  10.663   4.676   8.518  0.3144 -0.0169 -0.2595
  293loPI   C6A 4684  10.700   4.955   8.147  0.0082  0.0148  0.1157
  293loPI   C1B 4685  11.104   5.049  10.249 -0.4632 -0.0521  0.2462
  293loPI   C2B 4686  10.941   4.955   9.942 -0.2175 -0.0926 -0.0246
  293loPI   C3B 4687  11.021   5.037   9.534 -0.0283 -0.1053  0.0967
  293loPI   C4B 4688  10.947   4.891   9.101  0.0691 -0.0124 -0.0525
  294loPI    C1 4689  10.379  10.349  11.402  0.0744  0.0268 -0.0191
  294loPI    C2 4690  10.370  10.533  11.757 -0.3457  0.0271 -0.0244
  294loPI    C3 4691  10.126  10.225  11.686 -0.0938 -0.1288 -0.2336
  294loPI   PO4 4692  10.425  10.537  11.239 -0.0626 -0.0409  0.1523
  294loPI   GL1 4693  10.198  10.779  11.003  0.1733  0.1386  0.1358
  294loPI   GL2 4694  10.159  10.427  10.819 -0.0656  0.1993 -0.0697
  294loPI   C1A 4695  10.342  10.964  10.581 -0.1800 -0.1400  0.0617
  294loPI   C2A 4696  10.466  10.979  10.072 -0.0276  0.2782  0.0847
  294loPI   C3A 4697  10.440  10.914   9.648  0.0391 -0.2786  0.0018
  294loPI   C4A 4698  10.527  10.881   9.192  0.0666 -0.1571  0.0070
  294loPI   C5A 4699  10.360  11.064   8.786  0.2116 -0.1261  0.1611
  294loPI   C6A 4700  10.505  11.424   8.494 -0.1992  0.2370 -0.0498
  294loPI   C1B 4701  10.124  10.545  10.324 -0.0693 -0.0266  0.0117
  294loPI   C2B 4702  10.197  10.525   9.854 -0.1270  0.0038  0.1141
  294loPI   C3B 4703  10.235  10.514   9.419 -0.3318 -0.0643 -0.3051
  294loPI   C4B 4704  10.220  10.605   9.013  0.0908  0.2974 -0.1397
  295loPI    C1 4705  14.187   6.667  11.631 -0.0515 -0.0927  0.1709
  295loPI    C2 4706  13.867   6.855  11.781 -0.1353  0.0879 -0.2192
  295loPI    C3 4707  14.203   6.828  11.997 -0.2646  0.2995  0.0140
  295loPI   PO4 4708  14.318   6.751  11.480  0.5304  0.0882  0.0897
  295loPI   GL1 4709  14.304   6.769  10.994  0.1057 -0.0262  0.0800
  295loPI   GL2 4710  14.052   6.799  10.901 -0.1783 -0.0711 -0.0313
  295loPI   C1A 4711  14.537   6.784  10.653  0.3317  0.0950  0.2914
  295loPI   C2A 4712  14.488   6.702  10.223  0.0623 -0.0090 -0.0604
  295loPI   C3A 4713  14.479   6.739   9.808 -0.0287 -0.2353 -0.4714
  295loPI   C4A 4714  14.573   6.656   9.356 -0.1061 -0.1999 -0.1632
  295loPI   C5A 4715  14.599   6.799   8.876  0.2205  0.0141  0.0567
  295loPI   C6A 4716  14.709   6.546   8.484  0.2171 -0.0697 -0.0574
  295loPI   C1B 4717  14.027   6.835  10.402  0.0151  0.0045  0.0117
  295loPI   C2B 4718  13.980   6.785   9.995  0.2211 -0.0417 -0.0327
  295loPI   C3B 4719  14.008   6.815   9.529  0.2252  0.0253  0.0541
  295loPI   C4B 4720  14.065   6.732   9.041  0.0803  0.0062 -0.1713
  296loPI    C1 4721   3.635   6.077  11.752  0.0400  0.1275  0.1437
  296loPI    C2 4722   3.750   5.788  12.003  0.0847 -0.0539 -0.0823
  296loPI    C3 4723   3.364   5.889  11.978  0.0910  0.0260  0.1213
  296loPI   PO4 4724   3.681   6.021  11.547 -0.0011 -0.0274 -0.3125
  296loPI   GL1 4725   3.784   5.871  11.079  0.1903  0.0504 -0.0828
  296loPI   GL2 4726   3.958   5.612  11.016 -0.0147 -0.1401 -0.2282
  296loPI   C1A 4727   3.839   5.936  10.598  0.3204 -0.1481 -0.2287
  296loPI   C2A 4728   3.929   5.821  10.239  0.1734 -0.4479 -0.0377
  296loPI   C3A 4729   3.856   5.839   9.880  0.2236 -0.3222  0.4538
  296loPI   C4A 4730   3.888   5.877   9.424  0.4450 -0.1561 -0.1506
  296loPI   C5A 4731   3.877   5.897   9.028  0.0703 -0.3131  0.2821
  296loPI   C6A 4732   4.040   5.695   8.624 -0.2915 -0.0520 -0.0817
  296loPI   C1B 4733   4.075   5.475  10.555 -0.0622 -0.0523 -0.1550
  296loPI   C2B 4734   4.086   5.393  10.030 -0.1578  0.2184  0.0592
  296loPI   C3B 4735   3.992   5.377   9.551  0.0111 -0.0805 -0.0389
  296loPI   C4B 4736   4.016   5.421   9.125 -0.1209  0.2227  0.2388
  297loPI    C1 4737   3.012   4.292  11.664 -0.1567 -0.1110 -0.0732
  297loPI    C2 4738   2.937   3.942  11.843 -0.0551 -0.0158  0.1600
  297loPI    C3 4739   2.635   4.167  11.709 -0.1181 -0.2181 -0.0434
  297loPI   PO4 4740   3.239   4.223  11.523 -0.0890  0.1794  0.0324
  297loPI   GL1 4741   3.240   4.299  11.092 -0.2741  0.3129 -0.1542
  297loPI   GL2 4742   3.458   4.575  11.137 -0.1344  0.1237 -0.1028
  297loPI   C1A 4743   3.092   4.224  10.665 -0.0472 -0.1025 -0.0655
  297loPI   C2A 4744   3.103   4.156  10.148 -0.0876  0.1002  0.0632
  297loPI   C3A 4745   3.136   4.087   9.681  0.1551  0.1198  0.1064
  297loPI   C4A 4746   3.141   4.185   9.245 -0.1920 -0.1942 -0.2892
  297loPI   C5A 4747   2.821   4.222   8.956 -0.2685 -0.1262  0.1159
  297loPI   C6A 4748   2.492   4.134   8.915  0.0272 -0.1689  0.0724
  297loPI   C1B 4749   3.476   4.574  10.723  0.0160  0.1606 -0.1261
  297loPI   C2B 4750   3.437   4.538  10.232 -0.1404 -0.3295  0.2127
  297loPI   C3B 4751   3.438   4.488   9.781  0.0501  0.1552  0.3653
  297loPI   C4B 4752   3.432   4.608   9.350  0.2162  0.1216  0.0769
  298loPI    C1 4753   1.895  12.509  11.769 -0.1482  0.0874 -0.0612
  298loPI    C2 4754   1.893  12.175  11.989 -0.0869  0.0627 -0.0979
  298loPI    C3 4755   1.816  12.528  12.161 -0.0657  0.0404 -0.0421
  298loPI   PO4 4756   1.722  12.509  11.590 -0.0929 -0.1030 -0.0767
  298loPI   GL1 4757   1.606  12.292  11.236 -0.0050 -0.2742  0.1166
  298loPI   GL2 4758   1.604  12.613  11.055 -0.1895 -0.1157 -0.1072
  298loPI   C1A 4759   1.647  12.030  10.833 -0.1740  0.2741 -0.1450
  298loPI   C2A 4760   1.828  12.081  10.489  0.0762  0.1089  0.4781
  298loPI   C3A 4761   1.858  12.004  10.089  0.1277  0.1829  0.1378
  298loPI   C4A 4762   1.818  11.964   9.680  0.3028 -0.0293  0.1296
  298loPI   C5A 4763   1.746  12.067   9.242  0.0544 -0.1337 -0.2924
  298loPI   C6A 4764   1.749  11.982   8.846  0.0810 -0.1423 -0.0980
  298loPI   C1B 4765   1.604  12.596  10.614  0.1750  0.1637  0.0540
  298loPI   C2B 4766   1.615  12.445  10.202 -0.0139  0.0776  0.0640
  298loPI   C3B 4767   1.671  12.473   9.791  0.0465  0.1377 -0.1324
  298loPI   C4B 4768   1.565  12.567   9.467  0.0962  0.0299 -0.2933
  299loPI    C1 4769   9.566   6.863  11.330 -0.1004  0.0703 -0.0508
  299loPI    C2 4770   9.641   6.558  11.577 -0.0623  0.0710 -0.0613
  299loPI    C3 4771   9.502   6.903  11.723  0.2637  0.1793  0.0013
  299loPI   PO4 4772   9.718   6.872  11.129  0.3018  0.1654 -0.1353
  299loPI   GL1 4773   9.588   6.918  10.750  0.0555 -0.1571 -0.1281
  299loPI   GL2 4774   9.272   7.035  10.664 -0.1884  0.2093  0.0195
  299loPI   C1A 4775   9.644   6.995  10.245 -0.1937 -0.2556  0.3015
  299loPI   C2A 4776   9.726   6.950   9.773  0.0932 -0.0666  0.1804
  299loPI   C3A 4777   9.629   7.034   9.343  0.1150  0.1685 -0.0761
  299loPI   C4A 4778   9.592   7.003   8.930 -0.0739  0.3785  0.2249
  299loPI   C5A 4779   9.658   6.932   8.537  0.0948  0.2202 -0.0440
  299loPI   C6A 4780   9.581   7.139   8.033 -0.1499  0.0099 -0.0660
  299loPI   C1B 4781   9.096   6.910  10.252  0.1108  0.2694 -0.0008
  299loPI   C2B 4782   9.221   6.963   9.781  0.0318  0.0654  0.4012
  299loPI   C3B 4783   9.135   7.025   9.382 -0.0038  0.3685  0.0842
  299loPI   C4B 4784   9.129   7.072   9.063  0.1054 -0.3355 -0.0949
  300loPI    C1 4785   4.017   5.226  11.507  0.0110  0.0861  0.1311
  300loPI    C2 4786   3.821   5.567  11.579 -0.1040  0.1103 -0.2712
  300loPI    C3 4787   3.835   5.281  11.859 -0.1900  0.3560 -0.0114
  300loPI   PO4 4788   4.371   5.337  11.364 -0.0630 -0.3549  0.1260
  300loPI   GL1 4789   4.423   5.358  10.868  0.2124  0.0823 -0.0651
  300loPI   GL2 4790   4.246   4.994  11.023  0.1516 -0.1777  0.0803
  300loPI   C1A 4791   4.513   5.278  10.465 -0.0028  0.0554 -0.2478
  300loPI   C2A 4792   4.603   5.283  10.060 -0.2361 -0.0741 -0.0537
  300loPI   C3A 4793   4.555   5.326   9.692  0.0489 -0.0228  0.3219
  300loPI   C4A 4794   4.536   5.379   9.183  0.0936 -0.1737 -0.0895
  300loPI   C5A 4795   4.363   5.352   8.801  0.3093 -0.1506 -0.0407
  300loPI   C6A 4796   4.045   5.158   8.503 -0.3088  0.3774 -0.0492
  300loPI   C1B 4797   4.149   4.859  10.595 -0.3304  0.2448  0.0981
  300loPI   C2B 4798   4.214   4.880  10.168  0.3229 -0.2279 -0.0575
  300loPI   C3B 4799   4.251   4.948   9.658 -0.1071  0.0336 -0.3794
  300loPI   C4B 4800   4.244   4.934   9.196  0.1763 -0.0266  0.1719
  301loPI    C1 4801  12.264  13.406  11.500  0.0922 -0.0603  0.0734
  301loPI    C2 4802  11.943  13.559  11.683 -0.0190 -0.0164 -0.1548
  301loPI    C3 4803  12.253  13.428  11.899 -0.0759  0.1925  0.0570
  301loPI   PO4 4804  12.156  13.400  11.158  0.0322 -0.1447  0.0615
  301loPI   GL1 4805  12.363  13.652  10.807  0.0536 -0.0515  0.0505
  301loPI   GL2 4806  12.538  13.367  10.917  0.0540 -0.0321  0.0697
  301loPI   C1A 4807  12.249  13.561  10.438 -0.0693  0.3158 -0.0047
  301loPI   C2A 4808  12.305  13.493   9.991  0.3685 -0.2945  0.2079
  301loPI   C3A 4809  12.369  13.424   9.592 -0.0485 -0.1033  0.0396
  301loPI   C4A 4810  12.296  13.379   9.145 -0.1065  0.4082 -0.0510
  301loPI   C5A 4811  12.089  13.266   8.795 -0.1717 -0.1942  0.1144
  301loPI   C6A 4812  11.922  13.255   8.400  0.1691 -0.2225  0.1565
  301loPI   C1B 4813  12.522  13.112  10.592 -0.2893 -0.0275 -0.1691
  301loPI   C2B 4814  12.620  13.010  10.146  0.1905  0.3230 -0.0784
  301loPI   C3B 4815  12.498  12.949   9.757 -0.1382  0.2969 -0.0008
  301loPI   C4B 4816  12.509  12.884   9.379  0.2217 -0.0169  0.0191
  302loPI    C1 4817  15.560  16.256  11.576  0.2147  0.1500  0.5445
  302loPI    C2 4818  15.172  16.318  11.503  0.3688  0.3922 -0.1472
  302loPI    C3 4819  15.315  16.359  11.874 -0.2875  0.1363  0.1497
  302loPI   PO4 4820  15.551  15.983  11.390 -0.3195 -0.2305  0.0029
  302loPI   GL1 4821  15.573  15.793  11.009 -0.0540  0.1653 -0.1769
  302loPI   GL2 4822  15.245  16.001  10.947 -0.2757  0.0543  0.0840
  302loPI   C1A 4823  15.658  15.886  10.555 -0.0680 -0.1919 -0.2512
  302loPI   C2A 4824  15.640  15.759  10.159 -0.2442  0.3362 -0.0050
  302loPI   C3A 4825  15.725  15.762   9.758  0.1930  0.0541 -0.1421
  302loPI   C4A 4826  15.661  15.682   9.326  0.0425 -0.1776 -0.0628
  302loPI   C5A 4827  15.434  15.635   8.961 -0.0106 -0.1328 -0.0718
  302loPI   C6A 4828  15.040  15.655   8.728 -0.0107 -0.0446  0.0041
  302loPI   C1B 4829  15.135  15.983  10.569 -0.2327  0.2658 -0.0662
  302loPI   C2B 4830  15.143  15.874  10.153  0.0025 -0.1621  0.0048
  302loPI   C3B 4831  15.143  15.776   9.696 -0.0845 -0.1875 -0.0378
  302loPI   C4B 4832  15.155  15.658   9.364  0.3811 -0.3467  0.2344
  303loPI    C1 4833   8.011   8.618  11.792  0.1621  0.1116 -0.1787
  303loPI    C2 4834   7.885   8.619  12.171  0.2174  0.1932 -0.1602
  303loPI    C3 4835   8.111   8.919  12.035  0.0876  0.2310 -0.2952
  303loPI   PO4 4836   7.867   8.491  11.570 -0.1352 -0.0978  0.0601
  303loPI   GL1 4837   7.999   8.603  11.141 -0.0975 -0.0517  0.0508
  303loPI   GL2 4838   8.136   8.854  11.046 -0.1869 -0.1297 -0.1386
  303loPI   C1A 4839   8.161   8.432  10.778  0.1666 -0.1763 -0.0797
  303loPI   C2A 4840   8.030   8.499  10.462  0.3114  0.0102 -0.0049
  303loPI   C3A 4841   8.102   8.546  10.009  0.0030  0.1121 -0.0615
  303loPI   C4A 4842   8.050   8.492   9.647 -0.1770  0.1816 -0.0449
  303loPI   C5A 4843   7.957   8.528   9.121  0.0154 -0.1979  0.3419
  303loPI   C6A 4844   8.009   8.553   8.714  0.0381 -0.0963 -0.0034
  303loPI   C1B 4845   7.906   9.003  10.737 -0.2756  0.1814  0.3817
  303loPI   C2B 4846   7.863   8.935  10.228 -0.0002  0.0658  0.1187
  303loPI   C3B 4847   7.851   8.980   9.766 -0.0099  0.1543  0.2288
  303loPI   C4B 4848   7.858   8.985   9.314 -0.1170 -0.1093  0.0241
  304loPI    C1 4849   3.471   8.621  11.826  0.1525  0.0740 -0.1062
  304loPI    C2 4850   3.689   8.933  11.948  0.0008  0.1735 -0.0866
  304loPI    C3 4851   3.314   8.888  12.079  0.0346 -0.0390 -0.0588
  304loPI   PO4 4852   3.495   8.695  11.492 -0.0789 -0.0905  0.1019
  304loPI   GL1 4853   3.757   8.534  11.166  0.0097 -0.1969 -0.2000
  304loPI   GL2 4854   4.027   8.757  11.145  0.0149 -0.0997 -0.1615
  304loPI   C1A 4855   3.678   8.590  10.713  0.2864 -0.1032  0.2095
  304loPI   C2A 4856   3.764   8.568  10.229  0.0247  0.2298 -0.2279
  304loPI   C3A 4857   3.738   8.600   9.730  0.2869 -0.3119  0.1800
  304loPI   C4A 4858   3.714   8.557   9.267 -0.0267  0.2627 -0.0051
  304loPI   C5A 4859   3.509   8.248   9.026 -0.0426 -0.1590 -0.0330
  304loPI   C6A 4860   3.636   7.849   8.771 -0.1077  0.1104  0.2509
  304loPI   C1B 4861   4.197   8.581  10.864 -0.2407  0.4332 -0.0627
  304loPI   C2B 4862   4.221   8.538  10.432  0.3210  0.0141 -0.0452
  304loPI   C3B 4863   4.218   8.425   9.987 -0.1128  0.0890  0.3708
  304loPI   C4B 4864   4.258   8.471   9.542 -0.2511 -0.0548 -0.1140
  305loPI    C1 4865   9.102   8.135  11.382 -0.1180 -0.1211  0.0848
  305loPI    C2 4866   9.179   8.337  11.719  0.1865 -0.2105  0.0719
  305loPI    C3 4867   9.313   7.963  11.675  0.3749 -0.1088 -0.2512
  305loPI   PO4 4868   8.905   8.323  11.303  0.1554  0.3525 -0.0023
  305loPI   GL1 4869   9.090   8.378  10.905  0.0700  0.1253 -0.1218
  305loPI   GL2 4870   9.142   8.036  10.900 -0.2175  0.2209 -0.0382
  305loPI   C1A 4871   9.005   8.432  10.452 -0.2820  0.0321  0.1300
  305loPI   C2A 4872   9.118   8.364  10.049 -0.1594 -0.0270 -0.2322
  305loPI   C3A 4873   9.067   8.390   9.648  0.2729 -0.1397 -0.1215
  305loPI   C4A 4874   8.961   8.444   9.279 -0.2623 -0.2740 -0.0725
  305loPI   C5A 4875   9.016   8.400   8.806  0.0343 -0.3527  0.1189
  305loPI   C6A 4876   8.974   8.446   8.368  0.0663 -0.2258 -0.1295
  305loPI   C1B 4877   9.191   7.957  10.518  0.1698  0.0708 -0.1635
  305loPI   C2B 4878   9.166   7.845  10.055 -0.1661 -0.0698  0.1082
  305loPI   C3B 4879   9.228   7.859   9.601  0.2528 -0.0265 -0.0493
  305loPI   C4B 4880   9.199   7.958   9.134 -0.1417 -0.2254 -0.2598
  306loPI    C1 4881  10.437   3.598  11.454  0.1402 -0.0944 -0.0458
  306loPI    C2 4882  10.824   3.500  11.471  0.1314 -0.1005  0.1393
  306loPI    C3 4883  10.626   3.593  11.806  0.0047  0.0296  0.0299
  306loPI   PO4 4884  10.339   3.345  11.334 -0.0721  0.2499  0.1463
  306loPI   GL1 4885  10.090   3.272  10.899 -0.2618  0.0548 -0.0597
  306loPI   GL2 4886  10.050   2.968  10.863  0.2641  0.4433 -0.0981
  306loPI   C1A 4887  10.266   3.266  10.527  0.1136  0.3410 -0.2272
  306loPI   C2A 4888  10.157   3.203  10.183 -0.2666 -0.2600 -0.1521
  306loPI   C3A 4889  10.177   3.250   9.777 -0.4553 -0.1112  0.0224
  306loPI   C4A 4890  10.202   3.308   9.410 -0.0876 -0.2138  0.0535
  306loPI   C5A 4891  10.072   3.236   8.940 -0.0039 -0.3731  0.0739
  306loPI   C6A 4892   9.825   2.870   8.800  0.1309  0.1120  0.0593
  306loPI   C1B 4893   9.878   2.878  10.555  0.0183 -0.0221  0.1732
  306loPI   C2B 4894   9.832   2.786  10.159  0.0992 -0.0622  0.1020
  306loPI   C3B 4895   9.868   2.886   9.688  0.0504  0.1813 -0.1255
  306loPI   C4B 4896   9.831   2.839   9.279 -0.0656  0.0438 -0.3395
  307loPI    C1 4897  13.438  16.424  11.661  0.0949 -0.1028  0.2378
  307loPI    C2 4898  13.063  16.284  11.644  0.0298  0.0826  0.1027
  307loPI    C3 4899  13.268  16.267  11.988 -0.1691  0.1506  0.2265
  307loPI   PO4 4900  13.516  16.320  11.370 -0.0064  0.0207 -0.4233
  307loPI   GL1 4901  13.406  16.262  10.965 -0.0412 -0.3678  0.0472
  307loPI   GL2 4902  13.482  16.602  10.977  0.0447 -0.0274  0.3346
  307loPI   C1A 4903  13.572  16.153  10.593 -0.1797 -0.1790  0.1067
  307loPI   C2A 4904  13.592  16.038  10.161  0.3646  0.0636  0.1461
  307loPI   C3A 4905  13.679  15.965   9.772 -0.0213 -0.1081 -0.0991
  307loPI   C4A 4906  13.719  15.925   9.277  0.1271 -0.2300 -0.1106
  307loPI   C5A 4907  13.627  15.829   8.870  0.4639 -0.0724 -0.0737
  307loPI   C6A 4908  13.748  16.007   8.544 -0.0995  0.1312  0.2353
  307loPI   C1B 4909  13.440  16.601  10.469  0.1751 -0.2001 -0.1981
  307loPI   C2B 4910  13.438  16.478   9.951 -0.3902  0.0874  0.1547
  307loPI   C3B 4911  13.502  16.411   9.487  0.0359 -0.0026  0.0133
  307loPI   C4B 4912  13.566  16.298   9.000 -0.0237 -0.0234 -0.1683
  308loPI    C1 4913   4.320  10.103  11.805 -0.2180 -0.0908  0.0595
  308loPI    C2 4914   4.349   9.903  12.151 -0.1883  0.0531  0.1410
  308loPI    C3 4915   4.400  10.300  12.144  0.0097  0.0261 -0.0604
  308loPI   PO4 4916   4.341   9.910  11.656  0.3308  0.1989 -0.1114
  308loPI   GL1 4917   4.354   9.767  11.161  0.1439  0.0544  0.1186
  308loPI   GL2 4918   4.645   9.788  11.248  0.0506 -0.2439 -0.0511
  308loPI   C1A 4919   4.351   9.576  10.745  0.1008 -0.0604  0.2799
  308loPI   C2A 4920   4.386   9.482  10.279 -0.1133  0.1105 -0.0812
  308loPI   C3A 4921   4.321   9.459   9.819 -0.1167 -0.0700  0.1288
  308loPI   C4A 4922   4.335   9.381   9.407 -0.1781 -0.0373 -0.1182
  308loPI   C5A 4923   4.277   9.243   8.934  0.1439 -0.0616  0.0513
  308loPI   C6A 4924   4.301   9.367   8.478 -0.0825  0.2327  0.1960
  308loPI   C1B 4925   4.707   9.922  10.812  0.3191  0.2395  0.1505
  308loPI   C2B 4926   4.643   9.877  10.342  0.2074  0.0909 -0.0793
  308loPI   C3B 4927   4.604   9.942   9.862  0.1455  0.1553 -0.0119
  308loPI   C4B 4928   4.617   9.882   9.458 -0.0819  0.1013  0.2063
  309loPI    C1 4929   8.899   4.209  11.377  0.1374  0.0289 -0.1372
  309loPI    C2 4930   9.244   4.227  11.579  0.0210 -0.0732  0.0735
  309loPI    C3 4931   8.899   4.177  11.776 -0.1084 -0.0344 -0.1408
  309loPI   PO4 4932   8.950   4.080  11.163  0.2948 -0.0660 -0.0573
  309loPI   GL1 4933   8.756   3.954  10.764  0.0500 -0.0048  0.0493
  309loPI   GL2 4934   9.108   4.000  10.719  0.1918 -0.0182 -0.2956
  309loPI   C1A 4935   8.550   3.915  10.474  0.0972  0.2239 -0.2435
  309loPI   C2A 4936   8.533   3.808  10.071 -0.2463  0.0141  0.0507
  309loPI   C3A 4937   8.471   3.850   9.679 -0.0759 -0.1043 -0.0859
  309loPI   C4A 4938   8.503   3.880   9.236 -0.2821 -0.2708  0.0568
  309loPI   C5A 4939   8.456   3.842   8.812 -0.1974  0.2071 -0.1015
  309loPI   C6A 4940   8.715   4.047   8.536 -0.2154 -0.0014  0.0472
  309loPI   C1B 4941   9.022   3.803  10.360  0.1685  0.1762 -0.0580
  309loPI   C2B 4942   8.986   3.794   9.880  0.1966 -0.2271  0.0027
  309loPI   C3B 4943   8.949   3.862   9.427  0.0494  0.1160 -0.0932
  309loPI   C4B 4944   8.955   3.830   8.945 -0.0698  0.1171  0.0936
  310loPI    C1 4945  11.465  10.374  11.377 -0.0942 -0.1065  0.0960
  310loPI    C2 4946  11.365  10.210  11.728  0.0966 -0.1604  0.1267
  310loPI    C3 4947  11.701  10.425  11.696  0.0217 -0.0599  0.0036
  310loPI   PO4 4948  11.491  10.183  11.199 -0.1230  0.1786 -0.4808
  310loPI   GL1 4949  11.776  10.082  10.914  0.1080 -0.0882  0.1772
  310loPI   GL2 4950  11.881   9.775  10.888 -0.0785  0.1164  0.0234
  310loPI   C1A 4951  11.659  10.215  10.527  0.4707 -0.0526 -0.1004
  310loPI   C2A 4952  11.615  10.364  10.132 -0.1510  0.0348  0.0576
  310loPI   C3A 4953  11.681  10.262   9.666 -0.1218 -0.0510 -0.0785
  310loPI   C4A 4954  11.723  10.213   9.263  0.2648 -0.2299  0.1202
  310loPI   C5A 4955  11.814  10.255   8.842  0.1480 -0.1793 -0.0111
  310loPI   C6A 4956  11.890  10.106   8.428  0.0553 -0.1777  0.1930
  310loPI   C1B 4957  11.873   9.742  10.474 -0.1718 -0.0345  0.3523
  310loPI   C2B 4958  11.832   9.929  10.133 -0.1115 -0.0468  0.0278
  310loPI   C3B 4959  11.888   9.763   9.800  0.2199 -0.3189  0.0931
  310loPI   C4B 4960  11.874   9.761   9.322  0.2312 -0.0022 -0.1539
  311loPI    C1 4961   8.634   6.977  11.604 -0.1687  0.2989 -0.1142
  311loPI    C2 4962   9.010   7.056  11.716 -0.1837  0.2935 -0.0595
  311loPI    C3 4963   8.709   7.273  11.863 -0.2154  0.2041  0.0086
  311loPI   PO4 4964   8.695   6.870  11.312  0.0854 -0.0518 -0.0428
  311loPI   GL1 4965   8.560   6.748  10.942 -0.0718 -0.0105  0.1994
  311loPI   GL2 4966   8.765   6.999  10.763 -0.0025 -0.0392  0.0278
  311loPI   C1A 4967   8.323   6.698  10.660  0.1573  0.2371  0.2237
  311loPI   C2A 4968   8.318   6.592  10.230 -0.4769  0.3443 -0.1573
  311loPI   C3A 4969   8.336   6.656   9.721 -0.0292 -0.1402 -0.0862
  311loPI   C4A 4970   8.414   6.726   9.204 -0.1374  0.4244  0.1828
  311loPI   C5A 4971   8.355   6.813   8.773  0.1550  0.1769 -0.0738
  311loPI   C6A 4972   8.378   6.483   8.357  0.1156  0.1437  0.1013
  311loPI   C1B 4973   8.605   7.010  10.316 -0.4890  0.3392  0.0359
  311loPI   C2B 4974   8.680   7.066   9.850 -0.0614  0.0888  0.2445
  311loPI   C3B 4975   8.656   7.117   9.427 -0.0350 -0.0666  0.0444
  311loPI   C4B 4976   8.608   7.195   9.007  0.2527  0.0806 -0.3246
  312loPI    C1 4977  12.655  10.280  11.843  0.2031 -0.1574 -0.1603
  312loPI    C2 4978  12.380  10.169  12.112  0.0346  0.1899 -0.1830
  312loPI    C3 4979  12.728   9.972  12.087 -0.1148 -0.1040  0.0069
  312loPI   PO4 4980  12.520  10.249  11.571  0.2790 -0.0772 -0.1930
  312loPI   GL1 4981  12.503  10.417  11.083  0.1031 -0.0986 -0.0638
  312loPI   GL2 4982  12.714  10.270  10.887  0.1853  0.1491  0.0262
  312loPI   C1A 4983  12.440  10.653  10.666  0.0448 -0.1967 -0.0739
  312loPI   C2A 4984  12.435  10.664  10.250 -0.0242  0.2202 -0.1773
  312loPI   C3A 4985  12.460  10.573   9.814 -0.1406  0.1563 -0.0195
  312loPI   C4A 4986  12.468  10.674   9.453 -0.1402  0.0635  0.1807
  312loPI   C5A 4987  12.498  10.685   9.018  0.1133  0.0854  0.1684
  312loPI   C6A 4988  12.560  10.863   8.567  0.0743 -0.1122 -0.3373
  312loPI   C1B 4989  12.724  10.128  10.569 -0.3080  0.1749  0.1181
  312loPI   C2B 4990  12.605  10.094  10.173  0.0969 -0.0238 -0.0673
  312loPI   C3B 4991  12.656  10.152   9.647  0.0932  0.1411 -0.0229
  312loPI   C4B 4992  12.733  10.201   9.131 -0.0693 -0.1275  0.2686
  313loPI    C1 4993  11.910   0.363  11.573  0.0749 -0.0431  0.1205
  313loPI    C2 4994  11.986   0.686  11.795  0.0851 -0.1158  0.2238
  313loPI    C3 4995  12.149   0.334  11.893  0.2696 -0.1032 -0.0279
  313loPI   PO4 4996  12.031   0.394  11.367 -0.0485 -0.1031  0.0331
  313loPI   GL1 4997  11.907   0.475  10.907  0.1162  0.2731 -0.0272
  313loPI   GL2 4998  11.599   0.477  10.904  0.2835 -0.1218  0.0030
  313loPI   C1A 4999  11.905   0.453  10.414 -0.1254  0.2748  0.0806
  313loPI   C2A 5000  11.884   0.390  10.055 -0.0080 -0.0582 -0.0345
  313loPI   C3A 5001  11.828   0.354   9.685 -0.0055 -0.1377 -0.1793
  313loPI   C4A 5002  11.750   0.285   9.279  0.2179 -0.1777 -0.1400
  313loPI   C5A 5003  11.696   0.181   8.897  0.1493  0.0207 -0.1497
  313loPI   C6A 5004  11.270   0.176   8.615 -0.0196 -0.0187 -0.0266
  313loPI   C1B 5005  11.374   0.464  10.561 -0.0261 -0.0409  0.4238
  313loPI   C2B 5006  11.351   0.395  10.129  0.3529 -0.0135 -0.0488
  313loPI   C3B 5007  11.315   0.400   9.710  0.0671  0.1985  0.0864
  313loPI   C4B 5008  11.287   0.309   9.223 -0.3166  0.1211  0.0153
  314loPI    C1 5009  11.668  10.807  11.418 -0.1019 -0.0527 -0.0056
  314loPI    C2 5010  11.776  10.922  11.785 -0.0633 -0.0889 -0.0056
  314loPI    C3 5011  11.396  10.824  11.711 -0.0722 -0.0766  0.0235
  314loPI   PO4 5012  11.762  10.986  11.215  0.2050  0.2185  0.1154
  314loPI   GL1 5013  12.052  11.154  10.994 -0.0891  0.2551  0.0663
  314loPI   GL2 5014  11.755  11.059  10.728  0.0917 -0.1245  0.0561
  314loPI   C1A 5015  12.263  11.178  10.613  0.4333 -0.0347  0.0716
  314loPI   C2A 5016  12.289  11.163  10.122  0.4079 -0.1114 -0.0315
  314loPI   C3A 5017  12.219  11.040   9.742  0.1249 -0.1535  0.0521
  314loPI   C4A 5018  12.217  11.157   9.300 -0.1761  0.1676  0.0564
  314loPI   C5A 5019  12.305  11.329   8.864 -0.0670 -0.0244 -0.2558
  314loPI   C6A 5020  12.290  11.524   8.487 -0.0229  0.1678 -0.1044
  314loPI   C1B 5021  11.825  11.253  10.307  0.0996 -0.0824  0.1338
  314loPI   C2B 5022  11.812  11.241   9.836 -0.0640 -0.2368 -0.1410
  314loPI   C3B 5023  11.755  11.158   9.446  0.2186  0.0199  0.1559
  314loPI   C4B 5024  11.825  11.277   9.060  0.0611 -0.1092 -0.0542
  315loPI    C1 5025  13.774   0.857  11.357 -0.1309  0.0414 -0.0157
  315loPI    C2 5026  13.890   1.216  11.492 -0.0740 -0.0309  0.1286
  315loPI    C3 5027  13.856   0.907  11.745 -0.1711 -0.1154  0.0136
  315loPI   PO4 5028  13.678   0.935  11.170 -0.0009 -0.0085 -0.0572
  315loPI   GL1 5029  13.408   1.095  10.841  0.0449 -0.1344 -0.0070
  315loPI   GL2 5030  13.215   1.405  10.914  0.1734 -0.1218 -0.1360
  315loPI   C1A 5031  13.505   1.074  10.393 -0.0740 -0.0224 -0.2310
  315loPI   C2A 5032  13.527   1.029   9.912  0.1793  0.1692  0.0784
  315loPI   C3A 5033  13.486   0.905   9.454  0.2503 -0.0202 -0.1659
  315loPI   C4A 5034  13.425   0.774   9.039 -0.1603 -0.0727 -0.0331
  315loPI   C5A 5035  13.702   0.717   8.699 -0.0163 -0.0874 -0.1102
  315loPI   C6A 5036  13.881   0.465   8.348  0.1882  0.0809  0.0683
  315loPI   C1B 5037  13.378   1.572  10.551  0.2021  0.0460 -0.0608
  315loPI   C2B 5038  13.256   1.546  10.162 -0.0862 -0.2002  0.1635
  315loPI   C3B 5039  13.219   1.496   9.772  0.0504 -0.0126 -0.0504
  315loPI   C4B 5040  13.279   1.404   9.436 -0.1509 -0.2286  0.1444
  316loPI    C1 5041   6.061   7.359  11.506  0.0949 -0.1866  0.0417
  316loPI    C2 5042   6.150   7.747  11.546 -0.0178 -0.1548 -0.0103
  316loPI    C3 5043   6.417   7.468  11.650  0.0124 -0.0649  0.1560
  316loPI   PO4 5044   5.996   7.352  11.209 -0.1748 -0.2000  0.1476
  316loPI   GL1 5045   6.151   7.121  10.913 -0.2199  0.1330  0.1884
  316loPI   GL2 5046   6.403   6.778  10.934  0.2609  0.0309 -0.1314
  316loPI   C1A 5047   6.107   7.406  10.586  0.0943 -0.2712 -0.2994
  316loPI   C2A 5048   6.170   7.288  10.235  0.2076  0.3365 -0.1418
  316loPI   C3A 5049   6.148   7.355   9.786  0.1225  0.2021  0.0150
  316loPI   C4A 5050   6.057   7.387   9.378  0.0992 -0.2438  0.3115
  316loPI   C5A 5051   5.987   7.437   8.926  0.0560 -0.0741  0.1791
  316loPI   C6A 5052   6.050   7.321   8.399 -0.0511  0.3578  0.4244
  316loPI   C1B 5053   6.322   6.846  10.516 -0.1837 -0.0753 -0.1169
  316loPI   C2B 5054   6.310   6.844  10.069  0.0772  0.0957  0.1878
  316loPI   C3B 5055   6.309   6.910   9.608  0.1560  0.2007 -0.0493
  316loPI   C4B 5056   6.273   6.940   9.120 -0.1703  0.0135  0.0931
  317loPI    C1 5057  13.852   3.916  11.416  0.0515 -0.0324 -0.0800
  317loPI    C2 5058  13.833   4.078  11.781  0.1786  0.1476 -0.1525
  317loPI    C3 5059  13.664   3.722  11.712  0.0074  0.1900  0.0394
  317loPI   PO4 5060  13.746   4.023  11.257 -0.0353  0.0071  0.0255
  317loPI   GL1 5061  13.707   4.325  10.958 -0.1335 -0.0315  0.1590
  317loPI   GL2 5062  13.478   4.624  10.756  0.1807 -0.0802 -0.1815
  317loPI   C1A 5063  13.625   4.165  10.404  0.0049 -0.0520 -0.1779
  317loPI   C2A 5064  13.634   4.138   9.857 -0.2469  0.1374 -0.0485
  317loPI   C3A 5065  13.630   4.098   9.349  0.0277  0.1053 -0.2969
  317loPI   C4A 5066  13.865   4.084   8.878 -0.4342  0.1356  0.4013
  317loPI   C5A 5067  14.001   3.707   8.597 -0.0110 -0.0242 -0.3053
  317loPI   C6A 5068  14.388   3.594   8.431 -0.2362  0.2361  0.2650
  317loPI   C1B 5069  13.475   4.682  10.294 -0.1954  0.1834 -0.2218
  317loPI   C2B 5070  13.482   4.672   9.845 -0.0746  0.0147  0.0204
  317loPI   C3B 5071  13.445   4.633   9.314 -0.2636 -0.0838  0.1765
  317loPI   C4B 5072  13.631   4.516   8.991 -0.1066 -0.1189  0.2757
  318loPI    C1 5073   9.984  12.129  11.292 -0.1393 -0.5723 -0.1879
  318loPI    C2 5074   9.926  12.055  11.681 -0.0363 -0.0708 -0.0695
  318loPI    C3 5075  10.269  11.948  11.506  0.0884  0.0759  0.0826
  318loPI   PO4 5076   9.736  12.198  11.251  0.2943  0.2178 -0.0454
  318loPI   GL1 5077   9.531  12.295  10.898 -0.3243  0.3248  0.0032
  318loPI   GL2 5078   9.872  12.307  10.735 -0.2507  0.0110  0.1366
  318loPI   C1A 5079   9.502  11.975  10.488  0.3846  0.2041 -0.0008
  318loPI   C2A 5080   9.534  11.921  10.023  0.0909  0.2364  0.1497
  318loPI   C3A 5081   9.582  11.941   9.621  0.1899 -0.2362 -0.1266
  318loPI   C4A 5082   9.507  12.049   9.137 -0.2774 -0.2395  0.0489
  318loPI   C5A 5083   9.455  12.023   8.793  0.2538 -0.2171  0.1574
  318loPI   C6A 5084   9.321  12.176   8.290 -0.1277 -0.1571  0.0010
  318loPI   C1B 5085   9.857  12.361  10.310  0.0817  0.1714 -0.1039
  318loPI   C2B 5086   9.832  12.332   9.845  0.1882  0.3990  0.2528
  318loPI   C3B 5087   9.932  12.494   9.385 -0.0248  0.0387  0.2492
  318loPI   C4B 5088   9.924  12.617   8.923  0.2474  0.4040  0.1110
  319loPI    C1 5089   1.452   6.770  11.797 -0.1565  0.1807  0.1025
  319loPI    C2 5090   1.092   6.682  11.947 -0.0731 -0.3266  0.0233
  319loPI    C3 5091   1.387   6.797  12.191 -0.2216 -0.1348  0.1157
  319loPI   PO4 5092   1.482   6.843  11.588  0.0028 -0.1308  0.1819
  319loPI   GL1 5093   1.419   6.974  11.129 -0.0190  0.1534 -0.0877
  319loPI   GL2 5094   1.207   6.748  10.965 -0.0209 -0.2017  0.1169
  319loPI   C1A 5095   1.419   7.091  10.692  0.1339  0.1036 -0.2590
  319loPI   C2A 5096   1.430   7.134  10.248 -0.1225 -0.1800  0.0196
  319loPI   C3A 5097   1.458   7.146   9.862 -0.3758  0.2585 -0.0551
  319loPI   C4A 5098   1.400   7.184   9.441 -0.0889  0.0792  0.1251
  319loPI   C5A 5099   1.407   7.209   9.041  0.0126  0.0643  0.2028
  319loPI   C6A 5100   1.486   7.119   8.587 -0.3366  0.0067 -0.0495
  319loPI   C1B 5101   1.087   6.665  10.537  0.2145 -0.0042  0.3210
  319loPI   C2B 5102   1.070   6.778  10.110 -0.0622  0.1521  0.1872
  319loPI   C3B 5103   1.115   6.784   9.623  0.0255 -0.0393  0.0580
  319loPI   C4B 5104   1.106   6.807   9.209 -0.2944 -0.1550  0.1207
  320loPI    C1 5105   1.945  11.407  11.597 -0.0086 -0.0227 -0.1007
  320loPI    C2 5106   1.763  11.678  11.828 -0.1625 -0.1029 -0.1269
  320loPI    C3 5107   1.991  11.394  11.994  0.0794  0.1001 -0.1063
  320loPI   PO4 5108   1.886  11.505  11.387  0.1050  0.3800  0.1639
  320loPI   GL1 5109   1.606  11.279  11.098  0.1792 -0.1710 -0.0137
  320loPI   GL2 5110   1.437  11.557  10.933 -0.0032  0.3437  0.0167
  320loPI   C1A 5111   1.700  11.095  10.704  0.0277  0.0564  0.0921
  320loPI   C2A 5112   1.755  11.149  10.220  0.0526 -0.0507 -0.0837
  320loPI   C3A 5113   1.765  11.154   9.808 -0.0799 -0.0882  0.1670
  320loPI   C4A 5114   1.744  11.210   9.303  0.0556  0.0405  0.0574
  320loPI   C5A 5115   1.622  11.096   8.994  0.1395  0.2061 -0.0128
  320loPI   C6A 5116   1.624  10.963   8.611  0.0717 -0.0077 -0.0560
  320loPI   C1B 5117   1.516  11.620  10.442 -0.0403 -0.0793  0.0774
  320loPI   C2B 5118   1.544  11.586  10.055 -0.0974  0.1768 -0.2376
  320loPI   C3B 5119   1.511  11.583   9.513 -0.1386  0.0466 -0.2857
  320loPI   C4B 5120   1.480  11.564   8.974  0.1298  0.1201 -0.0573
  321loPI    C1 5121   5.456   4.475  11.525 -0.1738 -0.1530 -0.1871
  321loPI    C2 5122   5.282   4.685  11.817 -0.1155 -0.0119 -0.2528
  321loPI    C3 5123   5.387   4.304  11.880  0.1303  0.0934 -0.0042
  321loPI   PO4 5124   5.339   4.487  11.340  0.2678 -0.0711 -0.1589
  321loPI   GL1 5125   5.175   4.519  10.968 -0.2885 -0.0404 -0.2879
  321loPI   GL2 5126   5.540   4.368  10.837 -0.2505  0.0442  0.1645
  321loPI   C1A 5127   5.259   4.742  10.580  0.0827 -0.2540  0.2704
  321loPI   C2A 5128   5.353   4.680  10.178 -0.3426 -0.2440 -0.2101
  321loPI   C3A 5129   5.214   4.799   9.711  0.3027  0.4386  0.0529
  321loPI   C4A 5130   5.178   4.902   9.320 -0.1205  0.1448 -0.1650
  321loPI   C5A 5131   5.266   4.806   8.915  0.3164 -0.0299 -0.3837
  321loPI   C6A 5132   5.252   4.405   8.720  0.0661  0.1696 -0.1512
  321loPI   C1B 5133   5.456   4.260  10.397 -0.2448  0.0588 -0.1339
  321loPI   C2B 5134   5.473   4.150   9.973  0.1649 -0.2329 -0.1743
  321loPI   C3B 5135   5.441   4.291   9.588  0.1714 -0.0177  0.0520
  321loPI   C4B 5136   5.254   4.402   9.241 -0.0968  0.1629 -0.0805
  322loPI    C1 5137   4.753   0.689  11.414  0.2833 -0.1925  0.0021
  322loPI    C2 5138   4.822   0.710  11.808  0.0923  0.2182  0.0198
  322loPI    C3 5139   4.469   0.577  11.673  0.1315  0.1458 -0.0122
  322loPI   PO4 5140   4.712   0.944  11.340  0.0114 -0.0995 -0.3534
  322loPI   GL1 5141   4.503   1.218  10.979  0.0770 -0.0246  0.2156
  322loPI   GL2 5142   4.279   1.156  10.848  0.1125  0.0174  0.2932
  322loPI   C1A 5143   4.813   1.180  10.699 -0.1590 -0.1174  0.0847
  322loPI   C2A 5144   4.865   1.115  10.300  0.2196  0.2946 -0.0235
  322loPI   C3A 5145   4.816   1.154   9.905 -0.1826  0.1344 -0.0624
  322loPI   C4A 5146   4.837   1.239   9.464 -0.0693  0.1894  0.2945
  322loPI   C5A 5147   4.840   1.359   8.965  0.1675  0.1362  0.1974
  322loPI   C6A 5148   4.904   0.944   8.690  0.2932  0.0707 -0.0320
  322loPI   C1B 5149   4.327   1.178  10.435  0.3794 -0.0284 -0.0751
  322loPI   C2B 5150   4.276   1.277  10.046 -0.1513  0.0166  0.0218
  322loPI   C3B 5151   4.276   1.389   9.621  0.2521  0.0015 -0.0093
  322loPI   C4B 5152   4.189   1.301   9.218  0.2188  0.1430 -0.0676
  323loPI    C1 5153   7.077  15.098  11.626 -0.2297 -0.0638 -0.1789
  323loPI    C2 5154   7.032  14.788  11.874  0.1479  0.1010  0.1055
  323loPI    C3 5155   6.868  15.142  11.964 -0.0836  0.0493 -0.1021
  323loPI   PO4 5156   7.279  14.973  11.469  0.0179 -0.0578  0.3354
  323loPI   GL1 5157   7.271  14.992  11.050 -0.0847  0.0612 -0.1243
  323loPI   GL2 5158   7.271  15.138  10.943  0.0617 -0.2046  0.1528
  323loPI   C1A 5159   7.383  14.934  10.544 -0.1324 -0.0178  0.2030
  323loPI   C2A 5160   7.442  14.913  10.111  0.2184  0.0564 -0.0109
  323loPI   C3A 5161   7.313  15.008   9.815  0.1940  0.0062  0.2014
  323loPI   C4A 5162   7.359  14.994   9.380  0.0857 -0.0283 -0.2428
  323loPI   C5A 5163   7.341  14.959   8.953 -0.0509 -0.0039  0.0148
  323loPI   C6A 5164   7.539  14.950   8.510  0.2024 -0.0152  0.2868
  323loPI   C1B 5165   7.163  15.375  10.583 -0.0872 -0.2577 -0.3234
  323loPI   C2B 5166   7.208  15.406  10.154 -0.0805 -0.1368  0.0965
  323loPI   C3B 5167   7.199  15.443   9.679 -0.2332 -0.1072 -0.2990
  323loPI   C4B 5168   7.189  15.459   9.316 -0.0515  0.0428 -0.2257
  324loPI    C1 5169  13.721   0.402  11.709  0.0036 -0.2794  0.1388
  324loPI    C2 5170  13.407   0.640  11.640  0.0241 -0.3058 -0.0524
  324loPI    C3 5171  13.374   0.333  11.895  0.0567  0.0206  0.3548
  324loPI   PO4 5172  13.807   0.377  11.428 -0.2581 -0.0466  0.3577
  324loPI   GL1 5173  13.979   0.322  11.079 -0.1059 -0.1334  0.1232
  324loPI   GL2 5174  13.887   0.558  10.809 -0.2325  0.1218  0.2911
  324loPI   C1A 5175  13.949   0.096  10.641  0.2645 -0.2484  0.1115
  324loPI   C2A 5176  13.905   0.063  10.217  0.5524 -0.1733  0.4696
  324loPI   C3A 5177  13.844   0.035   9.816  0.1072  0.1735 -0.0318
  324loPI   C4A 5178  13.923  -0.110   9.471  0.0874  0.0411  0.1044
  324loPI   C5A 5179  13.924  -0.118   9.025 -0.0108  0.4580 -0.0663
  324loPI   C6A 5180  13.884   0.083   8.681  0.5929  0.2087 -0.3654
  324loPI   C1B 5181  13.804   0.596  10.372  0.0292 -0.0236  0.2190
  324loPI   C2B 5182  13.716   0.619   9.925  0.1503  0.0845  0.0918
  324loPI   C3B 5183  13.643   0.452   9.578  0.0653  0.2634 -0.0667
  324loPI   C4B 5184  13.684   0.344   9.283 -0.1369 -0.1586 -0.3302
  325loPI    C1 5185  11.439   1.263  11.513  0.0296 -0.0300 -0.2135
  325loPI    C2 5186  11.133   1.237  11.770  0.1372  0.0035 -0.0809
  325loPI    C3 5187  11.453   1.001  11.815  0.2180  0.1083 -0.0998
  325loPI   PO4 5188  11.314   1.257  11.307 -0.0184 -0.0664 -0.0788
  325loPI   GL1 5189  11.072   1.302  10.896  0.1224 -0.4405  0.0510
  325loPI   GL2 5190  10.783   1.402  10.861  0.0292  0.0062 -0.0460
  325loPI   C1A 5191  11.024   1.433  10.439 -0.1860 -0.0915 -0.0843
  325loPI   C2A 5192  10.919   1.397   9.995 -0.0658 -0.0948 -0.1040
  325loPI   C3A 5193  11.011   1.442   9.643 -0.3819 -0.1078 -0.0693
  325loPI   C4A 5194  10.950   1.386   9.229  0.1284 -0.1485 -0.1656
  325loPI   C5A 5195  10.925   1.172   8.851  0.0695  0.1452  0.0425
  325loPI   C6A 5196  10.522   1.159   8.702 -0.2061  0.0141 -0.2397
  325loPI   C1B 5197  10.499   1.426  10.452 -0.0833 -0.1272 -0.1353
  325loPI   C2B 5198  10.411   1.405   9.972 -0.0899 -0.1493  0.1585
  325loPI   C3B 5199  10.502   1.360   9.593 -0.1068 -0.0535  0.3085
  325loPI   C4B 5200  10.435   1.424   9.134 -0.0148  0.1178  0.0949
  326loPI    C1 5201  16.477  10.561  11.656  0.2119 -0.1851  0.0424
  326loPI    C2 5202  16.490  10.208  11.846  0.2718 -0.1628  0.0802
  326loPI    C3 5203  16.343  10.531  12.032  0.0734 -0.2008 -0.0077
  326loPI   PO4 5204  16.619  10.536  11.467  0.1550  0.1884 -0.1450
  326loPI   GL1 5205  16.715  10.644  11.165  0.2768 -0.1043  0.1198
  326loPI   GL2 5206  16.519  10.404  11.008  0.0657  0.3187 -0.2491
  326loPI   C1A 5207  16.695  10.728  10.749 -0.0096 -0.1621  0.3815
  326loPI   C2A 5208  16.849  10.610  10.324  0.1464 -0.1097  0.0179
  326loPI   C3A 5209  16.858  10.577   9.909  0.1336 -0.2831  0.0721
  326loPI   C4A 5210  16.873  10.566   9.466  0.1291  0.1445 -0.1326
  326loPI   C5A 5211  16.872  10.460   8.967  0.0781  0.2217  0.0981
  326loPI   C6A 5212  17.079  10.178   8.635  0.2044  0.1244  0.2119
  326loPI   C1B 5213  16.486  10.216  10.586  0.0157 -0.0259 -0.2415
  326loPI   C2B 5214  16.449  10.153  10.253 -0.0611  0.4207 -0.1679
  326loPI   C3B 5215  16.499  10.168   9.866  0.0193 -0.0370 -0.0478
  326loPI   C4B 5216  16.506  10.071   9.354  0.0656 -0.0281 -0.2749
  327loPI    C1 5217   2.734   7.450  11.660  0.1350  0.3073  0.0020
  327loPI    C2 5218   2.558   7.635  11.968 -0.2419 -0.0708  0.0228
  327loPI    C3 5219   2.761   7.295  12.028 -0.1683 -0.0532 -0.1214
  327loPI   PO4 5220   2.561   7.510  11.495 -0.0186 -0.0969  0.0856
  327loPI   GL1 5221   2.693   7.544  11.169  0.0379 -0.0399 -0.1547
  327loPI   GL2 5222   2.405   7.502  10.972  0.2333 -0.5147 -0.2749
  327loPI   C1A 5223   2.810   7.425  10.688 -0.1941  0.1755 -0.0354
  327loPI   C2A 5224   2.837   7.386  10.300  0.2976 -0.1322 -0.1256
  327loPI   C3A 5225   2.797   7.478   9.807 -0.2014  0.0389  0.0509
  327loPI   C4A 5226   2.861   7.430   9.386  0.2267 -0.1182  0.0424
  327loPI   C5A 5227   2.789   7.688   9.073 -0.0547  0.3181 -0.0036
  327loPI   C6A 5228   2.677   7.809   8.838 -0.0981  0.1862 -0.1676
  327loPI   C1B 5229   2.318   7.433  10.519 -0.1413  0.1082 -0.2067
  327loPI   C2B 5230   2.310   7.409  10.070 -0.0745  0.1601 -0.0627
  327loPI   C3B 5231   2.318   7.527   9.617  0.0462 -0.2763  0.2447
  327loPI   C4B 5232   2.343   7.519   9.195  0.1154  0.1625  0.1215
  328loPI    C1 5233   6.661  14.256  11.537  0.0692  0.2383  0.0027
  328loPI    C2 5234   6.522  14.448  11.859  0.0017 -0.0523  0.1498
  328loPI    C3 5235   6.864  14.242  11.881 -0.0081 -0.0812  0.0378
  328loPI   PO4 5236   6.589  14.408  11.380  0.0575  0.2104  0.0258
  328loPI   GL1 5237   6.407  14.538  11.023 -0.1961  0.1183  0.0608
  328loPI   GL2 5238   6.648  14.783  11.043  0.5899 -0.0851 -0.0297
  328loPI   C1A 5239   6.585  14.533  10.574  0.2304 -0.0600 -0.3586
  328loPI   C2A 5240   6.608  14.579  10.153  0.0657  0.3797  0.3177
  328loPI   C3A 5241   6.496  14.633   9.676  0.1582  0.0526 -0.2112
  328loPI   C4A 5242   6.654  14.598   9.315 -0.0939  0.2910  0.0049
  328loPI   C5A 5243   6.561  14.585   8.868 -0.1165 -0.0778  0.2464
  328loPI   C6A 5244   6.577  14.399   8.448  0.1122 -0.1144  0.1745
  328loPI   C1B 5245   6.808  14.999  10.635 -0.0721  0.2059 -0.2379
  328loPI   C2B 5246   6.856  15.002  10.142 -0.4787  0.0608 -0.1685
  328loPI   C3B 5247   6.848  15.006   9.665 -0.0985  0.2155 -0.0125
  328loPI   C4B 5248   6.859  15.050   9.201 -0.0581  0.2194 -0.0906
  329loPI    C1 5249   6.316  17.122  11.519  0.1429 -0.1800  0.0570
  329loPI    C2 5250   6.185  16.968  11.864  0.1334 -0.1745  0.0558
  329loPI    C3 5251   6.325  17.342  11.853 -0.2008 -0.0482 -0.0158
  329loPI   PO4 5252   6.117  17.104  11.280 -0.1665 -0.1460  0.0086
  329loPI   GL1 5253   5.966  16.989  10.841  0.1354  0.0839  0.1723
  329loPI   GL2 5254   5.720  17.014  10.987  0.2173  0.0605 -0.4675
  329loPI   C1A 5255   5.899  16.850  10.404  0.0570  0.0803 -0.2954
  329loPI   C2A 5256   6.026  16.863   9.939 -0.0130  0.0426  0.4999
  329loPI   C3A 5257   6.059  16.899   9.466  0.1706  0.2441 -0.0381
  329loPI   C4A 5258   6.129  16.871   8.966 -0.0195 -0.0711  0.2811
  329loPI   C5A 5259   5.869  16.804   8.605 -0.0352 -0.1381 -0.1092
  329loPI   C6A 5260   5.391  17.024   8.552 -0.2955 -0.0909  0.0600
  329loPI   C1B 5261   5.508  16.997  10.648 -0.1670 -0.1777 -0.1255
  329loPI   C2B 5262   5.472  17.051  10.172 -0.2218  0.3325  0.0765
  329loPI   C3B 5263   5.614  16.992   9.676  0.2342 -0.0888 -0.0206
  329loPI   C4B 5264   5.611  17.037   9.199 -0.0921  0.0172  0.0131
  330loPI    C1 5265   9.418   1.140  11.434  0.0919  0.0616 -0.0660
  330loPI    C2 5266   9.513   1.395  11.727  0.0414 -0.0082  0.0114
  330loPI    C3 5267   9.195   1.155  11.766  0.1038 -0.1010 -0.0499
  330loPI   PO4 5268   9.397   1.211  11.162  0.0250  0.1628  0.1838
  330loPI   GL1 5269   9.178   1.121  10.830 -0.0144  0.0286 -0.3570
  330loPI   GL2 5270   8.908   1.312  10.810  0.1422 -0.0552  0.1643
  330loPI   C1A 5271   9.107   1.059  10.382  0.0432 -0.1639  0.1004
  330loPI   C2A 5272   9.153   1.133   9.982 -0.0202  0.1652  0.0535
  330loPI   C3A 5273   9.165   1.223   9.538  0.3467 -0.0032  0.2182
  330loPI   C4A 5274   9.060   1.109   9.150  0.0762 -0.2843  0.3201
  330loPI   C5A 5275   8.944   0.880   8.761  0.0732 -0.1200  0.0768
  330loPI   C6A 5276   8.558   0.797   8.602  0.0556  0.0577  0.1224
  330loPI   C1B 5277   8.910   1.576  10.403  0.0298  0.1023 -0.1133
  330loPI   C2B 5278   8.874   1.570   9.995 -0.1016 -0.0753  0.2105
  330loPI   C3B 5279   8.947   1.641   9.608 -0.1035  0.1420 -0.0785
  330loPI   C4B 5280   8.928   1.601   9.158  0.4663 -0.1667 -0.1613
  331loPI    C1 5281  14.940  13.304  11.520  0.2237  0.1886 -0.0593
  331loPI    C2 5282  14.800  13.594  11.757 -0.0550  0.0703 -0.0749
  331loPI    C3 5283  14.729  13.211  11.847  0.0434  0.0168 -0.2217
  331loPI   PO4 5284  14.976  13.328  11.240 -0.0499 -0.0260 -0.0546
  331loPI   GL1 5285  15.186  13.373  10.863  0.0591 -0.1172  0.3568
  331loPI   GL2 5286  15.136  13.657  10.840  0.0925 -0.0338  0.2063
  331loPI   C1A 5287  15.314  13.117  10.460  0.1375  0.2323 -0.1139
  331loPI   C2A 5288  15.333  13.036  10.034 -0.2115 -0.0465 -0.1781
  331loPI   C3A 5289  15.452  13.040   9.654 -0.1396 -0.2265 -0.1075
  331loPI   C4A 5290  15.521  12.971   9.221 -0.2719 -0.1191 -0.1550
  331loPI   C5A 5291  15.670  13.179   8.862 -0.1516 -0.0443 -0.0205
  331loPI   C6A 5292  15.331  13.346   8.571  0.0861 -0.0783  0.3186
  331loPI   C1B 5293  15.189  13.572  10.430 -0.0981  0.2265  0.2480
  331loPI   C2B 5294  15.283  13.568   9.923  0.2049 -0.1087  0.0451
  331loPI   C3B 5295  15.260  13.515   9.467 -0.2220  0.0993  0.3812
  331loPI   C4B 5296  15.349  13.432   9.060 -0.0757 -0.1420 -0.2156
  332loPI    C1 5297   6.347  16.516  11.832 -0.0318  0.0897  0.1404
  332loPI    C2 5298   6.722  16.503  11.973  0.0395  0.0465 -0.0504
  332loPI    C3 5299   6.413  16.524  12.227  0.1735  0.1497  0.1060
  332loPI   PO4 5300   6.419  16.598  11.531  0.4073 -0.1635  0.0359
  332loPI   GL1 5301   6.563  16.804  11.230 -0.2021  0.0557  0.0568
  332loPI   GL2 5302   6.209  16.619  11.085  0.0868 -0.3021 -0.0329
  332loPI   C1A 5303   6.595  16.883  10.847  0.2386 -0.1767 -0.1675
  332loPI   C2A 5304   6.570  16.798  10.416  0.1220  0.0549  0.1425
  332loPI   C3A 5305   6.603  16.856  10.011  0.0829  0.2664  0.1895
  332loPI   C4A 5306   6.634  16.801   9.574 -0.1590 -0.1076  0.1286
  332loPI   C5A 5307   6.644  16.770   9.132  0.0907  0.0058 -0.4004
  332loPI   C6A 5308   6.905  16.626   8.842  0.0543  0.1032  0.2922
  332loPI   C1B 5309   6.266  16.493  10.634 -0.2781 -0.0805 -0.1458
  332loPI   C2B 5310   6.270  16.441  10.188 -0.1211 -0.1295 -0.1494
  332loPI   C3B 5311   6.270  16.450   9.758 -0.2263 -0.2973 -0.1426
  332loPI   C4B 5312   6.329  16.433   9.357 -0.0682 -0.1772  0.0323
  333loPI    C1 5313  13.384  13.947  11.417 -0.0223 -0.0772  0.1584
  333loPI    C2 5314  13.072  13.742  11.559  0.0034 -0.0762  0.2166
  333loPI    C3 5315  13.443  13.642  11.668  0.0347 -0.1865  0.0140
  333loPI   PO4 5316  13.354  13.887  11.167 -0.1661  0.2008 -0.0185
  333loPI   GL1 5317  13.401  13.801  10.774 -0.2519  0.0302  0.1987
  333loPI   GL2 5318  13.668  13.918  10.772  0.0593 -0.1353 -0.1767
  333loPI   C1A 5319  13.171  13.907  10.473 -0.1668  0.0778  0.1204
  333loPI   C2A 5320  13.197  13.863  10.062  0.2322 -0.0455  0.2490
  333loPI   C3A 5321  13.193  13.790   9.664 -0.0166  0.1325  0.0825
  333loPI   C4A 5322  13.146  13.691   9.175 -0.0785  0.0522 -0.2917
  333loPI   C5A 5323  13.141  13.668   8.728  0.0223 -0.3523 -0.2538
  333loPI   C6A 5324  12.889  13.796   8.418  0.0084  0.1384 -0.2713
  333loPI   C1B 5325  13.648  13.857  10.326 -0.1185 -0.1276 -0.2066
  333loPI   C2B 5326  13.672  13.720   9.919 -0.3754 -0.0875  0.0373
  333loPI   C3B 5327  13.635  13.689   9.394  0.2378  0.2904  0.1688
  333loPI   C4B 5328  13.577  13.607   8.960 -0.0222  0.0109 -0.4505
  334loPI    C1 5329   4.079  12.452  11.351  0.0566  0.0514  0.0735
  334loPI    C2 5330   3.733  12.360  11.530  0.0436  0.0553  0.0504
  334loPI    C3 5331   4.014  12.563  11.729  0.0749 -0.0396  0.1035
  334loPI   PO4 5332   3.997  12.537  11.073 -0.0812 -0.1381 -0.1413
  334loPI   GL1 5333   3.978  12.521  10.668 -0.2160  0.1147  0.2489
  334loPI   GL2 5334   4.065  12.167  10.686  0.0110 -0.3122  0.1346
  334loPI   C1A 5335   3.937  12.651  10.276 -0.1436  0.0629  0.0408
  334loPI   C2A 5336   3.960  12.614   9.899 -0.2145  0.0337 -0.0645
  334loPI   C3A 5337   4.002  12.739   9.482 -0.1403  0.3020  0.1856
  334loPI   C4A 5338   3.985  12.770   9.039 -0.5012  0.0193 -0.0192
  334loPI   C5A 5339   4.104  12.935   8.714  0.0046 -0.3381  0.1436
  334loPI   C6A 5340   4.083  13.303   8.472  0.2356  0.0023  0.3814
  334loPI   C1B 5341   4.202  12.196  10.255 -0.1599  0.3945  0.0176
  334loPI   C2B 5342   4.213  12.138   9.907  0.1841 -0.0154  0.0444
  334loPI   C3B 5343   4.225  12.261   9.395  0.2032  0.0076  0.1266
  334loPI   C4B 5344   4.225  12.291   8.938  0.0595 -0.1722 -0.2853
  335loPI    C1 5345   3.185   0.606  11.807  0.0207 -0.0798  0.1086
  335loPI    C2 5346   2.842   0.639  12.010  0.0710 -0.0943  0.1963
  335loPI    C3 5347   3.188   0.745  12.182  0.1101 -0.0753  0.1065
  335loPI   PO4 5348   3.066   0.631  11.532  0.0887 -0.3337  0.0701
  335loPI   GL1 5349   3.039   0.773  11.087  0.1723  0.0489 -0.1032
  335loPI   GL2 5350   3.098   0.475  10.837  0.1259 -0.1639  0.0393
  335loPI   C1A 5351   2.966   0.950  10.687 -0.3293 -0.0188 -0.2101
  335loPI   C2A 5352   3.000   0.933  10.295 -0.1214 -0.0763  0.0555
  335loPI   C3A 5353   3.021   1.033   9.883 -0.0229 -0.0708 -0.0582
  335loPI   C4A 5354   3.013   1.038   9.442  0.2728 -0.1030 -0.1140
  335loPI   C5A 5355   3.148   1.077   8.965  0.2330 -0.3564  0.3753
  335loPI   C6A 5356   2.970   1.033   8.625 -0.0231 -0.0342 -0.2659
  335loPI   C1B 5357   3.099   0.343  10.482 -0.3471  0.0145  0.2582
  335loPI   C2B 5358   3.202   0.513  10.092  0.2262 -0.1309  0.0439
  335loPI   C3B 5359   3.187   0.575   9.676 -0.2550  0.0972 -0.0934
  335loPI   C4B 5360   3.248   0.595   9.249 -0.2156  0.0034  0.1383
  336loPI    C1 5361   6.299   6.493  11.406  0.0042  0.0814  0.0826
  336loPI    C2 5362   6.583   6.418  11.678 -0.0692  0.1298  0.1733
  336loPI    C3 5363   6.221   6.251  11.715 -0.0363  0.0235  0.0272
  336loPI   PO4 5364   6.362   6.364  11.178  0.2146  0.2083 -0.0016
  336loPI   GL1 5365   6.264   6.193  10.794 -0.2275  0.1398 -0.1678
  336loPI   GL2 5366   6.580   6.347  10.732 -0.0858  0.1258  0.0691
  336loPI   C1A 5367   6.187   5.988  10.461 -0.1781  0.0412 -0.0542
  336loPI   C2A 5368   6.278   6.005  10.041  0.1317 -0.1443  0.0322
  336loPI   C3A 5369   6.211   6.043   9.595 -0.2210 -0.1547 -0.3208
  336loPI   C4A 5370   6.244   6.050   9.216  0.5281  0.0185 -0.1030
  336loPI   C5A 5371   6.255   5.947   8.781  0.0439  0.3754  0.0541
  336loPI   C6A 5372   6.349   6.247   8.438 -0.0332  0.4167 -0.5104
  336loPI   C1B 5373   6.457   6.417  10.311  0.1184  0.0704  0.0373
  336loPI   C2B 5374   6.468   6.398   9.826  0.0234  0.0249  0.1945
  336loPI   C3B 5375   6.499   6.490   9.423  0.2114 -0.0313  0.0598
  336loPI   C4B 5376   6.559   6.393   8.969 -0.1822 -0.0056  0.0317
  337loPI    C1 5377  11.997   6.282  11.578 -0.2008  0.1537 -0.1489
  337loPI    C2 5378  11.856   6.237  11.949  0.0661 -0.1687 -0.0814
  337loPI    C3 5379  11.986   6.595  11.827  0.1039 -0.0909  0.1816
  337loPI   PO4 5380  11.848   6.193  11.478  0.0716  0.1317  0.1031
  337loPI   GL1 5381  11.609   6.287  11.133  0.1390 -0.1072 -0.2209
  337loPI   GL2 5382  11.914   6.220  11.006  0.1307  0.1261  0.2215
  337loPI   C1A 5383  11.419   6.332  10.766  0.1432  0.2107  0.3821
  337loPI   C2A 5384  11.350   6.253  10.258  0.1157 -0.1031  0.0532
  337loPI   C3A 5385  11.361   6.295   9.825 -0.1536  0.0292 -0.3196
  337loPI   C4A 5386  11.271   6.375   9.459  0.3591  0.0111 -0.1281
  337loPI   C5A 5387  11.427   6.303   9.083 -0.0406 -0.4488 -0.0714
  337loPI   C6A 5388  11.764   6.272   8.832 -0.1016  0.0232 -0.0696
  337loPI   C1B 5389  11.891   6.189  10.675  0.2407  0.0944  0.0845
  337loPI   C2B 5390  11.889   6.259  10.259  0.0386  0.3451 -0.1321
  337loPI   C3B 5391  11.849   6.279   9.785 -0.1485 -0.0014  0.1494
  337loPI   C4B 5392  11.871   6.232   9.360  0.0963 -0.1704 -0.2582
  338loPI    C1 5393   0.366  14.420  11.551  0.0533 -0.0676  0.0815
  338loPI    C2 5394   0.394  14.796  11.684  0.0465 -0.0539  0.0442
  338loPI    C3 5395   0.173  14.529  11.884  0.2125 -0.0896  0.1826
  338loPI   PO4 5396   0.267  14.445  11.357 -0.1477 -0.1184 -0.0938
  338loPI   GL1 5397   0.284  14.818  11.060  0.2400  0.4665  0.1764
  338loPI   GL2 5398   0.586  14.901  10.780 -0.1346 -0.3378 -0.0394
  338loPI   C1A 5399   0.233  14.592  10.661 -0.4198 -0.1753  0.0976
  338loPI   C2A 5400   0.310  14.529  10.227 -0.1387  0.3913 -0.4092
  338loPI   C3A 5401   0.333  14.464   9.803  0.0962 -0.1684 -0.2072
  338loPI   C4A 5402   0.395  14.502   9.333  0.1968  0.2733  0.0728
  338loPI   C5A 5403   0.470  14.434   8.931  0.0924  0.2957  0.0744
  338loPI   C6A 5404   0.276  14.384   8.586  0.0335  0.2551  0.2229
  338loPI   C1B 5405   0.667  14.965  10.330  0.1428  0.0627  0.1725
  338loPI   C2B 5406   0.685  14.940   9.847  0.0977  0.1264 -0.0386
  338loPI   C3B 5407   0.682  14.909   9.437 -0.0847 -0.0785  0.1911
  338loPI   C4B 5408   0.818  14.874   8.976 -0.2365  0.1422 -0.0650
  339loPI    C1 5409   2.465  12.288  11.715  0.0655 -0.1026  0.3011
  339loPI    C2 5410   2.534  12.682  11.732 -0.0689 -0.0750  0.2261
  339loPI    C3 5411   2.328  12.503  12.024 -0.1639 -0.0574  0.1700
  339loPI   PO4 5412   2.313  12.306  11.384 -0.2263 -0.0875 -0.1864
  339loPI   GL1 5413   2.346  12.660  11.006  0.1085  0.0176  0.0585
  339loPI   GL2 5414   2.470  12.842  10.824  0.1695  0.0748  0.0649
  339loPI   C1A 5415   2.002  12.485  10.794 -0.2550 -0.0690 -0.0693
  339loPI   C2A 5416   2.157  12.417  10.358  0.0890  0.1340  0.0926
  339loPI   C3A 5417   2.171  12.444   9.981 -0.1078  0.1351  0.0289
  339loPI   C4A 5418   2.067  12.386   9.497 -0.2015  0.2135 -0.0593
  339loPI   C5A 5419   1.806  12.563   8.995 -0.0434  0.2165  0.0129
  339loPI   C6A 5420   1.756  12.651   8.599  0.1491 -0.3275  0.0414
  339loPI   C1B 5421   2.463  12.874  10.364 -0.1152  0.0849  0.1512
  339loPI   C2B 5422   2.456  12.940   9.881  0.0882  0.0654 -0.1431
  339loPI   C3B 5423   2.405  12.821   9.515 -0.3309 -0.0905  0.2251
  339loPI   C4B 5424   2.322  12.761   9.123 -0.1399  0.0482  0.2918
  340loPI    C1 5425  15.118   0.726  11.553 -0.2543  0.1262  0.3255
  340loPI    C2 5426  15.387   1.021  11.528  0.0953 -0.2098 -0.0174
  340loPI    C3 5427  15.380   0.783  11.849  0.0175 -0.0264  0.1189
  340loPI   PO4 5428  15.118   0.709  11.331 -0.1499 -0.0306 -0.1276
  340loPI   GL1 5429  15.162   0.838  10.968  0.4095  0.0155  0.0994
  340loPI   GL2 5430  14.951   0.562  10.894 -0.1282 -0.1998  0.0615
  340loPI   C1A 5431  15.103   0.934  10.544  0.2153  0.0168 -0.0192
  340loPI   C2A 5432  15.022   0.794  10.076  0.5902  0.1476  0.2237
  340loPI   C3A 5433  14.976   0.767   9.642 -0.3266  0.0100 -0.0308
  340loPI   C4A 5434  14.925   0.843   9.212  0.2731 -0.1318  0.1355
  340loPI   C5A 5435  14.902   0.679   8.799 -0.0181  0.1129 -0.0329
  340loPI   C6A 5436  14.548   0.602   8.493  0.0523  0.2959  0.1249
  340loPI   C1B 5437  14.792   0.515  10.436 -0.1674 -0.0571 -0.2702
  340loPI   C2B 5438  14.750   0.412   9.981  0.1285  0.0151 -0.1535
  340loPI   C3B 5439  14.683   0.321   9.593 -0.1222  0.1959  0.1674
  340loPI   C4B 5440  14.621   0.394   9.173 -0.1938  0.4696 -0.0273
  341loPI    C1 5441  16.235   5.838  11.271  0.2206  0.1641 -0.1579
  341loPI    C2 5442  16.015   6.120  11.450  0.0554  0.0044 -0.1063
  341loPI    C3 5443  16.311   5.940  11.650 -0.0833 -0.1239 -0.0148
  341loPI   PO4 5444  16.393   5.886  11.021  0.0657  0.3140 -0.2156
  341loPI   GL1 5445  16.334   5.855  10.740 -0.1560  0.1219 -0.2757
  341loPI   GL2 5446  16.404   5.678  10.455 -0.0829  0.1641  0.3649
  341loPI   C1A 5447  16.204   6.115  10.292 -0.2385 -0.0036 -0.0457
  341loPI   C2A 5448  16.230   6.101   9.850  0.4022 -0.1834  0.0895
  341loPI   C3A 5449  16.269   6.140   9.390  0.0785 -0.0606 -0.0005
  341loPI   C4A 5450  16.286   6.208   9.028  0.2800  0.0788 -0.0012
  341loPI   C5A 5451  16.401   6.223   8.614  0.4397  0.1045  0.0866
  341loPI   C6A 5452  16.740   6.249   8.406  0.1625 -0.1604 -0.0676
  341loPI   C1B 5453  16.396   5.704  10.035  0.1860  0.3061  0.1752
  341loPI   C2B 5454  16.425   5.648   9.610 -0.0256 -0.1644 -0.0257
  341loPI   C3B 5455  16.403   5.705   9.153  0.1366 -0.1174 -0.2039
  341loPI   C4B 5456  16.422   5.383   8.768  0.0462  0.0258 -0.1907
  342loPI    C1 5457   5.290   3.281  11.810 -0.0235 -0.1468 -0.0384
  342loPI    C2 5458   5.459   3.207  12.165 -0.1082 -0.0647  0.0194
  342loPI    C3 5459   5.085   3.346  12.146 -0.0610  0.0485 -0.0981
  342loPI   PO4 5460   5.611   3.209  11.613  0.1992 -0.3637  0.0565
  342loPI   GL1 5461   5.649   3.210  11.072 -0.0286 -0.2910  0.0823
  342loPI   GL2 5462   5.512   2.954  11.013  0.0551 -0.0595 -0.0269
  342loPI   C1A 5463   5.777   3.318  10.627  0.3276 -0.0744 -0.0106
  342loPI   C2A 5464   5.811   3.268  10.176 -0.0262 -0.1839  0.1079
  342loPI   C3A 5465   5.869   3.285   9.767  0.2084  0.2717 -0.0578
  342loPI   C4A 5466   5.816   3.275   9.397  0.2352 -0.2140  0.0307
  342loPI   C5A 5467   5.823   3.328   8.942  0.0709  0.1087  0.1055
  342loPI   C6A 5468   5.839   3.546   8.536 -0.3508  0.0529 -0.1017
  342loPI   C1B 5469   5.474   2.946  10.577 -0.2314  0.0229  0.2485
  342loPI   C2B 5470   5.581   2.838  10.183 -0.0616 -0.2194 -0.0634
  342loPI   C3B 5471   5.452   2.908   9.689  0.0251 -0.0177  0.0130
  342loPI   C4B 5472   5.510   2.881   9.259 -0.1295 -0.1673  0.0174
  343loPI    C1 5473   8.425  13.529  11.456  0.0660 -0.0467  0.1165
  343loPI    C2 5474   8.518  13.248  11.725 -0.0904 -0.0057  0.2146
  343loPI    C3 5475   8.637  13.626  11.781 -0.1030 -0.0017  0.2145
  343loPI   PO4 5476   8.448  13.427  11.252 -0.1385  0.0512 -0.1375
  343loPI   GL1 5477   8.346  13.163  10.878  0.0485 -0.0731  0.4163
  343loPI   GL2 5478   8.362  12.774  10.795  0.1829  0.2236  0.2800
  343loPI   C1A 5479   8.241  13.148  10.495  0.2310  0.0131  0.0406
  343loPI   C2A 5480   8.148  12.991  10.106 -0.1372  0.1094  0.1082
  343loPI   C3A 5481   8.180  12.944   9.703  0.0225 -0.0061  0.2755
  343loPI   C4A 5482   8.179  13.026   9.285  0.0479  0.1424  0.2253
  343loPI   C5A 5483   8.058  13.034   8.836  0.0537 -0.1059 -0.1532
  343loPI   C6A 5484   7.835  13.320   8.512 -0.1391  0.0205  0.1774
  343loPI   C1B 5485   8.417  12.591  10.394  0.1896  0.2031  0.1759
  343loPI   C2B 5486   8.371  12.518   9.994 -0.3199 -0.1664  0.0197
  343loPI   C3B 5487   8.349  12.471   9.620  0.1577  0.0303  0.2015
  343loPI   C4B 5488   8.273  12.528   9.121 -0.1897  0.0577 -0.2808
  344loPI    C1 5489   0.811   7.657  11.653 -0.0953  0.0953  0.0722
  344loPI    C2 5490   0.935   7.988  11.840  0.0015  0.1536 -0.0927
  344loPI    C3 5491   0.629   7.777  11.988 -0.0036  0.2674  0.0615
  344loPI   PO4 5492   0.774   7.790  11.402  0.0037 -0.0523  0.3047
  344loPI   GL1 5493   0.941   7.755  10.931  0.2696 -0.1468  0.2301
  344loPI   GL2 5494   1.117   8.065  10.981 -0.3372 -0.1427 -0.1361
  344loPI   C1A 5495   0.788   7.694  10.533  0.0401 -0.1807 -0.0444
  344loPI   C2A 5496   0.796   7.680  10.081  0.0189  0.0731 -0.0026
  344loPI   C3A 5497   0.802   7.775   9.641 -0.2492 -0.1170 -0.1386
  344loPI   C4A 5498   0.804   7.719   9.287  0.1132 -0.2642  0.2410
  344loPI   C5A 5499   0.759   7.727   8.854  0.4761 -0.0916 -0.1846
  344loPI   C6A 5500   0.935   7.853   8.464 -0.0531  0.2979 -0.0763
  344loPI   C1B 5501   1.113   8.128  10.522  0.2188  0.0336  0.0048
  344loPI   C2B 5502   1.154   8.134  10.096  0.2046 -0.2122 -0.0440
  344loPI   C3B 5503   1.165   8.106   9.625  0.1790 -0.0094  0.1637
  344loPI   C4B 5504   1.112   8.091   9.197  0.1729 -0.0658  0.0872
  345loPI    C1 5505   3.483  10.908  11.743 -0.1439 -0.1321 -0.2284
  345loPI    C2 5506   3.355  11.042  12.097  0.0983  0.1108 -0.2295
  345loPI    C3 5507   3.453  10.656  12.053  0.1573  0.0986 -0.0069
  345loPI   PO4 5508   3.271  11.176  11.593 -0.3932  0.2063 -0.1411
  345loPI   GL1 5509   3.185  11.341  11.120 -0.0019 -0.0750 -0.1930
  345loPI   GL2 5510   3.438  11.317  11.025 -0.2343 -0.0141 -0.0712
  345loPI   C1A 5511   2.988  11.438  10.761 -0.2933 -0.1526  0.1554
  345loPI   C2A 5512   3.063  11.408  10.361  0.0335  0.1341  0.2927
  345loPI   C3A 5513   3.052  11.365   9.896 -0.2542 -0.2260 -0.1989
  345loPI   C4A 5514   3.046  11.407   9.445 -0.0837  0.0199 -0.2082
  345loPI   C5A 5515   3.077  11.511   9.035  0.0295  0.1363 -0.0663
  345loPI   C6A 5516   3.148  11.674   8.558  0.0471  0.0266  0.2505
  345loPI   C1B 5517   3.572  11.292  10.534  0.0243  0.0867  0.0312
  345loPI   C2B 5518   3.502  11.335  10.095  0.1361  0.0675 -0.1656
  345loPI   C3B 5519   3.538  11.351   9.649  0.1491 -0.0627  0.1490
  345loPI   C4B 5520   3.548  11.423   9.217  0.1650 -0.1611  0.1256
  346loPI    C1 5521  11.179   8.264  11.560 -0.2031  0.0033 -0.1205
  346loPI    C2 5522  11.141   7.920  11.759 -0.2977  0.0300 -0.0919
  346loPI    C3 5523  11.030   8.263  11.931  0.0367  0.1070 -0.0221
  346loPI   PO4 5524  11.085   8.105  11.308  0.3794 -0.1372 -0.0673
  346loPI   GL1 5525  11.203   8.057  10.873  0.0149 -0.1682  0.2610
  346loPI   GL2 5526  11.277   7.695  10.791 -0.0995  0.2225  0.2777
  346loPI   C1A 5527  11.114   8.081  10.479  0.0863 -0.3119  0.1928
  346loPI   C2A 5528  11.141   8.127  10.082  0.1705 -0.0412 -0.1692
  346loPI   C3A 5529  11.083   8.175   9.617  0.1320  0.0623 -0.1691
  346loPI   C4A 5530  11.115   8.104   9.145  0.0613  0.1232 -0.2434
  346loPI   C5A 5531  10.893   7.985   8.812  0.0204 -0.0314  0.1842
  346loPI   C6A 5532  10.791   7.962   8.375  0.0703 -0.1965 -0.1537
  346loPI   C1B 5533  11.290   7.653  10.305  0.3461 -0.1433 -0.0860
  346loPI   C2B 5534  11.359   7.662   9.824 -0.2131 -0.0480  0.1198
  346loPI   C3B 5535  11.334   7.681   9.369 -0.0107 -0.3564  0.0163
  346loPI   C4B 5536  11.245   7.626   8.941 -0.0315 -0.1994 -0.0851
  347loPI    C1 5537  13.493   3.236  11.665 -0.2080 -0.2297 -0.0074
  347loPI    C2 5538  13.107   3.183  11.759 -0.2092  0.0221  0.1387
  347loPI    C3 5539  13.322   3.464  11.945  0.1036 -0.2568  0.2092
  347loPI   PO4 5540  13.515   3.078  11.438  0.3606  0.2270 -0.1832
  347loPI   GL1 5541  13.406   2.808  11.039  0.1036 -0.2611 -0.0324
  347loPI   GL2 5542  13.406   3.178  10.901 -0.1089 -0.4122 -0.4002
  347loPI   C1A 5543  13.213   2.838  10.650 -0.1993 -0.1915 -0.0127
  347loPI   C2A 5544  13.241   2.883  10.191 -0.1262 -0.3477 -0.0109
  347loPI   C3A 5545  13.172   2.926   9.747 -0.1573  0.3224 -0.2032
  347loPI   C4A 5546  13.250   2.812   9.363  0.0854  0.0744 -0.1015
  347loPI   C5A 5547  13.336   2.999   8.939 -0.0677  0.4460 -0.2017
  347loPI   C6A 5548  13.266   3.340   8.698  0.1089  0.2095  0.0839
  347loPI   C1B 5549  13.579   3.305  10.509 -0.1917 -0.0236  0.1056
  347loPI   C2B 5550  13.517   3.277  10.098 -0.0897 -0.0847 -0.0616
  347loPI   C3B 5551  13.505   3.291   9.703 -0.0375 -0.0665  0.1962
  347loPI   C4B 5552  13.564   3.212   9.287 -0.1490  0.1713 -0.0837
  348loPI    C1 5553   4.874   3.815  12.019  0.1513 -0.0715  0.0580
  348loPI    C2 5554   4.518   3.663  12.120  0.0343  0.1103 -0.0740
  348loPI    C3 5555   4.765   3.800  12.403 -0.0121  0.0094  0.0158
  348loPI   PO4 5556   4.902   3.683  11.821 -0.1531  0.0043  0.2076
  348loPI   GL1 5557   4.973   3.651  11.388  0.0823  0.5891  0.1120
  348loPI   GL2 5558   5.165   3.396  11.306 -0.2360 -0.3433 -0.0260
  348loPI   C1A 5559   4.705   3.855  11.029 -0.0371  0.0000  0.1717
  348loPI   C2A 5560   4.565   3.877  10.555 -0.0510  0.0040  0.1384
  348loPI   C3A 5561   4.622   4.016  10.061  0.0447  0.1215  0.2021
  348loPI   C4A 5562   4.677   3.893   9.622  0.0110 -0.1400 -0.0786
  348loPI   C5A 5563   4.655   3.963   9.205  0.2126  0.0263 -0.2672
  348loPI   C6A 5564   4.824   4.077   8.866  0.0331 -0.4026  0.4495
  348loPI   C1B 5565   5.311   3.454  10.832 -0.0743 -0.2342 -0.3171
  348loPI   C2B 5566   5.357   3.424  10.363 -0.2373  0.1870 -0.0370
  348loPI   C3B 5567   5.315   3.298   9.971 -0.0626 -0.1538  0.3182
  348loPI   C4B 5568   5.356   3.356   9.523 -0.0733  0.0913 -0.0813
  349loPI    C1 5569   5.537  14.357  11.526 -0.0910 -0.1623 -0.0606
  349loPI    C2 5570   5.775  14.516  11.805  0.0969  0.0005 -0.3086
  349loPI    C3 5571   5.526  14.218  11.901 -0.0620  0.2562  0.1006
  349loPI   PO4 5572   5.521  14.545  11.385  0.0401  0.2745  0.0365
  349loPI   GL1 5573   5.765  14.595  11.071  0.1233 -0.1807 -0.1376
  349loPI   GL2 5574   5.450  14.833  10.965  0.1869  0.0864 -0.1442
  349loPI   C1A 5575   6.008  14.604  10.730 -0.2791 -0.0516 -0.1439
  349loPI   C2A 5576   6.171  14.607  10.417 -0.0069  0.1482  0.0605
  349loPI   C3A 5577   6.026  14.676   9.944 -0.1830  0.0759  0.1535
  349loPI   C4A 5578   6.026  14.604   9.528  0.2144  0.1998 -0.0576
  349loPI   C5A 5579   6.052  14.668   9.108  0.0321 -0.2732 -0.0064
  349loPI   C6A 5580   5.747  14.814   8.773  0.0218 -0.1715 -0.2291
  349loPI   C1B 5581   5.546  14.729  10.561 -0.2104  0.0156 -0.0653
  349loPI   C2B 5582   5.589  14.725  10.071 -0.1657  0.1058 -0.0486
  349loPI   C3B 5583   5.563  14.689   9.689 -0.4395 -0.0561 -0.1620
  349loPI   C4B 5584   5.581  14.729   9.258  0.0629  0.5014 -0.0890
  350loPI    C1 5585  13.918  16.397  11.744 -0.1233  0.1300  0.1231
  350loPI    C2 5586  14.032  16.367  12.126 -0.1083  0.1453  0.1198
  350loPI    C3 5587  13.753  16.120  11.980  0.0943 -0.0532  0.0635
  350loPI   PO4 5588  14.196  16.402  11.537 -0.0159  0.2471 -0.0553
  350loPI   GL1 5589  14.152  16.305  11.154 -0.0437  0.3353  0.0774
  350loPI   GL2 5590  13.892  16.308  11.064  0.0225 -0.0831  0.0136
  350loPI   C1A 5591  14.358  16.433  10.866 -0.1350  0.2091 -0.0500
  350loPI   C2A 5592  14.435  16.440  10.379 -0.0074  0.0294  0.0913
  350loPI   C3A 5593  14.441  16.335  10.011 -0.0076  0.2818  0.0667
  350loPI   C4A 5594  14.507  16.262   9.612 -0.1933 -0.1177 -0.2257
  350loPI   C5A 5595  14.506  16.309   9.149 -0.2775  0.0554  0.2590
  350loPI   C6A 5596  14.745  16.201   8.765  0.0014  0.1033 -0.0470
  350loPI   C1B 5597  13.962  16.465  10.605 -0.2214  0.1795  0.0822
  350loPI   C2B 5598  13.910  16.457  10.193 -0.1841  0.1250 -0.0888
  350loPI   C3B 5599  13.967  16.436   9.774  0.3130  0.3761  0.2415
  350loPI   C4B 5600  14.037  16.263   9.428  0.2431 -0.0741 -0.0502
  351loPI    C1 5601  14.553   3.201  11.797 -0.0831 -0.0546  0.1239
  351loPI    C2 5602  14.730   3.560  11.813 -0.1207 -0.0381  0.1769
  351loPI    C3 5603  14.498   3.438  12.115 -0.1485 -0.0862  0.1363
  351loPI   PO4 5604  14.471   3.142  11.576  0.3280  0.1899 -0.3824
  351loPI   GL1 5605  14.439   3.108  11.149  0.0294  0.0467  0.2029
  351loPI   GL2 5606  14.423   3.310  10.919  0.0164  0.4199 -0.0928
  351loPI   C1A 5607  14.294   2.886  10.730 -0.1747  0.0779  0.0933
  351loPI   C2A 5608  14.242   2.702  10.333 -0.3547  0.3221 -0.1627
  351loPI   C3A 5609  14.161   2.660   9.907 -0.0514 -0.2916 -0.0267
  351loPI   C4A 5610  14.201   2.683   9.468 -0.1616 -0.2353 -0.4517
  351loPI   C5A 5611  14.278   2.658   9.027  0.2392  0.1866  0.1925
  351loPI   C6A 5612  14.199   2.914   8.622  0.2277 -0.1175  0.0911
  351loPI   C1B 5613  14.564   3.220  10.477 -0.0424 -0.1020 -0.3860
  351loPI   C2B 5614  14.601   3.087  10.103 -0.0486  0.3848  0.1088
  351loPI   C3B 5615  14.513   2.967   9.721  0.3793 -0.1264  0.1764
  351loPI   C4B 5616  14.535   3.052   9.274 -0.2972  0.0676 -0.0501
  352loPI    C1 5617   7.763   7.100  11.493 -0.0225 -0.2019  0.0928
  352loPI    C2 5618   8.052   6.949  11.726  0.0157 -0.3298 -0.0360
  352loPI    C3 5619   7.700   7.052  11.885  0.2225  0.0822  0.1711
  352loPI   PO4 5620   7.810   7.055  11.299  0.0767 -0.0456  0.2623
  352loPI   GL1 5621   7.571   7.116  10.888 -0.0769 -0.1700  0.0701
  352loPI   GL2 5622   7.923   7.012  10.737  0.0855  0.1077 -0.1018
  352loPI   C1A 5623   7.609   7.130  10.370 -0.0448  0.1536 -0.0581
  352loPI   C2A 5624   7.644   7.180   9.925  0.3840 -0.1687 -0.3728
  352loPI   C3A 5625   7.603   7.317   9.558  0.1818  0.1131  0.0249
  352loPI   C4A 5626   7.608   7.256   9.094 -0.0153 -0.2458  0.0087
  352loPI   C5A 5627   7.835   7.625   8.883 -0.0564  0.0712  0.1211
  352loPI   C6A 5628   8.123   7.982   8.869  0.1926  0.1740 -0.1361
  352loPI   C1B 5629   8.129   7.114  10.336  0.1447  0.2240 -0.1677
  352loPI   C2B 5630   8.175   7.067   9.994  0.0716 -0.0533 -0.0999
  352loPI   C3B 5631   8.182   7.210   9.516 -0.1494  0.2537  0.0736
  352loPI   C4B 5632   8.089   7.215   9.129 -0.2009  0.1603 -0.0800
  353loPI    C1 5633  10.149   6.530  11.435 -0.1558  0.0468  0.0044
  353loPI    C2 5634  10.004   6.790  11.702 -0.0851 -0.0102  0.0991
  353loPI    C3 5635  10.398   6.771  11.635 -0.0809 -0.1595  0.1635
  353loPI   PO4 5636  10.056   6.553  11.262  0.0668 -0.3468  0.3759
  353loPI   GL1 5637  10.140   6.742  10.890 -0.0305 -0.1205  0.0005
  353loPI   GL2 5638  10.083   7.028  10.742 -0.0303  0.3121  0.2849
  353loPI   C1A 5639  10.371   6.577  10.558  0.4444 -0.1774 -0.1763
  353loPI   C2A 5640  10.334   6.482  10.161 -0.2016 -0.0128 -0.0910
  353loPI   C3A 5641  10.356   6.474   9.694  0.1132 -0.2001  0.2352
  353loPI   C4A 5642  10.324   6.493   9.266  0.1259  0.0821  0.1265
  353loPI   C5A 5643  10.484   6.416   8.904  0.0409 -0.1585 -0.2836
  353loPI   C6A 5644  10.491   6.288   8.590 -0.0916  0.2989 -0.0822
  353loPI   C1B 5645  10.149   6.983  10.298  0.2935 -0.1592  0.1538
  353loPI   C2B 5646  10.250   6.924   9.866  0.0714 -0.1230  0.0784
  353loPI   C3B 5647  10.115   6.890   9.465  0.1139  0.0488 -0.0112
  353loPI   C4B 5648  10.146   6.864   9.002 -0.1999  0.2039  0.0616
  354loPI    C1 5649  10.675   7.183  11.482 -0.0188  0.1583  0.0510
  354loPI    C2 5650  10.895   7.428  11.709 -0.0263  0.1806  0.0342
  354loPI    C3 5651  10.759   7.084  11.860  0.0280  0.1624  0.0417
  354loPI   PO4 5652  10.786   7.148  11.308 -0.0399  0.3152 -0.0642
  354loPI   GL1 5653  11.047   7.119  11.081 -0.0605  0.0678 -0.1673
  354loPI   GL2 5654  11.393   7.249  10.978  0.1325 -0.3467 -0.1382
  354loPI   C1A 5655  10.923   7.291  10.644 -0.1570 -0.0763 -0.2127
  354loPI   C2A 5656  10.994   7.293  10.155  0.2452  0.1063  0.0114
  354loPI   C3A 5657  11.026   7.320   9.720 -0.1055 -0.2072 -0.1582
  354loPI   C4A 5658  11.014   7.314   9.274  0.1939  0.3675 -0.0032
  354loPI   C5A 5659  10.805   7.334   8.809 -0.0300  0.3281  0.2514
  354loPI   C6A 5660  10.583   7.331   8.387  0.0284  0.0169 -0.0244
  354loPI   C1B 5661  11.405   7.231  10.481  0.3640  0.0741 -0.0179
  354loPI   C2B 5662  11.477   7.229  10.001 -0.0726  0.2427 -0.0360
  354loPI   C3B 5663  11.473   7.200   9.505 -0.0922 -0.0706 -0.3358
  354loPI   C4B 5664  11.456   7.205   9.045 -0.5780 -0.3235  0.0753
  355loPI    C1 5665  14.046   8.330  11.621 -0.1799 -0.2752  0.0958
  355loPI    C2 5666  14.355   8.169  11.817  0.0756 -0.0094 -0.0808
  355loPI    C3 5667  14.017   8.254  12.013  0.2085 -0.0540  0.1729
  355loPI   PO4 5668  14.094   8.483  11.482 -0.2292 -0.0408 -0.0422
  355loPI   GL1 5669  14.060   8.439  11.060 -0.1616  0.2008  0.0826
  355loPI   GL2 5670  14.384   8.541  11.050  0.2916 -0.3100  0.0938
  355loPI   C1A 5671  13.975   8.223  10.689  0.1160 -0.1055  0.2204
  355loPI   C2A 5672  13.904   8.214  10.293 -0.3880  0.3716  0.1142
  355loPI   C3A 5673  13.895   8.245   9.927 -0.1933 -0.1261  0.1410
  355loPI   C4A 5674  13.934   8.228   9.532 -0.0322  0.2228  0.0586
  355loPI   C5A 5675  13.966   8.301   9.009 -0.1844  0.0734 -0.0254
  355loPI   C6A 5676  13.649   8.384   8.672  0.1288 -0.0080  0.3264
  355loPI   C1B 5677  14.307   8.598  10.588  0.0193 -0.0966  0.1127
  355loPI   C2B 5678  14.219   8.630  10.181 -0.0737 -0.0519  0.0299
  355loPI   C3B 5679  14.242   8.604   9.654  0.0172 -0.0072 -0.2908
  355loPI   C4B 5680  14.216   8.605   9.306  0.0926 -0.1909  0.2906
  356loPI    C1 5681   8.820  15.877  11.501  0.0607 -0.1718 -0.1227
  356loPI    C2 5682   8.474  16.075  11.534  0.0470 -0.1610 -0.3171
  356loPI    C3 5683   8.609  15.856  11.840 -0.1532 -0.2000 -0.2552
  356loPI   PO4 5684   8.837  15.890  11.141 -0.0939 -0.0920  0.0961
  356loPI   GL1 5685   8.781  15.711  10.842  0.3046 -0.1012 -0.3393
  356loPI   GL2 5686   8.482  15.489  10.827  0.1439  0.0850 -0.2330
  356loPI   C1A 5687   8.527  15.805  10.467 -0.0446  0.3168 -0.2852
  356loPI   C2A 5688   8.470  15.769  10.118 -0.2738 -0.0958  0.0352
  356loPI   C3A 5689   8.487  15.742   9.729  0.0140  0.0254  0.0966
  356loPI   C4A 5690   8.475  15.811   9.351 -0.0059  0.0748  0.1367
  356loPI   C5A 5691   8.422  15.851   8.961  0.0489  0.0228  0.0031
  356loPI   C6A 5692   8.192  15.727   8.605 -0.4698 -0.0937  0.1411
  356loPI   C1B 5693   8.238  15.333  10.415 -0.0553  0.4393  0.5593
  356loPI   C2B 5694   8.192  15.328   9.951  0.1897 -0.1090  0.1530
  356loPI   C3B 5695   8.154  15.314   9.414 -0.3778 -0.2019 -0.0758
  356loPI   C4B 5696   8.245  15.416   9.012 -0.3749  0.1290 -0.1230
  357loPI    C1 5697   9.533  17.840  11.720 -0.1819 -0.1051 -0.0547
  357loPI    C2 5698   9.495  17.443  11.691  0.2708 -0.1317 -0.3938
  357loPI    C3 5699   9.772  17.600  11.933 -0.0458 -0.0120 -0.1009
  357loPI   PO4 5700   9.393  17.917  11.505 -0.0217 -0.0795  0.0497
  357loPI   GL1 5701   9.245  18.031  11.135  0.0560 -0.0378 -0.2723
  357loPI   GL2 5702   9.049  17.868  10.932  0.2266 -0.0108 -0.2807
  357loPI   C1A 5703   9.472  17.858  10.710  0.0259  0.1313 -0.2357
  357loPI   C2A 5704   9.472  17.881  10.291  0.0706  0.4343 -0.0450
  357loPI   C3A 5705   9.470  17.932   9.901 -0.1743 -0.0092  0.0343
  357loPI   C4A 5706   9.515  17.889   9.513 -0.2691  0.2599 -0.2672
  357loPI   C5A 5707   9.525  17.815   9.093  0.1765  0.3267 -0.1380
  357loPI   C6A 5708   9.132  17.675   8.769  0.1061 -0.2100 -0.0169
  357loPI   C1B 5709   9.010  17.877  10.592  0.1292 -0.0141 -0.3639
  357loPI   C2B 5710   8.966  17.960  10.072 -0.1356  0.1114  0.4630
  357loPI   C3B 5711   9.054  17.988   9.644  0.1986 -0.2144 -0.4717
  357loPI   C4B 5712   9.075  17.834   9.297  0.0244 -0.0191 -0.0377
  358loPI    C1 5713   7.096  10.314  11.676  0.1074  0.0053 -0.1432
  358loPI    C2 5714   7.167  10.006  11.922 -0.1857  0.0205 -0.0359
  358loPI    C3 5715   7.101  10.371  12.072 -0.0154  0.1014 -0.1549
  358loPI   PO4 5716   6.933  10.190  11.469 -0.3957  0.1916  0.1487
  358loPI   GL1 5717   6.859  10.478  11.140  0.0835  0.0711  0.3038
  358loPI   GL2 5718   6.597  10.286  11.133 -0.2388 -0.0663 -0.3182
  358loPI   C1A 5719   6.844  10.564  10.733 -0.1590 -0.2509 -0.1888
  358loPI   C2A 5720   6.748  10.472  10.301 -0.1666  0.1977  0.3008
  358loPI   C3A 5721   6.720  10.446   9.813 -0.2427 -0.1804 -0.0831
  358loPI   C4A 5722   6.776  10.552   9.430 -0.0030 -0.1812  0.0996
  358loPI   C5A 5723   6.780  10.489   8.998 -0.0515  0.2637 -0.2702
  358loPI   C6A 5724   6.965  10.265   8.750  0.2601 -0.1812 -0.0533
  358loPI   C1B 5725   6.616  10.129  10.772 -0.1730 -0.3037 -0.0325
  358loPI   C2B 5726   6.524  10.084  10.414 -0.2178  0.0196  0.0990
  358loPI   C3B 5727   6.430  10.066  10.018 -0.1472  0.0361  0.1425
  358loPI   C4B 5728   6.429  10.106   9.609  0.2064 -0.4793 -0.3442
  359loPI    C1 5729   8.078   3.939  11.441 -0.0158  0.5824  0.0420
  359loPI    C2 5730   8.197   3.708  11.745 -0.2414  0.1217 -0.2069
  359loPI    C3 5731   7.999   4.048  11.817  0.0597  0.2257  0.1659
  359loPI   PO4 5732   8.053   3.797  11.283  0.2188 -0.2434 -0.3465
  359loPI   GL1 5733   8.204   3.802  10.803 -0.0722 -0.1210 -0.1465
  359loPI   GL2 5734   8.037   3.899  10.739 -0.3931 -0.1703  0.1081
  359loPI   C1A 5735   8.224   3.485  10.468 -0.2279  0.1503  0.0374
  359loPI   C2A 5736   8.188   3.396  10.016  0.0040 -0.0078 -0.1254
  359loPI   C3A 5737   8.181   3.463   9.610 -0.1705  0.2337 -0.1898
  359loPI   C4A 5738   8.190   3.543   9.278 -0.1423 -0.2169  0.3388
  359loPI   C5A 5739   8.175   3.461   8.776 -0.1266 -0.1414 -0.0023
  359loPI   C6A 5740   8.182   3.312   8.401 -0.3254 -0.0619 -0.0841
  359loPI   C1B 5741   7.998   3.939  10.268 -0.0848  0.0618  0.1231
  359loPI   C2B 5742   7.962   3.917   9.796  0.2589  0.3371  0.1622
  359loPI   C3B 5743   7.945   3.978   9.390  0.0835  0.0869 -0.2356
  359loPI   C4B 5744   8.015   3.997   8.951  0.1050 -0.4011 -0.1677
  360loPI    C1 5745   0.471  17.143  11.626 -0.1495 -0.1048  0.0063
  360loPI    C2 5746   0.638  16.791  11.719 -0.0173 -0.0549 -0.0411
  360loPI    C3 5747   0.761  17.126  11.901 -0.1979 -0.0430  0.0619
  360loPI   PO4 5748   0.479  17.131  11.366 -0.1685 -0.1767 -0.1426
  360loPI   GL1 5749   0.774  16.869  11.071 -0.0201 -0.2311  0.0701
  360loPI   GL2 5750   0.532  16.933  10.925 -0.1414 -0.1380  0.3155
  360loPI   C1A 5751   0.897  16.682  10.664  0.2789  0.1174  0.0556
  360loPI   C2A 5752   0.890  16.703  10.211  0.1863  0.3249  0.1830
  360loPI   C3A 5753   0.781  16.789   9.813  0.2310 -0.0360  0.1431
  360loPI   C4A 5754   0.845  16.669   9.387  0.0196 -0.2321 -0.0321
  360loPI   C5A 5755   0.805  16.798   9.049  0.0203 -0.0053  0.0753
  360loPI   C6A 5756   0.461  17.082   8.889 -0.0202 -0.0090 -0.0376
  360loPI   C1B 5757   0.435  16.818  10.540 -0.0405 -0.0289 -0.1058
  360loPI   C2B 5758   0.370  16.837  10.101 -0.4393 -0.0521 -0.0235
  360loPI   C3B 5759   0.320  16.778   9.664 -0.1436 -0.0062  0.1620
  360loPI   C4B 5760   0.355  16.730   9.178  0.1114 -0.0461  0.3983
  361loPI    C1 5761   6.739   1.376  11.896 -0.0628  0.0491  0.0790
  361loPI    C2 5762   6.708   1.054  12.132 -0.0921 -0.0569 -0.0680
  361loPI    C3 5763   6.696   1.421  12.291 -0.0202 -0.1286  0.1047
  361loPI   PO4 5764   6.537   1.243  11.646  0.1338 -0.1644 -0.2173
  361loPI   GL1 5765   6.506   1.283  11.239  0.2036  0.1624  0.0918
  361loPI   GL2 5766   6.678   1.037  11.131 -0.0980 -0.4151  0.0601
  361loPI   C1A 5767   6.586   1.440  10.781  0.0374 -0.0782 -0.0769
  361loPI   C2A 5768   6.639   1.313  10.353 -0.4621 -0.0902 -0.0016
  361loPI   C3A 5769   6.606   1.400   9.895  0.1999  0.0378 -0.0515
  361loPI   C4A 5770   6.576   1.375   9.484 -0.0991 -0.0422  0.0806
  361loPI   C5A 5771   6.529   1.441   8.996  0.3691  0.2200  0.1423
  361loPI   C6A 5772   6.392   1.901   8.983 -0.3638 -0.0495  0.4935
  361loPI   C1B 5773   6.847   0.899  10.783  0.1014 -0.1514 -0.2018
  361loPI   C2B 5774   6.851   0.847  10.335 -0.0346 -0.1304  0.0077
  361loPI   C3B 5775   6.847   0.910   9.903 -0.1928  0.3115 -0.2631
  361loPI   C4B 5776   6.784   0.953   9.478  0.4096  0.1261 -0.0494
  362loPI    C1 5777  15.973  11.266  11.482 -0.0297  0.4119 -0.0919
  362loPI    C2 5778  15.667  11.205  11.731 -0.0532  0.0770 -0.1973
  362loPI    C3 5779  16.009  11.360  11.869 -0.1779  0.2040 -0.0258
  362loPI   PO4 5780  15.878  11.159  11.267  0.1999 -0.0669 -0.3839
  362loPI   GL1 5781  15.806  11.257  10.882  0.0127 -0.0313 -0.1061
  362loPI   GL2 5782  15.523  11.304  10.750 -0.0178  0.1557  0.0663
  362loPI   C1A 5783  16.103  11.179  10.553 -0.0052  0.0145 -0.0703
  362loPI   C2A 5784  16.103  11.153  10.127  0.1823  0.1884  0.0440
  362loPI   C3A 5785  16.143  11.140   9.718  0.0765  0.2711  0.2601
  362loPI   C4A 5786  16.178  11.076   9.262 -0.1415 -0.0250  0.1587
  362loPI   C5A 5787  16.070  10.901   8.876 -0.0771 -0.3127  0.1591
  362loPI   C6A 5788  15.776  10.803   8.573 -0.2118  0.1017  0.0218
  362loPI   C1B 5789  15.611  11.250  10.298  0.1801  0.2040 -0.0977
  362loPI   C2B 5790  15.681  11.203   9.916 -0.2742  0.1776  0.0940
  362loPI   C3B 5791  15.650  11.130   9.510  0.0192  0.0427  0.0150
  362loPI   C4B 5792  15.606  11.075   9.087  0.2001  0.0177 -0.3017
  363loPI    C1 5793  11.801   9.300  11.363  0.2836 -0.0084 -0.0851
  363loPI    C2 5794  11.951   9.194  11.718  0.0644 -0.1367 -0.0288
  363loPI    C3 5795  11.602   9.388  11.698  0.0879 -0.1083 -0.1731
  363loPI   PO4 5796  12.033   9.308  11.225  0.0258 -0.1090 -0.1244
  363loPI   GL1 5797  11.941   9.113  10.843  0.0202  0.0482 -0.1492
  363loPI   GL2 5798  12.126   9.340  10.708  0.0035 -0.0382 -0.1952
  363loPI   C1A 5799  11.740   8.963  10.560  0.1381  0.0707 -0.3621
  363loPI   C2A 5800  11.696   8.921  10.172  0.0096  0.0032  0.1877
  363loPI   C3A 5801  11.711   8.953   9.720 -0.2107 -0.1427  0.5265
  363loPI   C4A 5802  11.817   8.875   9.201  0.2296 -0.1206 -0.1952
  363loPI   C5A 5803  11.686   8.920   8.865 -0.0532  0.0522  0.2468
  363loPI   C6A 5804  11.518   8.968   8.386 -0.4173 -0.2032  0.1094
  363loPI   C1B 5805  12.045   9.325  10.257 -0.0359 -0.0232  0.0648
  363loPI   C2B 5806  12.081   9.230   9.910  0.3162  0.0681  0.2562
  363loPI   C3B 5807  12.031   9.296   9.489  0.0389 -0.3221  0.0253
  363loPI   C4B 5808  12.071   9.291   9.000 -0.0115  0.1302 -0.1754
  364loPI    C1 5809  12.196  12.965  11.714 -0.1912 -0.0966  0.1745
  364loPI    C2 5810  12.393  12.872  12.049 -0.1143 -0.0420  0.1444
  364loPI    C3 5811  12.581  13.065  11.752 -0.1664 -0.1415  0.0460
  364loPI   PO4 5812  12.143  12.790  11.555 -0.2289 -0.2815  0.0329
  364loPI   GL1 5813  11.815  12.821  11.083 -0.0959  0.1106 -0.1330
  364loPI   GL2 5814  11.993  12.963  11.007 -0.2950 -0.1264  0.4341
  364loPI   C1A 5815  12.191  12.645  10.714 -0.3375 -0.0467 -0.0675
  364loPI   C2A 5816  12.263  12.655  10.280  0.0057  0.1281  0.2007
  364loPI   C3A 5817  12.258  12.541   9.875 -0.0560 -0.4243  0.2269
  364loPI   C4A 5818  12.241  12.388   9.421  0.2085  0.1006 -0.0302
  364loPI   C5A 5819  12.362  12.450   8.906  0.0735  0.1236 -0.2412
  364loPI   C6A 5820  12.475  12.472   8.447 -0.0631  0.1019  0.0999
  364loPI   C1B 5821  11.976  13.115  10.468  0.1898 -0.1058  0.1255
  364loPI   C2B 5822  12.006  13.058  10.005  0.0688  0.1094  0.3687
  364loPI   C3B 5823  12.037  12.918   9.548  0.0393 -0.2500 -0.0854
  364loPI   C4B 5824  12.021  12.918   9.112 -0.1845  0.2107  0.2262
  365loPI    C1 5825  12.792   7.997  11.349  0.2904 -0.1464  0.0703
  365loPI    C2 5826  12.769   8.145  11.720  0.2624  0.2777 -0.0947
  365loPI    C3 5827  12.933   7.785  11.658 -0.0342  0.0525  0.3632
  365loPI   PO4 5828  12.607   8.034  11.247 -0.1274 -0.1163 -0.0476
  365loPI   GL1 5829  12.541   8.350  10.929  0.0236  0.2091 -0.0351
  365loPI   GL2 5830  12.340   8.324  10.723 -0.1014 -0.1334 -0.3073
  365loPI   C1A 5831  12.751   8.792  10.774  0.0933  0.2526  0.0368
  365loPI   C2A 5832  12.721   8.879  10.352 -0.1342  0.3023  0.1145
  365loPI   C3A 5833  12.650   8.865   9.913  0.3504  0.0784 -0.2418
  365loPI   C4A 5834  12.709   8.903   9.511  0.0776 -0.1732 -0.0741
  365loPI   C5A 5835  12.799   8.800   9.147 -0.1968  0.0498  0.0373
  365loPI   C6A 5836  13.089   8.543   8.922  0.0074  0.1301  0.0605
  365loPI   C1B 5837  12.458   8.277  10.319  0.1869 -0.0760  0.1959
  365loPI   C2B 5838  12.389   8.406   9.927 -0.0216 -0.3685 -0.2360
  365loPI   C3B 5839  12.425   8.453   9.466  0.3950  0.0906  0.2481
  365loPI   C4B 5840  12.425   8.356   9.017 -0.1790  0.1386  0.0305
  366loPI    C1 5841   9.903   4.883  11.556  0.0004  0.0115 -0.0694
  366loPI    C2 5842  10.029   4.716  11.897  0.2627 -0.0847 -0.2104
  366loPI    C3 5843   9.730   4.982  11.903  0.3569  0.0186  0.1108
  366loPI   PO4 5844  10.107   5.053  11.324 -0.2148  0.4839  0.1352
  366loPI   GL1 5845  10.177   5.030  10.874 -0.0833 -0.0201  0.2114
  366loPI   GL2 5846  10.461   5.229  10.688  0.0159  0.0178  0.0658
  366loPI   C1A 5847  10.000   5.156  10.567  0.0405  0.1597  0.1212
  366loPI   C2A 5848   9.992   5.143  10.214  0.0888 -0.2685 -0.0955
  366loPI   C3A 5849   9.970   5.149   9.826 -0.3983 -0.1309  0.0010
  366loPI   C4A 5850   9.936   5.158   9.385  0.0252 -0.0905  0.1885
  366loPI   C5A 5851   9.894   5.132   8.949  0.0651 -0.4763  0.0123
  366loPI   C6A 5852  10.047   4.791   8.675 -0.0121 -0.1384 -0.1337
  366loPI   C1B 5853  10.543   5.054  10.319  0.0718  0.0688 -0.0833
  366loPI   C2B 5854  10.495   5.057   9.814  0.1511 -0.0528  0.2407
  366loPI   C3B 5855  10.464   5.129   9.464  0.0241 -0.3410 -0.0766
  366loPI   C4B 5856  10.399   4.953   9.079  0.2066  0.1987 -0.2942
  367loPI    C1 5857   2.173   7.836  11.800  0.0398  0.0051 -0.1630
  367loPI    C2 5858   1.909   8.096  11.951 -0.2512 -0.3065 -0.1224
  367loPI    C3 5859   2.108   7.848  12.195  0.0398 -0.1130 -0.1589
  367loPI   PO4 5860   2.269   7.942  11.622 -0.0828  0.1290 -0.1135
  367loPI   GL1 5861   2.432   7.988  11.192 -0.2433  0.2452 -0.3645
  367loPI   GL2 5862   2.167   7.930  11.134  0.0890 -0.2208  0.1630
  367loPI   C1A 5863   2.384   8.408  10.879 -0.1505 -0.0742 -0.0796
  367loPI   C2A 5864   2.411   8.352  10.418  0.1018  0.0362 -0.2036
  367loPI   C3A 5865   2.410   8.355  10.022 -0.0899  0.1283 -0.0649
  367loPI   C4A 5866   2.412   8.361   9.555  0.1006  0.1446 -0.0532
  367loPI   C5A 5867   2.479   8.275   9.126  0.0453  0.0840 -0.1339
  367loPI   C6A 5868   2.375   8.227   8.631 -0.1928 -0.0516  0.0955
  367loPI   C1B 5869   2.237   7.930  10.654 -0.1276 -0.0985 -0.0595
  367loPI   C2B 5870   2.159   7.914  10.257  0.0998 -0.3406  0.1889
  367loPI   C3B 5871   2.083   7.996   9.775 -0.0244  0.3209  0.0358
  367loPI   C4B 5872   2.132   7.944   9.367  0.0140 -0.0256 -0.0355
  368loPI    C1 5873  15.084   6.291  11.704 -0.1796  0.0983  0.1204
  368loPI    C2 5874  15.402   6.244  11.942 -0.0675  0.1249 -0.0232
  368loPI    C3 5875  15.137   5.947  11.902  0.0070  0.0550 -0.0019
  368loPI   PO4 5876  15.146   6.328  11.491 -0.1890 -0.0824 -0.2396
  368loPI   GL1 5877  15.209   6.445  11.108 -0.0473 -0.1520  0.0138
  368loPI   GL2 5878  15.347   6.783  11.163 -0.0098  0.0572 -0.0848
  368loPI   C1A 5879  15.135   6.323  10.648 -0.1001 -0.1313  0.2947
  368loPI   C2A 5880  15.181   6.192  10.211 -0.2357  0.0135 -0.0668
  368loPI   C3A 5881  15.215   6.146   9.803  0.0766 -0.1215  0.1502
  368loPI   C4A 5882  15.293   6.112   9.408  0.0963 -0.0715 -0.0645
  368loPI   C5A 5883  15.390   6.100   8.964  0.0967  0.2047 -0.0301
  368loPI   C6A 5884  15.538   5.991   8.645 -0.0667 -0.0434  0.0291
  368loPI   C1B 5885  15.486   6.686  10.786 -0.2385  0.0097  0.0262
  368loPI   C2B 5886  15.621   6.687  10.383 -0.0241 -0.0757  0.0340
  368loPI   C3B 5887  15.562   6.606  10.005  0.0228  0.4142  0.1175
  368loPI   C4B 5888  15.568   6.632   9.584  0.1946 -0.0883  0.0342
  369loPI    C1 5889   1.233   9.267  11.713  0.2741  0.2361  0.1156
  369loPI    C2 5890   1.155   9.407  12.079 -0.1524 -0.0034  0.1215
  369loPI    C3 5891   1.255   9.023  12.028  0.0709  0.0689  0.0022
  369loPI   PO4 5892   1.047   9.399  11.580 -0.3666  0.0081  0.0773
  369loPI   GL1 5893   0.956   9.514  11.158 -0.2363  0.3002 -0.3110
  369loPI   GL2 5894   1.169   9.725  10.952 -0.1144  0.0271 -0.1340
  369loPI   C1A 5895   0.891   9.382  10.706 -0.2624  0.0353 -0.2574
  369loPI   C2A 5896   0.898   9.479  10.301 -0.0512 -0.1039 -0.2172
  369loPI   C3A 5897   0.967   9.442   9.855  0.1971 -0.1941 -0.0230
  369loPI   C4A 5898   1.000   9.406   9.458 -0.1107 -0.2755  0.2367
  369loPI   C5A 5899   1.068   9.480   9.033  0.0700  0.4160  0.0449
  369loPI   C6A 5900   1.218   9.733   8.670  0.1531  0.0681 -0.0581
  369loPI   C1B 5901   1.252   9.856  10.505 -0.0171  0.2320  0.0518
  369loPI   C2B 5902   1.271   9.758  10.130  0.0670  0.1304 -0.1083
  369loPI   C3B 5903   1.339   9.841   9.637  0.0481  0.1016  0.0551
  369loPI   C4B 5904   1.365   9.876   9.174  0.1639  0.1649  0.0846
  370loPI    C1 5905   5.259   5.439  11.436  0.0196  0.2365  0.1131
  370loPI    C2 5906   5.522   5.509  11.729 -0.0501  0.1827  0.1891
  370loPI    C3 5907   5.268   5.201  11.757 -0.1127  0.2266  0.1103
  370loPI   PO4 5908   5.311   5.423  11.198 -0.0423 -0.1241 -0.0246
  370loPI   GL1 5909   5.160   5.618  10.961  0.0059  0.3721 -0.2320
  370loPI   GL2 5910   4.834   5.676  10.763 -0.2488  0.0654 -0.0625
  370loPI   C1A 5911   5.357   5.605  10.627  0.2804  0.1586 -0.2543
  370loPI   C2A 5912   5.398   5.616  10.152  0.0334  0.2678 -0.0071
  370loPI   C3A 5913   5.439   5.698   9.758 -0.2879  0.1094 -0.2077
  370loPI   C4A 5914   5.398   5.750   9.302 -0.0941  0.1754  0.1235
  370loPI   C5A 5915   5.354   5.697   8.910 -0.2496 -0.1617  0.0347
  370loPI   C6A 5916   5.246   5.646   8.466 -0.0271 -0.1956  0.2021
  370loPI   C1B 5917   4.928   5.723  10.354  0.2369  0.0575  0.1836
  370loPI   C2B 5918   4.898   5.680   9.883  0.0341  0.1569 -0.1413
  370loPI   C3B 5919   4.797   5.777   9.428 -0.0571  0.0135 -0.3159
  370loPI   C4B 5920   4.808   5.771   8.922  0.1773  0.2100  0.0634
  371loPI    C1 5921   7.383  14.421  11.699  0.1051 -0.0461 -0.0234
  371loPI    C2 5922   7.722  14.493  11.898  0.1354 -0.0291 -0.0807
  371loPI    C3 5923   7.374  14.478  12.095  0.1152  0.3670 -0.0787
  371loPI   PO4 5924   7.518  14.510  11.426  0.1366 -0.0018 -0.1990
  371loPI   GL1 5925   7.428  14.300  10.983 -0.1553  0.1241 -0.1830
  371loPI   GL2 5926   7.607  14.534  10.938 -0.0121  0.0072  0.0854
  371loPI   C1A 5927   7.309  14.065  10.696 -0.1034  0.1468 -0.1624
  371loPI   C2A 5928   7.225  14.058  10.341 -0.1132  0.0224  0.1539
  371loPI   C3A 5929   7.190  14.035   9.964  0.0635  0.3031  0.1912
  371loPI   C4A 5930   7.357  14.054   9.581 -0.2561 -0.0773  0.0091
  371loPI   C5A 5931   7.301  14.100   9.120 -0.0251 -0.2555  0.0307
  371loPI   C6A 5932   7.299  14.057   8.690 -0.1330 -0.2649 -0.0059
  371loPI   C1B 5933   7.626  14.470  10.466 -0.2355 -0.1166 -0.1628
  371loPI   C2B 5934   7.524  14.377  10.055  0.1871 -0.1608  0.0698
  371loPI   C3B 5935   7.518  14.558   9.657 -0.0721  0.2343 -0.0638
  371loPI   C4B 5936   7.531  14.558   9.249  0.0869 -0.1189 -0.0564
  372loPI    C1 5937  16.372   3.197  11.384  0.0468 -0.2570  0.0438
  372loPI    C2 5938  16.250   3.539  11.553 -0.2045 -0.3093 -0.0271
  372loPI    C3 5939  16.614   3.394  11.635 -0.1138 -0.0502  0.0398
  372loPI   PO4 5940  16.354   3.228  11.142 -0.0042 -0.1780  0.0830
  372loPI   GL1 5941  16.517   3.446  10.697 -0.1315 -0.2353  0.1515
  372loPI   GL2 5942  16.791   3.478  10.739 -0.3351  0.0303 -0.0524
  372loPI   C1A 5943  16.400   3.316  10.341 -0.1283  0.0149  0.1205
  372loPI   C2A 5944  16.450   3.274   9.793 -0.2034 -0.0260 -0.1067
  372loPI   C3A 5945  16.397   3.223   9.315 -0.5093  0.0635  0.0554
  372loPI   C4A 5946  16.451   3.118   8.880 -0.2689 -0.1128  0.0101
  372loPI   C5A 5947  16.153   2.794   8.667 -0.0020 -0.1873 -0.0972
  372loPI   C6A 5948  15.982   2.484   8.390  0.2130  0.1893  0.1063
  372loPI   C1B 5949  16.873   3.338  10.373 -0.1785  0.2564 -0.0422
  372loPI   C2B 5950  16.948   3.261   9.962  0.3904  0.1001  0.1713
  372loPI   C3B 5951  16.897   3.251   9.495  0.3671 -0.1164 -0.2469
  372loPI   C4B 5952  16.902   3.221   9.027  0.0690  0.2668  0.0542
  373loPI    C1 5953   4.838   5.441  11.759 -0.0961 -0.2162  0.1471
  373loPI    C2 5954   4.877   5.200  12.075  0.0038 -0.0209  0.2857
  373loPI    C3 5955   5.074   5.548  12.064 -0.0905  0.0266  0.0599
  373loPI   PO4 5956   4.816   5.181  11.542 -0.1562 -0.2755 -0.2870
  373loPI   GL1 5957   4.723   5.016  11.094  0.1121  0.2180  0.0222
  373loPI   GL2 5958   4.955   5.171  10.906 -0.0533 -0.0011 -0.0761
  373loPI   C1A 5959   4.653   4.803  10.760  0.2305 -0.1252  0.0129
  373loPI   C2A 5960   4.673   4.830  10.319  0.0258  0.1651  0.1204
  373loPI   C3A 5961   4.752   4.832   9.886  0.2218 -0.0830 -0.2995
  373loPI   C4A 5962   4.677   4.867   9.432 -0.1756  0.3968 -0.1076
  373loPI   C5A 5963   4.694   4.909   8.961 -0.1640 -0.3811  0.0850
  373loPI   C6A 5964   4.626   4.872   8.548  0.4613  0.0123 -0.0259
  373loPI   C1B 5965   4.977   5.202  10.432 -0.3273 -0.0958 -0.2018
  373loPI   C2B 5966   5.088   5.189  10.046  0.0536  0.3098 -0.2226
  373loPI   C3B 5967   5.010   5.314   9.563  0.1998  0.1236  0.1521
  373loPI   C4B 5968   5.059   5.371   9.146  0.1610  0.1311 -0.0164
  374loPI    C1 5969   3.013   1.956  11.752  0.0536 -0.2064  0.1490
  374loPI    C2 5970   2.616   1.933  11.798  0.0237  0.0434  0.0295
  374loPI    C3 5971   2.809   2.270  11.893  0.1607  0.0424 -0.2355
  374loPI   PO4 5972   2.990   1.876  11.408 -0.2100 -0.1285  0.2940
  374loPI   GL1 5973   3.099   1.556  11.126 -0.1352  0.1047  0.1889
  374loPI   GL2 5974   3.100   1.350  11.006  0.3154  0.0109 -0.1361
  374loPI   C1A 5975   3.036   1.780  10.766  0.0722 -0.0861 -0.0957
  374loPI   C2A 5976   3.067   1.844  10.329 -0.0190 -0.0412 -0.0526
  374loPI   C3A 5977   3.122   1.885   9.900  0.2024  0.1505 -0.0043
  374loPI   C4A 5978   3.036   1.870   9.464  0.3988  0.0345 -0.0021
  374loPI   C5A 5979   2.916   1.892   9.039  0.3262 -0.1194  0.0199
  374loPI   C6A 5980   3.081   1.562   8.722 -0.3268  0.0434 -0.0682
  374loPI   C1B 5981   3.310   1.308  10.653 -0.1970  0.1101 -0.2052
  374loPI   C2B 5982   3.264   1.376  10.185  0.1592 -0.1269  0.2676
  374loPI   C3B 5983   3.307   1.456   9.769  0.1153 -0.0920 -0.0514
  374loPI   C4B 5984   3.263   1.445   9.324  0.4768  0.1009  0.1975
  375loPI    C1 5985   7.533  17.803  11.842  0.0856  0.0001  0.1648
  375loPI    C2 5986   7.186  17.837  12.039 -0.0438 -0.2390 -0.0166
  375loPI    C3 5987   7.410  17.508  12.083  0.0852 -0.1523 -0.0197
  375loPI   PO4 5988   7.552  17.825  11.663  0.2506 -0.2718  0.0802
  375loPI   GL1 5989   7.765  17.932  11.321 -0.2035  0.1812 -0.1729
  375loPI   GL2 5990   8.022  17.841  11.272 -0.0293 -0.0436  0.0964
  375loPI   C1A 5991   7.463  18.022  11.100 -0.0578  0.0099  0.0571
  375loPI   C2A 5992   7.545  18.082  10.613 -0.3319  0.2131 -0.0424
  375loPI   C3A 5993   7.505  18.093  10.203  0.3660 -0.0992 -0.0447
  375loPI   C4A 5994   7.474  18.167   9.723 -0.0256  0.0585 -0.2525
  375loPI   C5A 5995   7.519  18.173   9.305 -0.0038  0.1816 -0.3324
  375loPI   C6A 5996   7.845  18.054   8.957  0.0460 -0.0386  0.0549
  375loPI   C1B 5997   8.008  17.963  10.851 -0.1988 -0.2002 -0.0663
  375loPI   C2B 5998   8.041  17.974  10.444 -0.1181 -0.0894 -0.3421
  375loPI   C3B 5999   7.975  18.123   9.941 -0.0267 -0.1649  0.1168
  375loPI   C4B 6000   7.999  18.080   9.461  0.0219 -0.1342  0.0366
  376loPI    C1 6001  16.624   1.488  11.882 -0.2518  0.0602  0.0419
  376loPI    C2 6002  16.339   1.333  12.116 -0.1413 -0.0985  0.0737
  376loPI    C3 6003  16.699   1.417  12.269 -0.0777 -0.1762 -0.0327
  376loPI   PO4 6004  16.550   1.466  11.635  0.0213  0.3207  0.1581
  376loPI   GL1 6005  16.568   1.517  11.261 -0.1415 -0.0060  0.3080
  376loPI   GL2 6006  16.887   1.607  11.208 -0.1107  0.0062 -0.1241
  376loPI   C1A 6007  16.326   1.530  10.887 -0.1002  0.1077 -0.2271
  376loPI   C2A 6008  16.181   1.636  10.431 -0.1258  0.0020 -0.1601
  376loPI   C3A 6009  16.160   1.538  10.054  0.1725 -0.0404  0.0611
  376loPI   C4A 6010  16.133   1.461   9.680 -0.3782 -0.3903  0.0802
  376loPI   C5A 6011  16.130   1.471   9.272 -0.0777  0.0138 -0.2093
  376loPI   C6A 6012  16.419   1.703   8.894 -0.0156  0.1984  0.2862
  376loPI   C1B 6013  16.813   1.510  10.764  0.0503  0.2200 -0.1255
  376loPI   C2B 6014  16.662   1.572  10.348 -0.0508 -0.1027  0.3388
  376loPI   C3B 6015  16.630   1.494   9.908 -0.1066  0.2756  0.1358
  376loPI   C4B 6016  16.597   1.503   9.537  0.1712  0.3184 -0.2226
  377loPI    C1 6017  10.617   6.158  11.709  0.0976  0.1270  0.1637
  377loPI    C2 6018  10.297   6.337  11.871 -0.0942 -0.1758  0.1276
  377loPI    C3 6019  10.533   6.106  12.097 -0.1604 -0.3152  0.0554
  377loPI   PO4 6020  10.634   6.383  11.484 -0.1151  0.5001  0.1482
  377loPI   GL1 6021  10.523   6.355  10.996  0.0117  0.0815 -0.2432
  377loPI   GL2 6022  10.584   6.699  11.114  0.0174 -0.2301 -0.1834
  377loPI   C1A 6023  10.567   6.008  10.714  0.2019 -0.0583  0.1871
  377loPI   C2A 6024  10.606   5.980  10.249 -0.1514  0.1258  0.1855
  377loPI   C3A 6025  10.603   6.019   9.776 -0.1653 -0.0468  0.0789
  377loPI   C4A 6026  10.520   5.836   9.308  0.1973  0.2395 -0.2980
  377loPI   C5A 6027  10.651   5.945   8.908 -0.0048 -0.1083 -0.0547
  377loPI   C6A 6028  10.995   6.198   8.831 -0.2508  0.0193  0.2945
  377loPI   C1B 6029  10.716   6.892  10.763 -0.1483  0.1087  0.2235
  377loPI   C2B 6030  10.672   6.903  10.290 -0.2748  0.0079 -0.2539
  377loPI   C3B 6031  10.728   6.897   9.936  0.0390  0.0833 -0.2390
  377loPI   C4B 6032  10.643   6.909   9.488 -0.0873  0.2258  0.0329
  378loPI    C1 6033   6.477  12.036  11.607 -0.0740  0.0217  0.1147
  378loPI    C2 6034   6.161  12.000  11.849 -0.0092  0.0673  0.2068
  378loPI    C3 6035   6.410  12.310  11.891 -0.0014  0.0790  0.0769
  378loPI   PO4 6036   6.465  12.118  11.392  0.1640  0.1772 -0.1529
  378loPI   GL1 6037   6.366  11.969  11.015 -0.0189 -0.4218  0.0968
  378loPI   GL2 6038   6.087  11.783  11.010 -0.2779  0.1026  0.1299
  378loPI   C1A 6039   6.645  11.832  10.639  0.1183 -0.1350 -0.0267
  378loPI   C2A 6040   6.795  11.893  10.225 -0.2867  0.0723 -0.2044
  378loPI   C3A 6041   6.652  11.878   9.833  0.1458  0.2074 -0.4335
  378loPI   C4A 6042   6.783  11.887   9.426 -0.1417 -0.3646  0.0093
  378loPI   C5A 6043   6.631  11.727   8.993 -0.0366  0.0914  0.1522
  378loPI   C6A 6044   6.794  11.782   8.524 -0.2320 -0.0106  0.1021
  378loPI   C1B 6045   6.078  11.883  10.538  0.1631  0.2515  0.1970
  378loPI   C2B 6046   6.221  12.012  10.106  0.3978 -0.2212  0.0713
  378loPI   C3B 6047   6.176  11.889   9.630 -0.2851  0.3192  0.0097
  378loPI   C4B 6048   6.227  11.935   9.272 -0.0893 -0.0869  0.0677
  379loPI    C1 6049   3.684  15.242  11.490  0.1874 -0.0743 -0.0720
  379loPI    C2 6050   3.765  15.129  11.865 -0.0310  0.1880  0.0580
  379loPI    C3 6051   3.815  15.511  11.756 -0.0337  0.1265 -0.1625
  379loPI   PO4 6052   3.537  15.260  11.264  0.1391 -0.0228  0.2521
  379loPI   GL1 6053   3.720  15.255  10.908 -0.5399 -0.1525  0.3092
  379loPI   GL2 6054   3.851  14.934  10.759 -0.5282 -0.1079  0.0476
  379loPI   C1A 6055   3.728  15.421  10.482 -0.1040 -0.0913 -0.0572
  379loPI   C2A 6056   4.176  15.393  10.126  0.0167 -0.0478 -0.1564
  379loPI   C3A 6057   4.301  15.325   9.795 -0.0426  0.1464 -0.0576
  379loPI   C4A 6058   4.366  15.413   9.370  0.1161  0.0829  0.0027
  379loPI   C5A 6059   4.202  15.417   9.011  0.2732 -0.2643  0.0277
  379loPI   C6A 6060   4.083  15.649   8.591  0.0142 -0.0861 -0.1003
  379loPI   C1B 6061   3.601  14.823  10.426 -0.1101  0.0369  0.2397
  379loPI   C2B 6062   3.529  15.011  10.141  0.1169 -0.0861  0.4468
  379loPI   C3B 6063   3.652  15.422   9.944  0.0374  0.0047  0.1182
  379loPI   C4B 6064   3.840  15.467   9.545  0.0744  0.0958  0.1428
  380loPI    C1 6065   9.890   2.634  11.404 -0.0754 -0.0684  0.0060
  380loPI    C2 6066   9.867   2.281  11.589  0.0874 -0.0268  0.1077
  380loPI    C3 6067   9.939   2.613  11.800 -0.3940  0.1164  0.0580
  380loPI   PO4 6068   9.743   2.642  11.170  0.3616  0.0138 -0.1016
  380loPI   GL1 6069   9.758   2.410  10.853  0.1540  0.0222 -0.3111
  380loPI   GL2 6070  10.055   2.407  10.637 -0.4780  0.2957 -0.3671
  380loPI   C1A 6071   9.552   2.360  10.404  0.0549  0.0659  0.0335
  380loPI   C2A 6072   9.586   2.348   9.980  0.0098  0.1065 -0.0269
  380loPI   C3A 6073   9.573   2.411   9.487 -0.0131 -0.0803  0.0646
  380loPI   C4A 6074   9.511   2.496   9.105  0.1508  0.3432  0.1832
  380loPI   C5A 6075   9.319   2.443   8.721 -0.0552 -0.1635  0.0730
  380loPI   C6A 6076   9.443   2.503   8.255 -0.2079 -0.1295 -0.0695
  380loPI   C1B 6077  10.162   2.378  10.206  0.0010 -0.0096  0.0227
  380loPI   C2B 6078  10.063   2.394   9.807  0.1317  0.0616 -0.0109
  380loPI   C3B 6079  10.013   2.302   9.338 -0.2047 -0.0557  0.3046
  380loPI   C4B 6080   9.990   2.301   8.917  0.0972  0.0257  0.3227
  381loPI    C1 6081  15.337   7.905  11.699 -0.0979  0.2501 -0.1041
  381loPI    C2 6082  15.547   8.227  11.810 -0.1050  0.1920  0.0800
  381loPI    C3 6083  15.533   7.905  12.048 -0.0872  0.0499 -0.1088
  381loPI   PO4 6084  15.322   7.962  11.422  0.1521  0.0499  0.0581
  381loPI   GL1 6085  15.654   7.852  11.055  0.0433  0.1347  0.0201
  381loPI   GL2 6086  15.994   7.777  11.072 -0.4360  0.1715 -0.0298
  381loPI   C1A 6087  15.465   8.017  10.738 -0.0150  0.0386 -0.1692
  381loPI   C2A 6088  15.460   7.935  10.383 -0.0748 -0.0236  0.0080
  381loPI   C3A 6089  15.456   7.944  10.013  0.1100  0.1510 -0.1764
  381loPI   C4A 6090  15.379   7.975   9.570  0.0304 -0.0358  0.2216
  381loPI   C5A 6091  15.401   8.052   9.133 -0.3491 -0.2166  0.0472
  381loPI   C6A 6092  15.170   8.210   8.750 -0.2595  0.0688 -0.1672
  381loPI   C1B 6093  15.958   7.929  10.666 -0.1222  0.1305 -0.2289
  381loPI   C2B 6094  15.984   7.911  10.154  0.0772  0.0334  0.2503
  381loPI   C3B 6095  15.904   7.961   9.764 -0.1073  0.0113  0.0542
  381loPI   C4B 6096  15.928   7.953   9.435 -0.3315 -0.1245 -0.0415
  382loPI    C1 6097   2.271   1.175  11.558  0.1766 -0.2364  0.0520
  382loPI    C2 6098   1.976   1.292  11.802  0.1010 -0.0723 -0.1157
  382loPI    C3 6099   2.357   1.373  11.895  0.0547  0.2506 -0.1937
  382loPI   PO4 6100   2.206   1.281  11.323  0.0293 -0.0538 -0.1862
  382loPI   GL1 6101   2.085   1.400  11.070  0.0979 -0.0515 -0.0947
  382loPI   GL2 6102   2.234   1.694  11.081 -0.0179 -0.1880  0.1379
  382loPI   C1A 6103   2.216   1.486  10.566  0.3284 -0.1265  0.0542
  382loPI   C2A 6104   2.304   1.548  10.125 -0.0633 -0.0949 -0.0698
  382loPI   C3A 6105   2.293   1.544   9.593 -0.0097  0.2102 -0.1079
  382loPI   C4A 6106   2.188   1.532   9.162 -0.1575  0.1932 -0.1477
  382loPI   C5A 6107   2.066   1.528   8.683 -0.1273 -0.0823 -0.0467
  382loPI   C6A 6108   1.870   1.819   8.288 -0.2455 -0.2123 -0.0009
  382loPI   C1B 6109   2.031   1.927  10.695  0.0259  0.0150 -0.1083
  382loPI   C2B 6110   2.112   2.004  10.266 -0.0419 -0.0162  0.0051
  382loPI   C3B 6111   2.118   2.051   9.916 -0.1298  0.1764 -0.0204
  382loPI   C4B 6112   2.104   2.012   9.561 -0.1336 -0.0852  0.1137
  383loPI    C1 6113   4.270  12.091  11.608  0.1499  0.1314 -0.2295
  383loPI    C2 6114   4.254  12.175  11.999 -0.1091  0.1108 -0.2342
  383loPI    C3 6115   4.576  11.994  11.847  0.0563  0.2526 -0.0577
  383loPI   PO4 6116   4.057  11.943  11.487  0.0445 -0.3858 -0.1623
  383loPI   GL1 6117   3.797  12.052  11.111 -0.4550  0.0602  0.1410
  383loPI   GL2 6118   3.594  12.256  10.921 -0.0901 -0.2688 -0.0375
  383loPI   C1A 6119   3.777  11.735  10.772 -0.0478 -0.1901  0.0190
  383loPI   C2A 6120   3.961  11.759  10.365 -0.0972 -0.0698 -0.0743
  383loPI   C3A 6121   3.902  11.771   9.978 -0.0330  0.4259  0.1415
  383loPI   C4A 6122   3.872  11.795   9.519 -0.1304  0.0169  0.0267
  383loPI   C5A 6123   3.857  11.750   9.069 -0.0638 -0.0055 -0.1320
  383loPI   C6A 6124   3.967  11.954   8.661 -0.1324  0.3107 -0.0387
  383loPI   C1B 6125   3.676  12.195  10.443  0.0735  0.1017 -0.2078
  383loPI   C2B 6126   3.705  12.243  10.035 -0.1932  0.3364  0.2130
  383loPI   C3B 6127   3.667  12.256   9.620  0.0863 -0.0336  0.0293
  383loPI   C4B 6128   3.739  12.292   9.116  0.0554 -0.1344 -0.0273
  384loPI    C1 6129   3.857  10.188  11.541  0.1638 -0.0283  0.1071
  384loPI    C2 6130   3.492  10.112  11.688 -0.0245 -0.0802 -0.3695
  384loPI    C3 6131   3.586  10.481  11.566  0.1496 -0.0246 -0.0771
  384loPI   PO4 6132   3.905  10.027  11.267  0.0385 -0.0253 -0.0407
  384loPI   GL1 6133   3.860   9.918  11.014  0.1838 -0.3430  0.0071
  384loPI   GL2 6134   4.087  10.025  10.805 -0.0379  0.0496 -0.0883
  384loPI   C1A 6135   3.614  10.018  10.612  0.3194  0.1968 -0.2716
  384loPI   C2A 6136   3.573   9.940  10.248  0.1395  0.0622 -0.2727
  384loPI   C3A 6137   3.690  10.001   9.837  0.0055  0.1171  0.1104
  384loPI   C4A 6138   3.677  10.061   9.466  0.0091  0.2554  0.1880
  384loPI   C5A 6139   3.744  10.122   9.076  0.1110 -0.1236  0.1876
  384loPI   C6A 6140   3.789   9.941   8.735  0.0821 -0.0395 -0.0913
  384loPI   C1B 6141   4.085   9.928  10.412  0.1243  0.2369 -0.3584
  384loPI   C2B 6142   4.138  10.017  10.013 -0.1787 -0.0683  0.2689
  384loPI   C3B 6143   4.164   9.931   9.536  0.0795 -0.0295  0.2571
  384loPI   C4B 6144   4.238   9.847   9.069  0.3364  0.0295  0.0859
  385loPI    C1 6145   2.461  17.071  12.027  0.0128  0.0371  0.2454
  385loPI    C2 6146   2.824  16.911  12.079  0.0516 -0.0550 -0.2601
  385loPI    C3 6147   2.499  16.705  12.185  0.1409  0.0314  0.2032
  385loPI   PO4 6148   2.461  17.140  11.759 -0.2225 -0.0183  0.0296
  385loPI   GL1 6149   2.519  17.236  11.280 -0.2147  0.3805  0.2533
  385loPI   GL2 6150   2.661  17.618  11.031  0.3274 -0.0606 -0.0833
  385loPI   C1A 6151   2.537  17.230  10.801 -0.2505 -0.1222  0.0661
  385loPI   C2A 6152   2.533  17.335  10.401 -0.1570  0.1196 -0.1375
  385loPI   C3A 6153   2.554  17.501   9.919  0.1784  0.1732 -0.0431
  385loPI   C4A 6154   2.473  17.528   9.519 -0.1201 -0.0714  0.2271
  385loPI   C5A 6155   2.538  17.475   9.107  0.0840 -0.1771  0.1280
  385loPI   C6A 6156   2.634  17.262   8.789  0.2939  0.3289 -0.0655
  385loPI   C1B 6157   2.867  17.714  10.675  0.0359  0.3227  0.0760
  385loPI   C2B 6158   2.838  17.712  10.275  0.0674 -0.5032 -0.1434
  385loPI   C3B 6159   2.877  17.861   9.901 -0.0867  0.0794  0.1377
  385loPI   C4B 6160   2.871  17.866   9.378 -0.0401  0.0708 -0.2117
  386loPI    C1 6161   4.705   6.503  11.723  0.0881  0.0090  0.0648
  386loPI    C2 6162   5.063   6.369  11.842 -0.0689 -0.2894  0.2116
  386loPI    C3 6163   4.805   6.514  12.111 -0.0176  0.0321  0.0916
  386loPI   PO4 6164   4.766   6.497  11.470  0.2033  0.0629  0.0580
  386loPI   GL1 6165   4.874   6.601  11.110 -0.2958  0.0812  0.3237
  386loPI   GL2 6166   4.576   6.646  10.882 -0.1425  0.0713 -0.1644
  386loPI   C1A 6167   4.975   6.603  10.591 -0.2793 -0.1242  0.0977
  386loPI   C2A 6168   5.048   6.636  10.204 -0.0835  0.1175  0.1197
  386loPI   C3A 6169   4.963   6.602   9.818  0.0424 -0.2976 -0.1064
  386loPI   C4A 6170   4.954   6.618   9.349 -0.1836 -0.2179 -0.0923
  386loPI   C5A 6171   4.874   6.735   8.911  0.0149 -0.1173 -0.0160
  386loPI   C6A 6172   4.743   6.835   8.499  0.0976  0.0693 -0.0184
  386loPI   C1B 6173   4.480   6.676  10.477  0.1251  0.0104 -0.0603
  386loPI   C2B 6174   4.578   6.658  10.068  0.1740 -0.1905 -0.0267
  386loPI   C3B 6175   4.477   6.650   9.594  0.2285  0.1218  0.2274
  386loPI   C4B 6176   4.477   6.645   9.186  0.0842  0.1455 -0.3231
  387loPI    C1 6177   9.076   6.115  11.449 -0.0908  0.2152  0.2299
  387loPI    C2 6178   9.411   6.136  11.666  0.0167  0.0020  0.0881
  387loPI    C3 6179   9.185   5.806  11.679 -0.0110  0.0140 -0.0718
  387loPI   PO4 6180   9.168   6.165  11.231 -0.3485 -0.3227  0.2233
  387loPI   GL1 6181   8.955   6.086  10.854  0.0974  0.2146 -0.3943
  387loPI   GL2 6182   9.370   6.110  10.769 -0.0504 -0.2965  0.0681
  387loPI   C1A 6183   9.047   6.103  10.424 -0.0329 -0.1543 -0.1341
  387loPI   C2A 6184   9.002   6.047  10.021 -0.3552  0.2469  0.1797
  387loPI   C3A 6185   9.096   6.128   9.583 -0.0040  0.3954  0.1145
  387loPI   C4A 6186   9.094   6.165   9.091 -0.2146 -0.0721 -0.0527
  387loPI   C5A 6187   9.083   6.237   8.674  0.2335 -0.1076 -0.1658
  387loPI   C6A 6188   8.796   6.084   8.283  0.0386 -0.0854 -0.2316
  387loPI   C1B 6189   9.502   6.052  10.332  0.1345 -0.0830 -0.0507
  387loPI   C2B 6190   9.542   6.115   9.893 -0.2026 -0.0877  0.2919
  387loPI   C3B 6191   9.551   6.157   9.373 -0.0154  0.3210  0.0705
  387loPI   C4B 6192   9.544   6.137   8.848 -0.1130  0.0691  0.2582
  388loPI    C1 6193  12.879   1.795  11.692  0.1646  0.0033 -0.1232
  388loPI    C2 6194  12.830   1.527  11.984 -0.0608 -0.0434 -0.2023
  388loPI    C3 6195  13.190   1.578  11.818  0.0225 -0.1662 -0.0616
  388loPI   PO4 6196  12.707   1.799  11.443  0.0977 -0.0472 -0.1939
  388loPI   GL1 6197  12.565   1.809  11.051  0.2177 -0.0509 -0.0639
  388loPI   GL2 6198  12.755   1.595  10.884  0.0401 -0.1431  0.1980
  388loPI   C1A 6199  12.643   2.069  10.649  0.2592  0.5158 -0.0302
  388loPI   C2A 6200  12.648   2.080  10.216  0.0738 -0.0608 -0.0310
  388loPI   C3A 6201  12.580   2.119   9.752 -0.0415 -0.0398 -0.3590
  388loPI   C4A 6202  12.619   2.003   9.297  0.1587  0.1038 -0.2382
  388loPI   C5A 6203  13.026   1.964   9.133  0.1728  0.4363  0.2245
  388loPI   C6A 6204  13.320   1.755   8.775  0.1498  0.3286  0.0184
  388loPI   C1B 6205  12.856   1.602  10.430 -0.1359 -0.1630 -0.0368
  388loPI   C2B 6206  12.726   1.650  10.016 -0.2425  0.0360 -0.0440
  388loPI   C3B 6207  12.783   1.566   9.634  0.4041 -0.3636 -0.0638
  388loPI   C4B 6208  12.766   1.446   9.248 -0.0245 -0.0126 -0.1109
  389loPI    C1 6209  16.134   7.187  11.761  0.1484  0.1887 -0.1573
  389loPI    C2 6210  16.456   7.111  11.985 -0.0160 -0.1270 -0.0220
  389loPI    C3 6211  16.120   6.902  12.041 -0.1954  0.0887 -0.2716
  389loPI   PO4 6212  16.215   7.173  11.477 -0.1773 -0.0147 -0.3433
  389loPI   GL1 6213  16.342   7.390  11.052 -0.0585 -0.1157 -0.0715
  389loPI   GL2 6214  16.657   7.403  10.839 -0.1540 -0.0553 -0.4453
  389loPI   C1A 6215  16.188   7.430  10.637 -0.0467 -0.0955 -0.3887
  389loPI   C2A 6216  16.221   7.490  10.148  0.1813  0.3310  0.0231
  389loPI   C3A 6217  16.173   7.507   9.674  0.0597  0.0623  0.1562
  389loPI   C4A 6218  16.135   7.582   9.176 -0.1628 -0.0240  0.2785
  389loPI   C5A 6219  15.904   7.351   8.873  0.0552 -0.0524 -0.1121
  389loPI   C6A 6220  15.584   7.293   8.665  0.1941  0.2775 -0.1491
  389loPI   C1B 6221  16.626   7.386  10.412  0.4015  0.0788  0.0849
  389loPI   C2B 6222  16.743   7.455  10.014  0.0227 -0.0566 -0.1688
  389loPI   C3B 6223  16.672   7.474   9.584 -0.2973 -0.0249 -0.0041
  389loPI   C4B 6224  16.615   7.501   9.092 -0.0031  0.2149  0.2201
  390loPI    C1 6225   3.424  15.673  11.480  0.1302 -0.0255  0.1529
  390loPI    C2 6226   3.056  15.683  11.637 -0.0826 -0.3870 -0.2995
  390loPI    C3 6227   3.313  15.396  11.747 -0.0441 -0.3205 -0.2156
  390loPI   PO4 6228   3.374  15.812  11.272  0.1372  0.0082  0.4453
  390loPI   GL1 6229   3.283  15.625  10.969 -0.0590 -0.1591  0.1239
  390loPI   GL2 6230   3.586  15.793  10.776  0.0807 -0.0818 -0.2149
  390loPI   C1A 6231   3.216  15.533  10.574 -0.4273  0.1128  0.1606
  390loPI   C2A 6232   3.265  15.560  10.142 -0.0426  0.0648  0.0530
  390loPI   C3A 6233   3.226  15.495   9.696 -0.3623 -0.0636 -0.2189
  390loPI   C4A 6234   3.359  15.585   9.338  0.1358 -0.0578 -0.2439
  390loPI   C5A 6235   3.246  15.564   8.825 -0.0725 -0.2983 -0.3383
  390loPI   C6A 6236   3.598  15.494   8.429  0.0172 -0.1231  0.1648
  390loPI   C1B 6237   3.637  15.906  10.286  0.3176 -0.0018  0.0123
  390loPI   C2B 6238   3.601  15.897   9.787 -0.3188 -0.0153  0.4339
  390loPI   C3B 6239   3.639  15.934   9.357 -0.2710  0.1029  0.0339
  390loPI   C4B 6240   3.757  15.680   8.970 -0.2100  0.0035  0.2534
  391loPI    C1 6241  16.485   4.576  11.481  0.3021  0.0329 -0.0640
  391loPI    C2 6242  16.665   4.758  11.788  0.2494 -0.1393  0.0707
  391loPI    C3 6243  16.533   4.383  11.828 -0.0604 -0.0470 -0.0546
  391loPI   PO4 6244  16.576   4.656  11.304  0.1026 -0.0291 -0.2418
  391loPI   GL1 6245  16.584   4.875  11.043  0.0189 -0.4370  0.0828
  391loPI   GL2 6246  16.342   4.902  10.903 -0.0841  0.0574  0.1770
  391loPI   C1A 6247  16.730   4.683  10.636  0.0114 -0.6014 -0.0150
  391loPI   C2A 6248  16.742   4.765  10.157 -0.1724  0.0581  0.0139
  391loPI   C3A 6249  16.776   4.686   9.729 -0.1497  0.2405  0.0498
  391loPI   C4A 6250  16.875   4.715   9.212 -0.1232 -0.2208 -0.1491
  391loPI   C5A 6251  16.757   4.514   8.761  0.0096 -0.4438 -0.0866
  391loPI   C6A 6252  16.561   4.092   8.670  0.2748 -0.2431 -0.0933
  391loPI   C1B 6253  16.304   4.806  10.436  0.1117 -0.1521  0.1594
  391loPI   C2B 6254  16.298   4.794   9.917 -0.0815 -0.4189 -0.3655
  391loPI   C3B 6255  16.229   4.681   9.473  0.0040  0.3329 -0.0329
  391loPI   C4B 6256  16.368   4.503   9.130 -0.1730  0.2285 -0.0918
  392loPI    C1 6257   9.842   8.834  11.623  0.2157  0.0385  0.0085
  392loPI    C2 6258   9.524   8.700  11.825  0.2018 -0.0668 -0.0823
  392loPI    C3 6259   9.692   9.050  11.925 -0.2019  0.1985 -0.3042
  392loPI   PO4 6260   9.786   8.752  11.344  0.0053 -0.0508 -0.2027
  392loPI   GL1 6261   9.703   8.843  10.939 -0.0181 -0.1260  0.1024
  392loPI   GL2 6262   9.449   8.772  10.869 -0.0189  0.1607 -0.0613
  392loPI   C1A 6263   9.960   8.702  10.609  0.1910 -0.3264  0.1760
  392loPI   C2A 6264   9.911   8.719  10.218  0.0570  0.1003 -0.0065
  392loPI   C3A 6265   9.869   8.723   9.770 -0.1800 -0.2186 -0.1186
  392loPI   C4A 6266   9.847   8.802   9.339 -0.4237 -0.0320 -0.0618
  392loPI   C5A 6267   9.793   8.749   8.882 -0.2007  0.2338 -0.0447
  392loPI   C6A 6268   9.982   8.465   8.625 -0.0360 -0.0440  0.1652
  392loPI   C1B 6269   9.402   8.820  10.493  0.1362 -0.0696 -0.0267
  392loPI   C2B 6270   9.396   8.801  10.075  0.0137  0.2972 -0.2056
  392loPI   C3B 6271   9.374   8.789   9.661  0.2353  0.0490 -0.2498
  392loPI   C4B 6272   9.362   8.859   9.266  0.2507 -0.5390  0.0821
  393loPI    C1 6273  12.231   4.826  11.428  0.1522 -0.2332  0.2535
  393loPI    C2 6274  12.058   5.186  11.403  0.1178 -0.2633  0.0345
  393loPI    C3 6275  12.369   5.129  11.649  0.1509 -0.0732  0.0378
  393loPI   PO4 6276  12.085   4.636  11.340 -0.3353 -0.1879  0.0211
  393loPI   GL1 6277  12.001   4.566  10.991  0.0749 -0.0985  0.0434
  393loPI   GL2 6278  11.854   4.843  10.836  0.1866  0.0522  0.1813
  393loPI   C1A 6279  12.187   4.323  10.611  0.0272  0.0797 -0.0429
  393loPI   C2A 6280  12.133   4.344  10.141  0.0990 -0.0470 -0.2532
  393loPI   C3A 6281  12.139   4.355   9.773  0.2130 -0.1797  0.0254
  393loPI   C4A 6282  12.085   4.385   9.307  0.3016 -0.2208 -0.0507
  393loPI   C5A 6283  12.091   4.524   8.983  0.0267  0.0913  0.1065
  393loPI   C6A 6284  12.102   4.785   8.515 -0.1360 -0.1288 -0.1916
  393loPI   C1B 6285  11.951   4.842  10.386 -0.2375  0.4484  0.0206
  393loPI   C2B 6286  11.983   4.800   9.945  0.0080  0.1014  0.2743
  393loPI   C3B 6287  11.986   4.856   9.472 -0.0141  0.1865  0.2679
  393loPI   C4B 6288  11.845   4.957   8.973 -0.0461 -0.1965  0.0545
  394loPI    C1 6289   5.284   7.213  11.967 -0.0824 -0.1166 -0.0372
  394loPI    C2 6290   5.190   7.561  12.139  0.0877 -0.0365 -0.1030
  394loPI    C3 6291   5.182   7.223  12.353  0.3639  0.0710  0.0828
  394loPI   PO4 6292   5.186   7.304  11.650  0.1134  0.0654  0.0428
  394loPI   GL1 6293   5.064   7.440  11.206  0.1157 -0.1265 -0.0035
  394loPI   GL2 6294   4.753   7.566  11.236 -0.1227 -0.2056  0.3147
  394loPI   C1A 6295   5.115   7.613  10.669  0.0663  0.1391 -0.2168
  394loPI   C2A 6296   5.163   7.551  10.218 -0.0579 -0.0613 -0.0855
  394loPI   C3A 6297   5.148   7.455   9.784 -0.1002 -0.0925  0.0077
  394loPI   C4A 6298   5.048   7.431   9.331 -0.3059 -0.1835  0.4639
  394loPI   C5A 6299   4.983   7.278   8.922  0.0945 -0.2310 -0.3093
  394loPI   C6A 6300   5.177   7.626   8.690  0.1684 -0.1644 -0.2120
  394loPI   C1B 6301   4.633   7.660  10.755 -0.0657 -0.1303  0.0831
  394loPI   C2B 6302   4.652   7.555  10.328 -0.1067  0.1975 -0.0192
  394loPI   C3B 6303   4.630   7.565   9.932 -0.1171  0.2202  0.1767
  394loPI   C4B 6304   4.620   7.527   9.587 -0.1123 -0.1746  0.1252
  395loPI    C1 6305  15.366   0.259  11.765 -0.0673 -0.2982  0.0436
  395loPI    C2 6306  15.573  -0.056  11.896 -0.2796 -0.2746  0.4536
  395loPI    C3 6307  15.294   0.110  12.129 -0.1638  0.2252  0.2477
  395loPI   PO4 6308  15.307   0.237  11.460 -0.0605 -0.2247 -0.0500
  395loPI   GL1 6309  15.372   0.366  10.984 -0.3290  0.1735  0.0721
  395loPI   GL2 6310  15.474   0.057  10.898 -0.0053 -0.1611  0.0171
  395loPI   C1A 6311  15.309   0.403  10.529  0.0359  0.4304 -0.2480
  395loPI   C2A 6312  15.286   0.311  10.145  0.1573  0.0178 -0.0141
  395loPI   C3A 6313  15.175   0.298   9.750  0.0439 -0.1300 -0.0465
  395loPI   C4A 6314  15.104   0.281   9.249 -0.1461  0.0900 -0.0040
  395loPI   C5A 6315  15.363   0.295   8.779  0.1517 -0.0465 -0.0029
  395loPI   C6A 6316  15.585   0.258   8.423 -0.0303 -0.1273  0.1456
  395loPI   C1B 6317  15.431  -0.096  10.440  0.1420  0.0267 -0.0920
  395loPI   C2B 6318  15.476  -0.176   9.953  0.1735  0.3274 -0.0573
  395loPI   C3B 6319  15.402  -0.208   9.568  0.1073  0.0513  0.2641
  395loPI   C4B 6320  15.294  -0.172   9.132 -0.0988 -0.4229 -0.0040
  396loPI    C1 6321   8.599   7.375  11.340 -0.1147 -0.1043 -0.3658
  396loPI    C2 6322   8.307   7.649  11.333  0.1221  0.1707  0.0521
  396loPI    C3 6323   8.291   7.345  11.592 -0.0849 -0.1593 -0.3359
  396loPI   PO4 6324   8.663   7.332  11.054  0.0420  0.2541 -0.1053
  396loPI   GL1 6325   8.501   7.560  10.817 -0.0284 -0.0445 -0.0413
  396loPI   GL2 6326   8.315   7.819  10.847  0.4794  0.1056  0.1455
  396loPI   C1A 6327   8.437   7.574  10.360 -0.2774  0.1776  0.1875
  396loPI   C2A 6328   8.437   7.498   9.955  0.1244 -0.3030  0.0143
  396loPI   C3A 6329   8.443   7.597   9.516 -0.1368 -0.0207 -0.0905
  396loPI   C4A 6330   8.427   7.639   9.024 -0.2518  0.0043 -0.2047
  396loPI   C5A 6331   8.312   7.497   8.671  0.2739  0.1992 -0.0039
  396loPI   C6A 6332   8.206   7.386   8.351  0.1649  0.1888 -0.0473
  396loPI   C1B 6333   8.194   8.024  10.529 -0.0654  0.0086 -0.0847
  396loPI   C2B 6334   8.261   7.952  10.103 -0.1507 -0.1395 -0.2682
  396loPI   C3B 6335   8.250   8.055   9.747 -0.0369 -0.2387  0.2292
  396loPI   C4B 6336   8.202   8.112   9.336  0.0657 -0.4007  0.0890
  397loPI    C1 6337   1.575   5.494  11.839 -0.0057 -0.0215  0.1032
  397loPI    C2 6338   1.220   5.310  11.823  0.0179 -0.0633  0.0611
  397loPI    C3 6339   1.457   5.260  12.141 -0.0869  0.0994  0.1662
  397loPI   PO4 6340   1.621   5.528  11.601  0.1107  0.0712  0.1863
  397loPI   GL1 6341   1.848   5.579  11.216  0.0753  0.0805  0.0804
  397loPI   GL2 6342   1.527   5.668  11.078  0.0352  0.1616 -0.0421
  397loPI   C1A 6343   2.017   5.702  10.810  0.1786 -0.2099 -0.0250
  397loPI   C2A 6344   1.927   5.731  10.277  0.1245 -0.2480  0.0934
  397loPI   C3A 6345   2.058   5.683   9.898  0.3140 -0.2421  0.0981
  397loPI   C4A 6346   1.987   5.645   9.447 -0.1593 -0.1404 -0.0376
  397loPI   C5A 6347   1.911   5.731   8.974  0.3016  0.0314 -0.4668
  397loPI   C6A 6348   1.619   5.972   8.758 -0.1873  0.0220 -0.0104
  397loPI   C1B 6349   1.577   5.791  10.611  0.0560  0.0609 -0.2231
  397loPI   C2B 6350   1.387   5.746  10.138 -0.3143  0.2688 -0.0735
  397loPI   C3B 6351   1.451   5.774   9.735 -0.2453 -0.0333 -0.1861
  397loPI   C4B 6352   1.454   5.812   9.325  0.2682  0.1227 -0.1375
  398loPI    C1 6353   8.756  15.372  11.638 -0.0905  0.0723 -0.0029
  398loPI    C2 6354   8.504  15.065  11.690  0.1523 -0.1203  0.0564
  398loPI    C3 6355   8.536  15.348  11.971  0.0956 -0.1627  0.1056
  398loPI   PO4 6356   8.711  15.425  11.282 -0.1020  0.1634  0.2451
  398loPI   GL1 6357   8.809  15.125  10.914 -0.3476 -0.1533  0.1005
  398loPI   GL2 6358   8.509  14.997  10.791 -0.0025 -0.1168 -0.1685
  398loPI   C1A 6359   8.753  15.293  10.456  0.1058 -0.0438  0.1115
  398loPI   C2A 6360   8.749  15.317  10.106  0.1875  0.4499  0.0145
  398loPI   C3A 6361   8.740  15.242   9.676 -0.0666 -0.0660 -0.1654
  398loPI   C4A 6362   8.644  15.338   9.252  0.1187  0.1970  0.0480
  398loPI   C5A 6363   8.596  15.030   8.901  0.2939  0.3257 -0.0597
  398loPI   C6A 6364   8.370  14.750   8.680  0.0970  0.1244  0.1801
  398loPI   C1B 6365   8.356  14.789  10.411 -0.2646  0.1030  0.0078
  398loPI   C2B 6366   8.418  14.868  10.005  0.1366 -0.2043 -0.0942
  398loPI   C3B 6367   8.355  14.896   9.555  0.0465  0.2495  0.1201
  398loPI   C4B 6368   8.256  14.770   9.160 -0.1388  0.0835 -0.0680
  399loPI    C1 6369   3.886   4.697  11.977 -0.0138 -0.1470 -0.0917
  399loPI    C2 6370   3.563   4.910  12.080 -0.0689 -0.0939 -0.3676
  399loPI    C3 6371   3.692   4.616  12.318 -0.1336  0.0896 -0.1014
  399loPI   PO4 6372   3.999   4.776  11.750 -0.0963 -0.0474  0.2782
  399loPI   GL1 6373   3.912   4.728  11.341  0.2247 -0.3534 -0.1062
  399loPI   GL2 6374   3.756   4.949  11.199  0.0909  0.0219  0.0481
  399loPI   C1A 6375   3.946   4.539  10.937 -0.1197 -0.0496  0.3965
  399loPI   C2A 6376   3.931   4.473  10.426 -0.2431 -0.4300 -0.0061
  399loPI   C3A 6377   3.916   4.485  10.052 -0.1396 -0.0137 -0.0582
  399loPI   C4A 6378   3.931   4.465   9.537  0.0780  0.5348 -0.0948
  399loPI   C5A 6379   3.972   4.454   9.130  0.0189 -0.2921 -0.2539
  399loPI   C6A 6380   3.933   4.293   8.729  0.1628 -0.1216  0.0979
  399loPI   C1B 6381   3.724   5.025  10.774  0.2462 -0.0657  0.3821
  399loPI   C2B 6382   3.737   4.933  10.327  0.1738  0.2401  0.1547
  399loPI   C3B 6383   3.778   5.004   9.929  0.2955  0.1996  0.0421
  399loPI   C4B 6384   3.809   4.907   9.442  0.0651 -0.1243 -0.1432
  400loPI    C1 6385  13.650  10.929  11.630 -0.0379 -0.0830  0.0945
  400loPI    C2 6386  13.480  11.065  11.965 -0.0758 -0.0333  0.0553
  400loPI    C3 6387  13.408  10.692  11.841 -0.0556 -0.0542  0.1066
  400loPI   PO4 6388  13.557  11.134  11.449 -0.0291 -0.0679  0.0217
  400loPI   GL1 6389  13.474  11.160  10.954 -0.0926  0.0420  0.1050
  400loPI   GL2 6390  13.792  10.966  10.951  0.0194 -0.1586  0.1725
  400loPI   C1A 6391  13.300  11.014  10.641 -0.0856  0.1767  0.0416
  400loPI   C2A 6392  13.346  11.004  10.234 -0.1265  0.1032 -0.2052
  400loPI   C3A 6393  13.257  11.044   9.770 -0.0601 -0.2434  0.0482
  400loPI   C4A 6394  13.273  11.015   9.342 -0.0060  0.1093 -0.1378
  400loPI   C5A 6395  13.388  11.026   8.850  0.2059 -0.2431  0.0768
  400loPI   C6A 6396  13.819  10.950   8.746 -0.2803  0.0882 -0.2632
  400loPI   C1B 6397  13.759  10.981  10.544 -0.0045  0.1653 -0.3075
  400loPI   C2B 6398  13.832  10.836  10.107 -0.1735  0.1057 -0.1352
  400loPI   C3B 6399  13.813  10.914   9.723  0.1255  0.3001 -0.1210
  400loPI   C4B 6400  13.749  11.004   9.276 -0.1702  0.0581  0.1326
  401loPI    C1 6401   1.416  16.272  11.738 -0.0299 -0.1861 -0.0542
  401loPI    C2 6402   1.487  16.018  12.039 -0.1077 -0.0700  0.0635
  401loPI    C3 6403   1.307  16.368  12.111 -0.3387 -0.1414 -0.1531
  401loPI   PO4 6404   1.398  16.200  11.542 -0.3175  0.0551 -0.0653
  401loPI   GL1 6405   1.369  16.316  11.156 -0.4529  0.1257  0.1297
  401loPI   GL2 6406   1.340  16.570  10.884  0.2587  0.0325 -0.1350
  401loPI   C1A 6407   1.552  16.183  10.756 -0.1552 -0.2235 -0.0879
  401loPI   C2A 6408   1.563  16.183  10.327  0.0135  0.1313  0.0542
  401loPI   C3A 6409   1.585  16.258   9.873 -0.3189  0.1940  0.2023
  401loPI   C4A 6410   1.595  16.279   9.383 -0.0463 -0.0436  0.0897
  401loPI   C5A 6411   1.601  16.357   8.933  0.0531  0.1320 -0.0609
  401loPI   C6A 6412   1.519  16.036   8.630 -0.1142  0.1321  0.4539
  401loPI   C1B 6413   1.402  16.657  10.497 -0.1295 -0.2633 -0.0442
  401loPI   C2B 6414   1.347  16.711  10.039  0.0181 -0.4581  0.0625
  401loPI   C3B 6415   1.362  16.767   9.585 -0.1217 -0.1394 -0.0826
  401loPI   C4B 6416   1.306  16.668   9.230 -0.0885 -0.0254  0.1035
  402loPI    C1 6417  15.482   9.612  11.748  0.1194 -0.0406  0.1054
  402loPI    C2 6418  15.572   9.886  12.024 -0.0000  0.2016 -0.0928
  402loPI    C3 6419  15.226   9.686  12.046  0.2377 -0.1860  0.2449
  402loPI   PO4 6420  15.514   9.706  11.555  0.0765  0.0883 -0.1154
  402loPI   GL1 6421  15.547   9.566  11.142  0.2010 -0.0093  0.1814
  402loPI   GL2 6422  15.693   9.879  11.111 -0.3470  0.0769  0.1874
  402loPI   C1A 6423  15.418   9.394  10.742 -0.3255 -0.1434 -0.0988
  402loPI   C2A 6424  15.381   9.406  10.311 -0.0968 -0.1915 -0.0878
  402loPI   C3A 6425  15.337   9.313   9.940  0.1320  0.1977  0.1944
  402loPI   C4A 6426  15.366   9.385   9.514 -0.0404  0.2208 -0.1283
  402loPI   C5A 6427  15.378   9.302   9.099  0.3073 -0.0651 -0.0369
  402loPI   C6A 6428  15.540   9.516   8.792 -0.3537  0.0572 -0.0341
  402loPI   C1B 6429  15.730   9.943  10.696 -0.2093  0.2065  0.0286
  402loPI   C2B 6430  15.737   9.826  10.208 -0.0219  0.0352  0.0296
  402loPI   C3B 6431  15.731   9.794   9.710  0.1216  0.2125  0.0468
  402loPI   C4B 6432  15.629   9.750   9.206 -0.0709 -0.1841 -0.1605
  403loPI    C1 6433   1.112  15.277  11.664  0.2027  0.1993 -0.2282
  403loPI    C2 6434   1.491  15.307  11.788  0.1420  0.1201 -0.0195
  403loPI    C3 6435   1.193  15.301  12.055  0.0129 -0.1121 -0.1665
  403loPI   PO4 6436   1.084  15.157  11.545 -0.0554  0.1505  0.3320
  403loPI   GL1 6437   1.302  15.160  11.243 -0.0073 -0.4532  0.2191
  403loPI   GL2 6438   1.054  14.982  11.050  0.0197 -0.0393 -0.0411
  403loPI   C1A 6439   1.465  15.321  10.896 -0.0435  0.1502  0.2387
  403loPI   C2A 6440   1.459  15.384  10.471  0.0319 -0.0869 -0.2242
  403loPI   C3A 6441   1.396  15.284  10.034  0.5230  0.0611 -0.1116
  403loPI   C4A 6442   1.485  15.232   9.626 -0.1877  0.1188  0.1702
  403loPI   C5A 6443   1.438  15.256   9.262 -0.1258  0.2323 -0.1301
  403loPI   C6A 6444   1.343  14.922   8.987 -0.1635 -0.1747  0.0348
  403loPI   C1B 6445   1.145  14.974  10.628  0.2223 -0.1053 -0.1568
  403loPI   C2B 6446   1.155  14.818  10.187  0.1199 -0.3062  0.1729
  403loPI   C3B 6447   1.169  14.882   9.781 -0.2418  0.2000 -0.0977
  403loPI   C4B 6448   1.169  14.834   9.437  0.0509  0.2907  0.0771
  404loPI    C1 6449   7.876   1.927  11.629  0.2890  0.0231  0.1059
  404loPI    C2 6450   7.867   2.206  11.916  0.0183 -0.1874  0.3083
  404loPI    C3 6451   7.543   2.141  11.690  0.2104 -0.0653 -0.0086
  404loPI   PO4 6452   8.043   1.976  11.408 -0.0888 -0.0370  0.0800
  404loPI   GL1 6453   8.194   1.880  11.003 -0.0980 -0.0954  0.1584
  404loPI   GL2 6454   7.961   1.698  10.886 -0.1393 -0.0194  0.2915
  404loPI   C1A 6455   8.353   2.019  10.603  0.0728  0.1166 -0.1678
  404loPI   C2A 6456   8.217   2.103  10.209  0.1272 -0.2970 -0.1076
  404loPI   C3A 6457   8.196   2.096   9.806  0.1207 -0.1601  0.1087
  404loPI   C4A 6458   8.180   2.065   9.329 -0.0460  0.0084 -0.1851
  404loPI   C5A 6459   8.289   2.151   8.871 -0.1099  0.4060  0.2074
  404loPI   C6A 6460   8.174   2.150   8.514  0.2260 -0.1895  0.0806
  404loPI   C1B 6461   7.981   1.643  10.492 -0.1892 -0.3298  0.0979
  404loPI   C2B 6462   7.932   1.706  10.074  0.0027 -0.0477  0.1961
  404loPI   C3B 6463   7.922   1.737   9.655 -0.0301 -0.1075  0.1525
  404loPI   C4B 6464   7.901   1.698   9.209 -0.1633  0.0494 -0.0702
  405loPI    C1 6465   1.955   8.807  11.682 -0.0763 -0.0342  0.0826
  405loPI    C2 6466   1.686   9.052  11.848 -0.0182  0.1262 -0.0561
  405loPI    C3 6467   2.073   9.090  11.939 -0.0120  0.0680 -0.0579
  405loPI   PO4 6468   1.936   8.825  11.399 -0.1348  0.0884  0.0567
  405loPI   GL1 6469   1.844   9.047  11.105 -0.1651  0.0772 -0.0861
  405loPI   GL2 6470   1.907   9.360  11.043 -0.0276 -0.0433 -0.3351
  405loPI   C1A 6471   1.675   8.860  10.746  0.0843  0.0644  0.1544
  405loPI   C2A 6472   1.701   8.952  10.275  0.3850  0.0178 -0.1517
  405loPI   C3A 6473   1.704   8.960   9.885  0.0262 -0.2139  0.2843
  405loPI   C4A 6474   1.744   8.972   9.386 -0.1145 -0.1655  0.0418
  405loPI   C5A 6475   1.783   8.918   8.940 -0.1192 -0.1778 -0.1589
  405loPI   C6A 6476   1.976   9.106   8.640  0.0622 -0.2591  0.3451
  405loPI   C1B 6477   1.963   9.292  10.610  0.1904  0.0913 -0.1090
  405loPI   C2B 6478   2.053   9.236  10.079 -0.3561 -0.1137 -0.0593
  405loPI   C3B 6479   2.079   9.296   9.636  0.1954  0.2456  0.2106
  405loPI   C4B 6480   2.080   9.347   9.174 -0.0776  0.1243 -0.0610
  406loPI    C1 6481  13.202   3.550  11.432 -0.0111 -0.1731  0.2049
  406loPI    C2 6482  13.290   3.939  11.463 -0.0266 -0.1559  0.0437
  406loPI    C3 6483  13.016   3.776  11.705 -0.1334 -0.0318  0.0074
  406loPI   PO4 6484  13.107   3.498  11.176  0.0976  0.1899  0.1068
  406loPI   GL1 6485  12.977   3.510  10.798  0.0124  0.0619 -0.0724
  406loPI   GL2 6486  12.849   3.785  10.667  0.0868 -0.0762  0.1740
  406loPI   C1A 6487  13.031   3.301  10.523 -0.1570  0.3635 -0.0397
  406loPI   C2A 6488  13.014   3.373  10.065  0.0473  0.0036 -0.1325
  406loPI   C3A 6489  13.032   3.380   9.650 -0.0759 -0.1444  0.2439
  406loPI   C4A 6490  13.018   3.294   9.206  0.3056  0.0793 -0.0595
  406loPI   C5A 6491  12.849   3.158   8.818 -0.1140  0.1435 -0.0026
  406loPI   C6A 6492  12.840   3.081   8.301 -0.2522  0.3246 -0.0847
  406loPI   C1B 6493  12.841   3.865  10.161 -0.1590  0.2051 -0.2011
  406loPI   C2B 6494  12.856   3.907   9.705 -0.0392 -0.2100 -0.3943
  406loPI   C3B 6495  12.904   3.789   9.377 -0.0333 -0.0905 -0.0934
  406loPI   C4B 6496  12.961   3.831   8.970 -0.1300 -0.0550  0.3150
  407loPI    C1 6497  13.100  11.013  11.513 -0.0715  0.0914  0.0030
  407loPI    C2 6498  12.773  11.192  11.656  0.0311  0.1577  0.1574
  407loPI    C3 6499  13.002  10.972  11.899  0.1640  0.2060  0.0767
  407loPI   PO4 6500  13.071  11.174  11.254 -0.0030 -0.1046  0.1928
  407loPI   GL1 6501  12.817  10.939  10.854  0.2314  0.0007 -0.1045
  407loPI   GL2 6502  12.964  10.714  10.965  0.0727 -0.3783 -0.0435
  407loPI   C1A 6503  12.692  11.099  10.463 -0.0529  0.0290  0.3366
  407loPI   C2A 6504  12.779  11.074   9.975  0.1711  0.1992  0.0784
  407loPI   C3A 6505  12.782  11.040   9.554  0.1422  0.1036 -0.0013
  407loPI   C4A 6506  12.755  11.070   9.130  0.0038  0.2065 -0.0414
  407loPI   C5A 6507  12.857  11.164   8.769 -0.2736 -0.1479 -0.1344
  407loPI   C6A 6508  12.669  11.274   8.323  0.0940  0.1044  0.0170
  407loPI   C1B 6509  12.980  10.646  10.490  0.0628 -0.1861 -0.0759
  407loPI   C2B 6510  12.884  10.586  10.133  0.0214 -0.2406 -0.1730
  407loPI   C3B 6511  13.000  10.672   9.718  0.0485  0.1903  0.1106
  407loPI   C4B 6512  12.995  10.628   9.287  0.0749  0.0304  0.1091
  408loPI    C1 6513  16.462  16.585  11.775  0.0683 -0.0587  0.0742
  408loPI    C2 6514  16.338  16.394  12.104  0.2120 -0.2116  0.0410
  408loPI    C3 6515  16.552  16.730  12.137  0.0747 -0.1295  0.1012
  408loPI   PO4 6516  16.477  16.469  11.587  0.0731  0.0971 -0.4423
  408loPI   GL1 6517  16.427  16.503  11.181 -0.0893  0.2323  0.0415
  408loPI   GL2 6518  16.501  16.264  11.028 -0.1184  0.3064 -0.0600
  408loPI   C1A 6519  16.351  16.653  10.712 -0.0253 -0.2146  0.3109
  408loPI   C2A 6520  16.330  16.633  10.260  0.0484 -0.1742 -0.2653
  408loPI   C3A 6521  16.285  16.570   9.762 -0.2701  0.0638 -0.1584
  408loPI   C4A 6522  16.267  16.552   9.313  0.1670  0.0972  0.0384
  408loPI   C5A 6523  16.151  16.482   8.888  0.2306  0.1522  0.0113
  408loPI   C6A 6524  15.934  16.290   8.597  0.3739  0.1248  0.3683
  408loPI   C1B 6525  16.549  16.213  10.532 -0.0596  0.0903 -0.2511
  408loPI   C2B 6526  16.442  16.140  10.143 -0.0343  0.1937 -0.0637
  408loPI   C3B 6527  16.523  16.152   9.716  0.0701 -0.3070  0.1302
  408loPI   C4B 6528  16.443  16.100   9.311  0.1433 -0.0221 -0.2085
  409loPI    C1 6529  10.380   2.858  11.550 -0.2896 -0.0652  0.0196
  409loPI    C2 6530  10.150   3.126  11.737 -0.0466  0.0147  0.2087
  409loPI    C3 6531  10.540   3.101  11.824 -0.0107 -0.2146 -0.0066
  409loPI   PO4 6532  10.334   2.835  11.307  0.3610  0.0294 -0.2005
  409loPI   GL1 6533  10.533   2.936  10.894  0.0337 -0.1319 -0.1188
  409loPI   GL2 6534  10.706   3.272  10.967  0.3098  0.0801  0.0578
  409loPI   C1A 6535  10.365   2.778  10.483 -0.0990 -0.2291  0.0238
  409loPI   C2A 6536  10.375   2.818   9.989  0.2269  0.0105  0.2235
  409loPI   C3A 6537  10.342   2.812   9.536 -0.2126 -0.2392 -0.1062
  409loPI   C4A 6538  10.320   2.698   9.051 -0.1096 -0.3656 -0.2647
  409loPI   C5A 6539  10.239   2.715   8.538  0.1075  0.1231  0.0261
  409loPI   C6A 6540  10.366   2.505   8.245 -0.1415 -0.1422  0.2503
  409loPI   C1B 6541  10.722   3.180  10.530 -0.0153  0.0387  0.1458
  409loPI   C2B 6542  10.657   3.249  10.082  0.1259  0.0385 -0.2171
  409loPI   C3B 6543  10.686   3.280   9.621  0.0572 -0.1185  0.2250
  409loPI   C4B 6544  10.618   3.087   9.170 -0.0814 -0.1885 -0.2975
  410loPI    C1 6545  14.272  15.861  11.688  0.3837 -0.1002 -0.1390
  410loPI    C2 6546  14.431  16.144  11.922  0.0901  0.0374 -0.1018
  410loPI    C3 6547  14.158  15.892  12.071 -0.0000  0.0402 -0.2602
  410loPI   PO4 6548  14.367  15.914  11.484  0.3108  0.2225  0.0489
  410loPI   GL1 6549  14.184  15.791  11.121 -0.1005 -0.0189  0.2124
  410loPI   GL2 6550  14.183  15.538  10.999 -0.1171 -0.3431  0.1746
  410loPI   C1A 6551  14.091  15.952  10.779 -0.3620 -0.0334  0.3220
  410loPI   C2A 6552  14.141  15.992  10.279  0.0849 -0.4295 -0.0544
  410loPI   C3A 6553  14.211  15.882   9.815  0.2011  0.2223  0.4796
  410loPI   C4A 6554  14.243  15.859   9.286 -0.0690  0.4729 -0.0880
  410loPI   C5A 6555  14.172  16.041   8.834  0.2110 -0.0154 -0.0822
  410loPI   C6A 6556  14.280  15.975   8.351 -0.0592  0.1841  0.1623
  410loPI   C1B 6557  14.343  15.571  10.551  0.0034  0.0413  0.1019
  410loPI   C2B 6558  14.381  15.479  10.132 -0.1216  0.2926  0.0337
  410loPI   C3B 6559  14.382  15.446   9.674  0.0345 -0.0690  0.1423
  410loPI   C4B 6560  14.383  15.369   9.348  0.1457 -0.4134  0.0106
  411loPI    C1 6561  16.786   6.257  11.748  0.0884  0.1972 -0.0503
  411loPI    C2 6562  16.613   6.100  12.072 -0.0238  0.0982 -0.1574
  411loPI    C3 6563  16.943   6.323  12.110  0.0089  0.0216  0.0168
  411loPI   PO4 6564  16.788   6.093  11.589 -0.1157  0.2037 -0.3032
  411loPI   GL1 6565  16.933   6.042  11.145 -0.0310 -0.1919  0.3397
  411loPI   GL2 6566  16.797   6.113  10.931 -0.0079 -0.1299 -0.2474
  411loPI   C1A 6567  17.167   6.008  10.694 -0.0223 -0.1459 -0.0556
  411loPI   C2A 6568  17.220   6.077  10.301  0.2886 -0.0532 -0.0526
  411loPI   C3A 6569  17.223   5.994   9.867 -0.0658  0.0558 -0.0763
  411loPI   C4A 6570  17.198   6.043   9.363 -0.2044  0.1413 -0.1087
  411loPI   C5A 6571  17.133   6.181   8.917  0.1872 -0.0285 -0.1481
  411loPI   C6A 6572  16.995   6.525   8.774 -0.0794 -0.2744 -0.1846
  411loPI   C1B 6573  16.707   6.115  10.446 -0.2809 -0.1480  0.1619
  411loPI   C2B 6574  16.739   6.075  10.047 -0.0197  0.2147  0.0247
  411loPI   C3B 6575  16.705   6.038   9.613 -0.1161 -0.2308  0.0186
  411loPI   C4B 6576  16.755   6.056   9.184 -0.0561 -0.2325  0.3328
  412loPI    C1 6577   4.237   3.829  11.733  0.3677 -0.0523 -0.1169
  412loPI    C2 6578   4.465   3.540  11.577  0.1670 -0.0884 -0.3506
  412loPI    C3 6579   4.573   3.923  11.537  0.4330 -0.1261 -0.0412
  412loPI   PO4 6580   3.981   3.759  11.655 -0.0951  0.0820  0.0695
  412loPI   GL1 6581   3.749   3.713  11.119  0.1458 -0.3516  0.1481
  412loPI   GL2 6582   3.795   3.526  10.948  0.2035  0.0378  0.1595
  412loPI   C1A 6583   3.654   4.083  10.900 -0.1000  0.0380  0.3254
  412loPI   C2A 6584   3.585   4.085  10.431  0.0405 -0.1323 -0.1692
  412loPI   C3A 6585   3.601   4.096  10.013 -0.4517 -0.1094  0.0309
  412loPI   C4A 6586   3.628   4.072   9.558  0.3882  0.0050  0.0966
  412loPI   C5A 6587   3.631   4.086   9.151 -0.3297  0.1268 -0.2523
  412loPI   C6A 6588   3.459   4.272   8.873  0.3743 -0.1153 -0.0054
  412loPI   C1B 6589   3.825   3.605  10.493  0.1113 -0.1834 -0.0370
  412loPI   C2B 6590   3.842   3.632  10.108  0.1853 -0.1616 -0.0271
  412loPI   C3B 6591   3.858   3.564   9.653  0.0743 -0.3903 -0.2636
  412loPI   C4B 6592   3.816   3.613   9.225 -0.4130 -0.1778 -0.0225
  413loPI    C1 6593  15.767   1.878  11.654 -0.0874 -0.0878  0.1477
  413loPI    C2 6594  15.432   1.740  11.824 -0.2868  0.0142 -0.1548
  413loPI    C3 6595  15.600   2.077  11.959 -0.2675 -0.0721  0.0399
  413loPI   PO4 6596  15.760   1.902  11.403  0.3074 -0.2235  0.0595
  413loPI   GL1 6597  15.917   1.735  11.152 -0.2720 -0.0061  0.1562
  413loPI   GL2 6598  15.973   2.006  10.901 -0.0093 -0.0600 -0.3852
  413loPI   C1A 6599  15.758   1.580  10.739 -0.5964 -0.1035  0.2966
  413loPI   C2A 6600  15.719   1.666  10.277  0.2701 -0.2013 -0.1208
  413loPI   C3A 6601  15.614   1.601   9.802  0.1615  0.1740 -0.0087
  413loPI   C4A 6602  15.650   1.585   9.327 -0.1448  0.0633  0.0987
  413loPI   C5A 6603  15.727   1.652   8.867  0.0801  0.0672  0.2738
  413loPI   C6A 6604  15.508   1.642   8.450  0.0003 -0.0372 -0.1106
  413loPI   C1B 6605  15.932   2.062  10.476 -0.2378  0.0123  0.2148
  413loPI   C2B 6606  16.057   2.096  10.039 -0.0414 -0.0223  0.0633
  413loPI   C3B 6607  16.027   2.028   9.589  0.0283  0.1589  0.0602
  413loPI   C4B 6608  16.021   1.952   9.122  0.0633 -0.0174  0.1191
  414loPI    C1 6609  11.214  12.146  11.518  0.0648 -0.1136 -0.2553
  414loPI    C2 6610  11.208  11.753  11.444 -0.1599 -0.1656  0.0264
  414loPI    C3 6611  11.295  11.887  11.811 -0.0615  0.0498 -0.0737
  414loPI   PO4 6612  11.138  12.245  11.278  0.1611 -0.1970 -0.0785
  414loPI   GL1 6613  11.027  12.181  10.884  0.0304 -0.0581  0.1976
  414loPI   GL2 6614  10.941  12.402  10.711  0.2389 -0.0241 -0.0485
  414loPI   C1A 6615  11.359  12.215  10.511 -0.0573  0.0562  0.1253
  414loPI   C2A 6616  11.412  12.154   9.980 -0.1942  0.0085 -0.2153
  414loPI   C3A 6617  11.314  12.179   9.498  0.1149 -0.2362 -0.3417
  414loPI   C4A 6618  11.424  12.099   9.057  0.0487  0.2486 -0.3604
  414loPI   C5A 6619  11.667  12.190   8.713 -0.1255  0.1035 -0.2344
  414loPI   C6A 6620  12.006  12.350   8.579 -0.2535  0.0499  0.1205
  414loPI   C1B 6621  10.863  12.263  10.279 -0.2501  0.0808  0.2947
  414loPI   C2B 6622  10.859  12.269   9.857 -0.0061  0.1159 -0.5454
  414loPI   C3B 6623  10.842  12.148   9.478  0.4211  0.1104  0.1466
  414loPI   C4B 6624  10.967  12.275   9.028 -0.2050 -0.0891  0.1888
  415loPI    C1 6625  12.580  13.798  11.430  0.2771  0.2345 -0.1041
  415loPI    C2 6626  12.712  13.977  11.763  0.0660  0.1036  0.0526
  415loPI    C3 6627  12.668  13.579  11.753  0.0023  0.1138 -0.1086
  415loPI   PO4 6628  12.635  13.782  11.226 -0.4290 -0.2858 -0.1742
  415loPI   GL1 6629  12.933  13.924  10.934  0.0463 -0.0954 -0.0547
  415loPI   GL2 6630  12.924  13.625  10.859 -0.2073 -0.1686 -0.0075
  415loPI   C1A 6631  12.646  13.969  10.552  0.0969  0.0850  0.2638
  415loPI   C2A 6632  12.519  13.926  10.157 -0.0046 -0.4822 -0.0637
  415loPI   C3A 6633  12.683  13.807   9.778 -0.1660 -0.1263  0.1713
  415loPI   C4A 6634  12.571  13.736   9.326 -0.2894  0.1881  0.0232
  415loPI   C5A 6635  12.655  13.633   8.865 -0.0587 -0.1497  0.1787
  415loPI   C6A 6636  12.782  13.310   8.676 -0.1027  0.2234 -0.2164
  415loPI   C1B 6637  12.882  13.435  10.449 -0.0453  0.1138  0.0051
  415loPI   C2B 6638  12.851  13.394   9.973  0.0588 -0.0107 -0.0197
  415loPI   C3B 6639  12.860  13.298   9.554 -0.0331 -0.2039 -0.2250
  415loPI   C4B 6640  12.853  13.316   9.161  0.1942 -0.2009 -0.2549
  416loPI    C1 6641   2.509   8.896  11.993 -0.2580  0.1306  0.0170
  416loPI    C2 6642   2.839   9.090  12.109 -0.1589  0.1427 -0.2769
  416loPI    C3 6643   2.494   9.150  12.302  0.0079  0.1312  0.0324
  416loPI   PO4 6644   2.466   8.878  11.729  0.0276 -0.1986  0.0719
  416loPI   GL1 6645   2.389   8.787  11.229 -0.1516  0.4123 -0.0191
  416loPI   GL2 6646   2.692   8.760  10.994 -0.0775  0.0191  0.3533
  416loPI   C1A 6647   2.226   8.846  10.827 -0.1845 -0.2724  0.1434
  416loPI   C2A 6648   2.182   8.839  10.430 -0.0432 -0.0770 -0.0221
  416loPI   C3A 6649   2.144   8.778  10.006  0.1288  0.2576  0.2830
  416loPI   C4A 6650   2.207   8.840   9.558  0.0618  0.1722 -0.1186
  416loPI   C5A 6651   2.246   8.783   9.192 -0.3688  0.1099  0.2707
  416loPI   C6A 6652   2.364   8.784   8.777  0.1645 -0.0412 -0.0609
  416loPI   C1B 6653   2.690   8.742  10.544  0.0006  0.1110  0.1726
  416loPI   C2B 6654   2.714   8.687  10.178  0.0943  0.2120 -0.1254
  416loPI   C3B 6655   2.709   8.696   9.736 -0.3071 -0.1325  0.2247
  416loPI   C4B 6656   2.734   8.712   9.310 -0.1995 -0.2685  0.1561
  417loPI    C1 6657  17.636  15.839  11.790 -0.1131  0.0966  0.0328
  417loPI    C2 6658  17.482  15.827  12.159  0.0666  0.1367  0.1101
  417loPI    C3 6659  17.743  16.114  12.060  0.0425  0.1080 -0.0393
  417loPI   PO4 6660  17.447  15.790  11.658 -0.0691  0.2906  0.1521
  417loPI   GL1 6661  17.451  15.956  11.239  0.1291 -0.1058  0.0803
  417loPI   GL2 6662  17.523  15.628  11.098 -0.2973 -0.0188 -0.0447
  417loPI   C1A 6663  17.471  16.054  10.766  0.1713 -0.0363 -0.1826
  417loPI   C2A 6664  17.435  16.036  10.318  0.1481  0.0800 -0.3302
  417loPI   C3A 6665  17.546  15.977   9.903  0.0055 -0.1654 -0.0370
  417loPI   C4A 6666  17.476  15.976   9.533 -0.0936 -0.1780 -0.2522
  417loPI   C5A 6667  17.359  16.078   9.132  0.2912 -0.1693  0.2521
  417loPI   C6A 6668  17.551  15.940   8.698  0.6292 -0.0102  0.0609
  417loPI   C1B 6669  17.664  15.553  10.648 -0.0400 -0.1376 -0.2643
  417loPI   C2B 6670  17.706  15.550  10.182 -0.0987 -0.1246  0.0132
  417loPI   C3B 6671  17.685  15.524   9.771  0.1072 -0.1458 -0.1262
  417loPI   C4B 6672  17.788  15.410   9.352  0.3802  0.2288  0.0815
  418loPI    C1 6673   0.140  15.355  11.746  0.2710 -0.0153  0.0991
  418loPI    C2 6674   0.070  15.037  11.978  0.0222 -0.0062  0.0391
  418loPI    C3 6675  -0.175  15.353  11.993  0.0340  0.0156 -0.1981
  418loPI   PO4 6676   0.250  15.255  11.539  0.3237 -0.0380  0.0727
  418loPI   GL1 6677   0.153  15.295  11.146  0.0450  0.1957 -0.1416
  418loPI   GL2 6678   0.443  15.385  10.994 -0.0449 -0.1589 -0.0977
  418loPI   C1A 6679   0.080  15.128  10.751 -0.0182  0.1119  0.1247
  418loPI   C2A 6680   0.131  14.989  10.303 -0.0400  0.1572  0.0910
  418loPI   C3A 6681   0.136  14.995   9.899  0.0655  0.0104  0.0308
  418loPI   C4A 6682   0.191  14.964   9.535 -0.2246 -0.0616  0.2717
  418loPI   C5A 6683   0.332  14.969   9.062 -0.2235 -0.1376 -0.0538
  418loPI   C6A 6684   0.253  15.401   8.873 -0.1453 -0.1620 -0.2235
  418loPI   C1B 6685   0.402  15.459  10.527 -0.0780  0.0966 -0.1438
  418loPI   C2B 6686   0.456  15.412  10.122 -0.0890  0.0010  0.1650
  418loPI   C3B 6687   0.435  15.360   9.718  0.0803 -0.0844 -0.2038
  418loPI   C4B 6688   0.503  15.393   9.378  0.1460 -0.4197 -0.0194
  419loPI    C1 6689  14.348  12.693  11.529  0.2732  0.0203  0.1095
  419loPI    C2 6690  13.994  12.826  11.658  0.3013  0.1889  0.0146
  419loPI    C3 6691  14.222  12.603  11.898  0.1711  0.1552  0.1083
  419loPI   PO4 6692  14.281  12.592  11.307 -0.0806  0.0939  0.0482
  419loPI   GL1 6693  14.145  12.560  10.877  0.2018 -0.0294  0.1570
  419loPI   GL2 6694  13.765  12.692  10.768 -0.1309 -0.0527  0.3641
  419loPI   C1A 6695  14.301  12.278  10.638 -0.0584  0.0757 -0.0727
  419loPI   C2A 6696  14.265  12.330  10.218  0.3674 -0.2747  0.1472
  419loPI   C3A 6697  14.281  12.212   9.778 -0.0440 -0.2786 -0.1257
  419loPI   C4A 6698  14.276  12.149   9.322  0.0340 -0.3936 -0.1451
  419loPI   C5A 6699  14.401  12.059   8.954 -0.0495 -0.1523 -0.0310
  419loPI   C6A 6700  14.827  12.133   8.789 -0.0960 -0.1828  0.2326
  419loPI   C1B 6701  13.620  12.895  10.437 -0.0442 -0.2966 -0.4118
  419loPI   C2B 6702  13.592  12.811  10.095 -0.0125  0.1300  0.2651
  419loPI   C3B 6703  13.432  12.802   9.614 -0.1066  0.1014  0.2573
  419loPI   C4B 6704  13.540  12.754   9.300 -0.3673 -0.0906  0.0267
  420loPI    C1 6705  10.800   3.946  11.267  0.0136  0.0885 -0.0781
  420loPI    C2 6706  11.122   4.173  11.333  0.0819 -0.0323  0.0065
  420loPI    C3 6707  10.988   3.928  11.619 -0.0660 -0.0063 -0.0400
  420loPI   PO4 6708  10.847   3.789  11.040  0.0660 -0.0312  0.1513
  420loPI   GL1 6709  10.767   3.870  10.683 -0.1335  0.1083 -0.0658
  420loPI   GL2 6710  10.834   4.222  10.473  0.1808 -0.1789 -0.4115
  420loPI   C1A 6711  10.494   3.687  10.349  0.3156  0.0662  0.1721
  420loPI   C2A 6712  10.509   3.674   9.863 -0.1331 -0.3415 -0.1451
  420loPI   C3A 6713  10.466   3.756   9.499  0.1306  0.3746 -0.0467
  420loPI   C4A 6714  10.372   3.608   9.061 -0.0202  0.1581 -0.3480
  420loPI   C5A 6715  10.505   3.431   8.676 -0.3999  0.1501 -0.2254
  420loPI   C6A 6716  10.509   3.304   8.279 -0.0330  0.0216  0.3414
  420loPI   C1B 6717  10.770   4.084  10.045 -0.2745  0.1766 -0.1608
  420loPI   C2B 6718  10.867   4.093   9.600 -0.2312 -0.0456 -0.1618
  420loPI   C3B 6719  10.825   4.148   9.133  0.0398 -0.0588 -0.0023
  420loPI   C4B 6720  10.670   4.009   8.819 -0.0128  0.2350  0.1999
  421loPI    C1 6721   1.080   1.029  11.665  0.1880 -0.0675  0.2549
  421loPI    C2 6722   1.448   0.995  11.818  0.2200  0.1951  0.2425
  421loPI    C3 6723   1.141   0.801  11.988  0.3656 -0.0396  0.2419
  421loPI   PO4 6724   1.096   1.045  11.436  0.0726 -0.1993  0.1031
  421loPI   GL1 6725   0.869   1.262  11.123 -0.0287 -0.1508 -0.0609
  421loPI   GL2 6726   0.533   1.293  11.207 -0.3585  0.1331  0.3219
  421loPI   C1A 6727   0.976   1.330  10.751 -0.5249  0.3542 -0.2127
  421loPI   C2A 6728   0.984   1.244  10.258  0.1106  0.0710 -0.0340
  421loPI   C3A 6729   1.024   1.212   9.860  0.1878  0.5177 -0.0109
  421loPI   C4A 6730   0.921   1.166   9.460 -0.1287  0.3249 -0.1318
  421loPI   C5A 6731   0.860   1.153   9.014  0.2382  0.0041  0.3310
  421loPI   C6A 6732   0.873   0.840   8.826 -0.1359  0.4835  0.0296
  421loPI   C1B 6733   0.478   1.287  10.718 -0.0393 -0.0035 -0.0587
  421loPI   C2B 6734   0.501   1.280  10.265 -0.2991 -0.0491 -0.1549
  421loPI   C3B 6735   0.539   1.305   9.867  0.0343  0.1023  0.0726
  421loPI   C4B 6736   0.416   1.237   9.427  0.1821  0.1178  0.0348
  422loPI    C1 6737  13.419   9.141  11.484 -0.1235  0.0217 -0.0684
  422loPI    C2 6738  13.189   8.871  11.669  0.2706 -0.1378  0.2030
  422loPI    C3 6739  13.373   9.156  11.881  0.1005  0.1626 -0.0458
  422loPI   PO4 6740  13.382   9.300  11.276  0.2386  0.1555  0.1244
  422loPI   GL1 6741  13.263   9.601  10.900 -0.0179  0.2219 -0.2396
  422loPI   GL2 6742  13.001   9.765  10.811  0.0928  0.1387  0.1264
  422loPI   C1A 6743  13.422   9.710  10.564  0.0540 -0.1507  0.0662
  422loPI   C2A 6744  13.393   9.766  10.141  0.0291  0.1589  0.1024
  422loPI   C3A 6745  13.357   9.676   9.712 -0.2232 -0.0139 -0.0843
  422loPI   C4A 6746  13.339   9.675   9.314 -0.0121  0.2063 -0.3079
  422loPI   C5A 6747  13.397   9.688   8.872 -0.0609  0.0678 -0.0445
  422loPI   C6A 6748  13.550   9.539   8.424 -0.0108 -0.2591  0.1021
  422loPI   C1B 6749  12.909   9.696  10.344  0.1359 -0.2550 -0.0304
  422loPI   C2B 6750  12.817   9.698   9.935  0.0596 -0.4509 -0.2318
  422loPI   C3B 6751  12.846   9.721   9.486 -0.0560  0.0888  0.0668
  422loPI   C4B 6752  12.811   9.607   9.053  0.3022  0.0706  0.3687
  423loPI    C1 6753   5.832  12.614  11.410  0.3736 -0.0262 -0.2327
  423loPI    C2 6754   5.992  12.247  11.413  0.0377 -0.1766  0.0101
  423loPI    C3 6755   5.879  12.418  11.756  0.0792  0.1063 -0.1143
  423loPI   PO4 6756   5.903  12.700  11.156  0.1040 -0.1662  0.0047
  423loPI   GL1 6757   6.101  12.406  10.884  0.0846 -0.0495 -0.0605
  423loPI   GL2 6758   5.838  12.227  10.975  0.2972  0.0108  0.2004
  423loPI   C1A 6759   6.029  12.443  10.477  0.1671  0.0852 -0.0711
  423loPI   C2A 6760   6.034  12.477  10.083 -0.2030 -0.2449  0.1141
  423loPI   C3A 6761   6.027  12.387   9.623 -0.0352  0.0409 -0.0976
  423loPI   C4A 6762   6.032  12.478   9.212  0.0498 -0.0635  0.2065
  423loPI   C5A 6763   6.240  12.658   8.857  0.2620  0.0032  0.1767
  423loPI   C6A 6764   6.116  12.664   8.377  0.0040 -0.1806  0.0482
  423loPI   C1B 6765   5.637  12.139  10.457  0.2173  0.3543 -0.0340
  423loPI   C2B 6766   5.718  11.968  10.087 -0.2277 -0.3603  0.2300
  423loPI   C3B 6767   5.664  11.990   9.610  0.2006  0.0212 -0.2105
  423loPI   C4B 6768   5.735  12.059   9.238  0.3844  0.1200 -0.1427
  424loPI    C1 6769   5.719   4.852  11.647 -0.1697  0.0978  0.0769
  424loPI    C2 6770   5.763   5.038  11.999 -0.0518  0.1008  0.0610
  424loPI    C3 6771   5.791   4.639  11.978  0.0828  0.1114  0.0326
  424loPI   PO4 6772   5.627   5.052  11.464 -0.1131  0.0327  0.1366
  424loPI   GL1 6773   5.606   4.834  11.073 -0.0218  0.2652  0.0443
  424loPI   GL2 6774   5.457   5.072  10.914  0.1495  0.2936 -0.1503
  424loPI   C1A 6775   5.727   4.738  10.626 -0.5868  0.1842 -0.0279
  424loPI   C2A 6776   5.842   4.626  10.165 -0.0630 -0.2602 -0.0034
  424loPI   C3A 6777   5.756   4.658   9.732  0.1735  0.1922 -0.1220
  424loPI   C4A 6778   5.644   4.687   9.360  0.1210 -0.2451  0.1020
  424loPI   C5A 6779   5.788   4.518   8.942 -0.5123  0.2045  0.1948
  424loPI   C6A 6780   5.648   4.703   8.597  0.2209 -0.1155  0.0722
  424loPI   C1B 6781   5.506   5.148  10.493  0.1528 -0.3636  0.2925
  424loPI   C2B 6782   5.618   5.185  10.057 -0.0343 -0.0416 -0.4639
  424loPI   C3B 6783   5.612   5.172   9.637  0.0671 -0.1536 -0.0680
  424loPI   C4B 6784   5.564   5.274   9.271 -0.1354  0.0741 -0.1760
  425loPI    C1 6785   2.904  12.342  11.848 -0.4266 -0.1546  0.3383
  425loPI    C2 6786   2.930  12.632  12.123  0.2231  0.0945  0.0353
  425loPI    C3 6787   3.183  12.323  12.133  0.0013 -0.0938 -0.0641
  425loPI   PO4 6788   2.940  12.475  11.607 -0.3758  0.2838 -0.0548
  425loPI   GL1 6789   2.832  12.448  11.123  0.3047 -0.0744 -0.2719
  425loPI   GL2 6790   3.001  12.710  10.919  0.0282 -0.0572 -0.1349
  425loPI   C1A 6791   2.628  12.406  10.641  0.0459  0.0506  0.1275
  425loPI   C2A 6792   2.657  12.356  10.177 -0.1952 -0.0069  0.0461
  425loPI   C3A 6793   2.614  12.383   9.710  0.2553 -0.2046 -0.0483
  425loPI   C4A 6794   2.516  12.334   9.248  0.0200  0.2604 -0.0043
  425loPI   C5A 6795   2.194  12.320   8.888  0.1370  0.3266  0.3866
  425loPI   C6A 6796   2.201  12.306   8.477 -0.0992 -0.1631  0.0219
  425loPI   C1B 6797   2.999  12.717  10.479  0.0969  0.0245 -0.0975
  425loPI   C2B 6798   2.951  12.750   9.945  0.0930  0.0345 -0.2744
  425loPI   C3B 6799   2.892  12.811   9.520 -0.0913 -0.1638 -0.0905
  425loPI   C4B 6800   2.935  12.613   9.137 -0.0746  0.0505  0.0207
  426loPI    C1 6801  10.730  15.855  10.944  0.0617  0.1394 -0.0253
  426loPI    C2 6802  10.922  15.589  11.171 -0.1499  0.1767  0.2021
  426loPI    C3 6803  10.664  15.464  10.892 -0.0433  0.1370  0.1203
  426loPI   PO4 6804  10.853  16.013  10.874 -0.2022 -0.0110 -0.0172
  426loPI   GL1 6805  11.013  16.021  10.503  0.1920 -0.2598  0.1356
  426loPI   GL2 6806  11.032  16.328  10.308  0.0966 -0.0103  0.2610
  426loPI   C1A 6807  11.041  15.675  10.264  0.0605  0.2482  0.0045
  426loPI   C2A 6808  10.987  15.230  10.052 -0.0923 -0.2401  0.2210
  426loPI   C3A 6809  10.728  14.889   9.976 -0.2506  0.2374  0.0714
  426loPI   C4A 6810  10.453  14.564   9.944 -0.0718 -0.1468  0.0504
  426loPI   C5A 6811  10.258  14.189   9.741  0.1419  0.2033 -0.1333
  426loPI   C6A 6812  10.161  14.060   9.359 -0.0576 -0.4024  0.2314
  426loPI   C1B 6813  10.786  16.075  10.021  0.0040 -0.0021 -0.1128
  426loPI   C2B 6814  10.303  16.049  10.047 -0.1296 -0.1817 -0.0643
  426loPI   C3B 6815  10.116  16.384   9.995 -0.1892  0.1053 -0.0005
  426loPI   C4B 6816  10.124  16.605   9.653  0.1424 -0.4818  0.0771
  427loPI    C1 6817  11.115   0.160  11.444 -0.0395 -0.2489  0.2013
  427loPI    C2 6818  11.479   0.061  11.575  0.0014 -0.1318  0.1779
  427loPI    C3 6819  11.425   0.403  11.376 -0.0775 -0.2622 -0.0286
  427loPI   PO4 6820  11.055   0.057  11.284  0.0778 -0.1387  0.0944
  427loPI   GL1 6821  11.030  -0.045  10.909  0.2753 -0.0193  0.1188
  427loPI   GL2 6822  11.336   0.042  10.803 -0.2713 -0.1436 -0.1118
  427loPI   C1A 6823  10.911  -0.085  10.456  0.0368  0.0681 -0.3464
  427loPI   C2A 6824  11.064  -0.006   9.972  0.2979  0.1267 -0.4858
  427loPI   C3A 6825  10.988  -0.063   9.501 -0.1099  0.3136  0.0851
  427loPI   C4A 6826  10.938  -0.041   9.067 -0.0183  0.0862  0.0135
  427loPI   C5A 6827  10.805   0.067   8.662  0.0216 -0.0870 -0.2343
  427loPI   C6A 6828  10.487   0.280   8.553  0.2631 -0.0738 -0.0012
  427loPI   C1B 6829  11.494  -0.016  10.394  0.2213  0.0978 -0.0699
  427loPI   C2B 6830  11.599  -0.061  10.047 -0.0375 -0.0473  0.2117
  427loPI   C3B 6831  11.465  -0.064   9.525 -0.0632  0.3572  0.0794
  427loPI   C4B 6832  11.427  -0.198   9.121  0.2333  0.0608  0.0745
  428loPI    C1 6833   2.283   2.213  11.623 -0.0363  0.2766 -0.0292
  428loPI    C2 6834   1.885   2.237  11.590 -0.0406  0.2689  0.0176
  428loPI    C3 6835   2.050   2.085  11.922 -0.0078 -0.1002 -0.1625
  428loPI   PO4 6836   2.345   2.060  11.371 -0.1324 -0.0866  0.0858
  428loPI   GL1 6837   2.650   1.964  11.052  0.1014  0.3600 -0.0393
  428loPI   GL2 6838   2.823   2.223  10.907  0.2897  0.0895 -0.2099
  428loPI   C1A 6839   2.543   1.867  10.556 -0.2767 -0.1186 -0.0944
  428loPI   C2A 6840   2.585   1.937  10.155 -0.0096  0.1419 -0.1757
  428loPI   C3A 6841   2.557   1.956   9.731  0.1096  0.1071 -0.2163
  428loPI   C4A 6842   2.518   1.946   9.258  0.0539 -0.2307 -0.1071
  428loPI   C5A 6843   2.065   2.112   9.015 -0.0980  0.0349 -0.2527
  428loPI   C6A 6844   1.626   2.127   9.000  0.1984 -0.1827 -0.3865
  428loPI   C1B 6845   2.933   2.226  10.583  0.1328 -0.2729  0.4457
  428loPI   C2B 6846   2.927   2.386  10.144  0.0281 -0.1495  0.0461
  428loPI   C3B 6847   2.882   2.373   9.704  0.3719 -0.0299 -0.1997
  428loPI   C4B 6848   2.839   2.407   9.269  0.1330 -0.1698  0.2683
  429loPI    C1 6849   5.508  16.943  11.526  0.0729  0.4457  0.1695
  429loPI    C2 6850   5.296  17.135  11.806 -0.0458  0.2258  0.2328
  429loPI    C3 6851   5.589  16.885  11.913 -0.2631 -0.0597  0.1737
  429loPI   PO4 6852   5.336  16.825  11.324  0.1191 -0.0767  0.1572
  429loPI   GL1 6853   5.137  17.123  11.002  0.1596 -0.0286 -0.2471
  429loPI   GL2 6854   4.882  17.018  11.182  0.0764  0.0277 -0.0529
  429loPI   C1A 6855   5.025  17.013  10.593  0.3049  0.3369 -0.2371
  429loPI   C2A 6856   5.044  17.161  10.214  0.0584  0.1489  0.0102
  429loPI   C3A 6857   5.146  17.127   9.803 -0.2339  0.2601  0.0459
  429loPI   C4A 6858   5.151  17.159   9.469 -0.0258  0.0380  0.0728
  429loPI   C5A 6859   5.156  16.937   8.997 -0.1947  0.0763  0.1357
  429loPI   C6A 6860   4.964  16.838   8.654 -0.1776  0.1183 -0.1154
  429loPI   C1B 6861   4.585  17.055  10.816  0.2070 -0.3720  0.0716
  429loPI   C2B 6862   4.567  17.174  10.373 -0.2312  0.2903  0.0386
  429loPI   C3B 6863   4.500  17.056   9.919 -0.0991 -0.2448 -0.0344
  429loPI   C4B 6864   4.597  17.191   9.516  0.0413  0.1793  0.1647
  430loPI    C1 6865  13.823   5.778  11.655 -0.1606  0.0725 -0.0716
  430loPI    C2 6866  13.908   5.470  11.896  0.1244  0.1808 -0.0297
  430loPI    C3 6867  13.924   5.845  12.037 -0.1490  0.2207 -0.0998
  430loPI   PO4 6868  13.722   5.658  11.433  0.1149  0.0315  0.1352
  430loPI   GL1 6869  13.752   5.689  10.941 -0.0394 -0.0252 -0.4259
  430loPI   GL2 6870  13.898   5.949  10.877 -0.0678 -0.1914  0.1060
  430loPI   C1A 6871  13.617   5.544  10.599  0.2415 -0.0997  0.2005
  430loPI   C2A 6872  13.632   5.523  10.245 -0.3026  0.1178 -0.2002
  430loPI   C3A 6873  13.620   5.514   9.842  0.0127  0.0894  0.1371
  430loPI   C4A 6874  13.583   5.537   9.395  0.0033 -0.0296 -0.1474
  430loPI   C5A 6875  13.680   5.505   8.994 -0.0369  0.0138 -0.0510
  430loPI   C6A 6876  13.536   5.572   8.526 -0.4289 -0.2398  0.1365
  430loPI   C1B 6877  13.853   5.952  10.464 -0.2685 -0.0378 -0.4136
  430loPI   C2B 6878  13.817   5.953  10.031 -0.0854  0.2683 -0.1102
  430loPI   C3B 6879  13.861   5.910   9.648  0.0215  0.2435  0.0766
  430loPI   C4B 6880  13.962   5.944   9.295 -0.0320  0.1066  0.1176
  431loPI    C1 6881   8.100  11.921  11.469 -0.1609  0.0842  0.0193
  431loPI    C2 6882   8.227  12.233  11.684  0.1721 -0.0630  0.0433
  431loPI    C3 6883   7.941  11.994  11.828 -0.1164  0.2519  0.0056
  431loPI   PO4 6884   8.250  11.963  11.245 -0.2473  0.1924 -0.0295
  431loPI   GL1 6885   8.128  12.220  10.806 -0.3011 -0.0874  0.2220
  431loPI   GL2 6886   8.346  11.868  10.723  0.2835 -0.0443 -0.2341
  431loPI   C1A 6887   8.140  12.126  10.323 -0.1366 -0.0265 -0.2154
  431loPI   C2A 6888   8.086  12.096   9.849 -0.0374  0.3664  0.3943
  431loPI   C3A 6889   8.049  12.062   9.472 -0.0544 -0.1871 -0.1917
  431loPI   C4A 6890   8.088  12.122   8.947 -0.1746  0.0531 -0.3010
  431loPI   C5A 6891   8.243  11.962   8.624 -0.2838 -0.0228  0.0562
  431loPI   C6A 6892   8.548  11.821   8.357  0.0589  0.0707 -0.3031
  431loPI   C1B 6893   8.180  11.655  10.421  0.3484  0.0078  0.1014
  431loPI   C2B 6894   8.246  11.630   9.967  0.0854  0.0407  0.3439
  431loPI   C3B 6895   8.231  11.573   9.574  0.2801 -0.2008  0.2418
  431loPI   C4B 6896   8.207  11.617   9.134 -0.0436  0.4052  0.0543
  432loPI    C1 6897   2.304   4.535  12.026 -0.2492  0.0915 -0.0812
  432loPI    C2 6898   2.415   4.342  12.358 -0.0072  0.1076 -0.1513
  432loPI    C3 6899   2.174   4.660  12.383 -0.0721  0.0476 -0.0003
  432loPI   PO4 6900   2.562   4.613  11.813 -0.0321  0.0524 -0.0296
  432loPI   GL1 6901   2.568   4.585  11.358  0.0607 -0.1918  0.0134
  432loPI   GL2 6902   2.758   4.361  11.163  0.1875 -0.2579  0.2122
  432loPI   C1A 6903   2.369   4.701  10.998  0.0655 -0.1248  0.1379
  432loPI   C2A 6904   2.378   4.826  10.545 -0.0046 -0.0719  0.1666
  432loPI   C3A 6905   2.415   4.825  10.071 -0.0927  0.2164  0.0650
  432loPI   C4A 6906   2.421   4.736   9.565  0.0606  0.1864  0.0631
  432loPI   C5A 6907   2.414   4.766   9.099  0.0186 -0.4165 -0.0004
  432loPI   C6A 6908   2.554   4.549   8.603  0.0678  0.3286 -0.1517
  432loPI   C1B 6909   2.563   4.283  10.736  0.0351 -0.0947 -0.1692
  432loPI   C2B 6910   2.644   4.308  10.258  0.0755 -0.1683 -0.3505
  432loPI   C3B 6911   2.602   4.314   9.882  0.4333  0.1181  0.0005
  432loPI   C4B 6912   2.545   4.309   9.394 -0.2786  0.1045  0.0694
  433loPI    C1 6913   9.353  13.848  11.436  0.2240 -0.1413  0.1297
  433loPI    C2 6914   9.021  13.890  11.656  0.1403 -0.0937 -0.0042
  433loPI    C3 6915   9.381  13.913  11.829  0.0841  0.3764  0.0618
  433loPI   PO4 6916   9.228  13.707  11.210 -0.1384  0.1181  0.1506
  433loPI   GL1 6917   9.418  13.602  10.869  0.0844 -0.2219 -0.2563
  433loPI   GL2 6918   9.588  13.440  10.774 -0.2225 -0.2593  0.0386
  433loPI   C1A 6919   9.371  13.819  10.489 -0.1040 -0.0406  0.1233
  433loPI   C2A 6920   9.290  13.777  10.118 -0.0473 -0.1931 -0.2134
  433loPI   C3A 6921   9.168  13.732   9.715 -0.0120 -0.0292  0.2869
  433loPI   C4A 6922   9.261  13.816   9.289  0.2319 -0.2087 -0.0755
  433loPI   C5A 6923   9.126  13.662   8.861  0.0916  0.1332 -0.1376
  433loPI   C6A 6924   8.714  13.693   8.589  0.2667  0.0014  0.1445
  433loPI   C1B 6925   9.519  13.382  10.299  0.1376 -0.1072  0.0815
  433loPI   C2B 6926   9.543  13.272   9.906  0.0506 -0.1388  0.0517
  433loPI   C3B 6927   9.527  13.398   9.481  0.0869 -0.0797  0.0647
  433loPI   C4B 6928   9.418  13.330   9.081  0.1434 -0.1119  0.2012
  434loPI    C1 6929   9.384   5.044  11.195 -0.3485  0.0820  0.0577
  434loPI    C2 6930   9.339   4.978  11.587 -0.0325  0.2392  0.1243
  434loPI    C3 6931   9.289   5.346  11.440  0.0820  0.2275  0.0547
  434loPI   PO4 6932   9.637   4.978  11.142  0.1737  0.0169 -0.0826
  434loPI   GL1 6933   9.666   4.815  10.794  0.1331 -0.0243  0.0486
  434loPI   GL2 6934   9.849   4.669  10.732  0.1367  0.0003  0.1105
  434loPI   C1A 6935   9.564   4.768  10.316  0.2607  0.2002  0.0221
  434loPI   C2A 6936   9.709   4.718   9.988 -0.1329  0.2257 -0.1470
  434loPI   C3A 6937   9.564   4.575   9.653  0.1021 -0.1416  0.1829
  434loPI   C4A 6938   9.611   4.767   9.294 -0.2969 -0.0573  0.1435
  434loPI   C5A 6939   9.568   4.667   8.822  0.1140  0.0658  0.1675
  434loPI   C6A 6940   9.623   4.535   8.337 -0.4414 -0.1449  0.1755
  434loPI   C1B 6941  10.115   4.686  10.424 -0.0453 -0.1496 -0.0329
  434loPI   C2B 6942  10.203   4.655   9.979 -0.0597 -0.0358  0.3642
  434loPI   C3B 6943  10.161   4.701   9.609  0.1829 -0.0213 -0.0866
  434loPI   C4B 6944  10.059   4.612   9.254  0.1050 -0.1536  0.1906
  435loPI    C1 6945   4.727  17.155  11.790 -0.1906 -0.0086  0.1015
  435loPI    C2 6946   4.935  16.855  11.627  0.0408  0.2376 -0.0654
  435loPI    C3 6947   4.874  16.864  12.022  0.1875  0.0652 -0.0373
  435loPI   PO4 6948   4.728  17.322  11.557  0.1182 -0.0085 -0.3138
  435loPI   GL1 6949   4.724  17.516  11.246  0.2622  0.1793  0.2024
  435loPI   GL2 6950   4.491  17.455  11.120  0.1688  0.0237 -0.0636
  435loPI   C1A 6951   4.845  17.517  10.811 -0.1106  0.1195 -0.1984
  435loPI   C2A 6952   4.855  17.582  10.501  0.0786  0.0843  0.0990
  435loPI   C3A 6953   4.780  17.521  10.121  0.3773 -0.3648 -0.0129
  435loPI   C4A 6954   4.905  17.612   9.733  0.1648  0.1470 -0.1383
  435loPI   C5A 6955   4.935  17.591   9.285 -0.0261 -0.1663  0.3125
  435loPI   C6A 6956   4.903  17.811   8.798 -0.0613  0.1970 -0.0981
  435loPI   C1B 6957   4.322  17.559  10.745 -0.3046  0.2593 -0.4730
  435loPI   C2B 6958   4.348  17.629  10.329 -0.1935  0.0232 -0.0890
  435loPI   C3B 6959   4.366  17.675   9.838 -0.0586 -0.2524 -0.2487
  435loPI   C4B 6960   4.423  17.677   9.469 -0.2001  0.1312  0.4331
  436loPI    C1 6961   0.085   1.617  11.655  0.0538 -0.2875 -0.1832
  436loPI    C2 6962   0.379   1.399  11.816  0.1839 -0.1048 -0.1708
  436loPI    C3 6963   0.005   1.362  11.952  0.2232 -0.2449 -0.1001
  436loPI   PO4 6964   0.101   1.542  11.364 -0.0726 -0.1030 -0.5261
  436loPI   GL1 6965  -0.013   1.300  10.973 -0.0180  0.2934  0.3097
  436loPI   GL2 6966  -0.317   1.123  10.824  0.1341  0.0358 -0.1186
  436loPI   C1A 6967   0.015   1.392  10.589 -0.2484 -0.0847  0.0297
  436loPI   C2A 6968  -0.064   1.342  10.193 -0.1685  0.4655 -0.1443
  436loPI   C3A 6969  -0.008   1.382   9.795  0.0397  0.3507 -0.0076
  436loPI   C4A 6970  -0.088   1.272   9.306  0.0897 -0.2845 -0.1161
  436loPI   C5A 6971  -0.128   1.151   8.854 -0.0636 -0.4804  0.1181
  436loPI   C6A 6972   0.044   1.194   8.438  0.1406  0.0517 -0.1746
  436loPI   C1B 6973  -0.317   0.970  10.510  0.0075 -0.2258  0.0778
  436loPI   C2B 6974  -0.393   0.936  10.035 -0.1790 -0.1321 -0.2517
  436loPI   C3B 6975  -0.309   0.926   9.695 -0.2100  0.0299 -0.0260
  436loPI   C4B 6976  -0.504   0.921   9.283  0.0830 -0.1776  0.2681
  437loPI    C1 6977   5.873  17.308  11.666  0.0455  0.0535 -0.1799
  437loPI    C2 6978   5.950  17.635  11.884 -0.0173  0.0526 -0.1561
  437loPI    C3 6979   5.868  17.288  12.065 -0.0442  0.0458 -0.1811
  437loPI   PO4 6980   5.707  17.376  11.499 -0.0024  0.0615  0.1455
  437loPI   GL1 6981   5.644  17.479  11.190 -0.5791 -0.1655  0.0741
  437loPI   GL2 6982   5.340  17.563  10.974  0.0173  0.2288  0.1019
  437loPI   C1A 6983   5.816  17.476  10.780  0.1725 -0.1207 -0.3209
  437loPI   C2A 6984   5.855  17.370  10.384  0.3164  0.3243  0.0810
  437loPI   C3A 6985   5.871  17.348   9.925  0.1978 -0.1037 -0.1257
  437loPI   C4A 6986   5.883  17.409   9.526  0.1674  0.3290  0.0040
  437loPI   C5A 6987   5.934  17.404   9.086 -0.1128 -0.0933 -0.1250
  437loPI   C6A 6988   5.618  17.463   8.828  0.2521 -0.1512  0.1157
  437loPI   C1B 6989   5.329  17.470  10.574  0.1114  0.2006  0.2137
  437loPI   C2B 6990   5.394  17.577  10.114  0.0474 -0.1411 -0.0590
  437loPI   C3B 6991   5.405  17.535   9.735 -0.0582  0.4353  0.0964
  437loPI   C4B 6992   5.475  17.616   9.301 -0.2106  0.0215  0.1267
  438loPI    C1 6993   6.391   8.675  11.407  0.1449  0.0039 -0.2444
  438loPI    C2 6994   6.093   8.667  11.140 -0.1302  0.2586  0.0465
  438loPI    C3 6995   6.130   8.978  11.389  0.3053  0.1684  0.1021
  438loPI   PO4 6996   6.551   8.547  11.297 -0.1214 -0.0179  0.3166
  438loPI   GL1 6997   6.634   8.424  10.890 -0.0865 -0.0732  0.1380
  438loPI   GL2 6998   6.347   8.302  10.889  0.0554  0.1229  0.3320
  438loPI   C1A 6999   6.611   8.694  10.578 -0.1034  0.1349 -0.0854
  438loPI   C2A 7000   6.566   8.651  10.123  0.1382  0.2905  0.1929
  438loPI   C3A 7001   6.501   8.851   9.721 -0.0391 -0.0264 -0.0632
  438loPI   C4A 7002   6.620   8.742   9.290  0.1233 -0.1875  0.1358
  438loPI   C5A 7003   6.600   8.804   8.937  0.1955 -0.1018 -0.0028
  438loPI   C6A 7004   6.339   8.889   8.522  0.0976  0.2484  0.0375
  438loPI   C1B 7005   6.328   8.290  10.402 -0.0968 -0.1101  0.1107
  438loPI   C2B 7006   6.304   8.246   9.944 -0.0870  0.0420 -0.2425
  438loPI   C3B 7007   6.250   8.339   9.491 -0.2114  0.0937  0.1431
  438loPI   C4B 7008   6.356   8.357   9.064 -0.2504  0.1297 -0.3318
  439loPI    C1 7009   1.631   4.958  11.732 -0.0881  0.1271 -0.0523
  439loPI    C2 7010   1.445   4.743  12.013 -0.0789  0.1875  0.0002
  439loPI    C3 7011   1.817   4.876  12.076 -0.1483  0.3661  0.0391
  439loPI   PO4 7012   1.498   4.809  11.525  0.0072  0.1821 -0.0327
  439loPI   GL1 7013   1.458   4.810  11.045  0.0116 -0.0015 -0.0389
  439loPI   GL2 7014   1.189   4.572  11.150  0.0823  0.0181 -0.1969
  439loPI   C1A 7015   1.453   4.851  10.574  0.2632  0.0652 -0.1538
  439loPI   C2A 7016   1.402   4.940  10.218 -0.0854 -0.0984  0.3120
  439loPI   C3A 7017   1.375   4.908   9.694  0.0657  0.0676  0.0384
  439loPI   C4A 7018   1.318   4.966   9.214  0.2192 -0.0976 -0.1332
  439loPI   C5A 7019   1.312   4.991   8.857  0.0324  0.1828 -0.1796
  439loPI   C6A 7020   0.882   4.891   8.534 -0.3287  0.0393 -0.1343
  439loPI   C1B 7021   1.107   4.489  10.703  0.4216  0.1703 -0.0143
  439loPI   C2B 7022   1.176   4.504  10.322 -0.0595  0.2310  0.0413
  439loPI   C3B 7023   1.116   4.457   9.884  0.2155 -0.0696 -0.0878
  439loPI   C4B 7024   1.089   4.422   9.506  0.0347  0.1325  0.0968
  440loPI    C1 7025  14.088   6.157  11.408 -0.0259 -0.1196  0.0692
  440loPI    C2 7026  13.825   6.306  11.670  0.1640  0.1516  0.1112
  440loPI    C3 7027  14.192   6.206  11.791  0.1662  0.0208  0.0006
  440loPI   PO4 7028  14.075   6.350  11.158 -0.2287 -0.0754  0.0901
  440loPI   GL1 7029  14.168   6.375  10.685 -0.2095 -0.1564 -0.1997
  440loPI   GL2 7030  13.775   6.400  10.719  0.0514 -0.1907 -0.0559
  440loPI   C1A 7031  14.182   6.242  10.244 -0.0977 -0.1461  0.0333
  440loPI   C2A 7032  14.211   6.347   9.903 -0.2116  0.0408 -0.0617
  440loPI   C3A 7033  14.208   6.372   9.499  0.0584 -0.0611  0.0325
  440loPI   C4A 7034  14.339   6.282   9.065 -0.1534  0.2093  0.3464
  440loPI   C5A 7035  14.203   6.294   8.716  0.0656 -0.3581 -0.1085
  440loPI   C6A 7036  13.824   6.622   8.562 -0.0483  0.2658  0.2638
  440loPI   C1B 7037  13.673   6.404  10.276 -0.1407 -0.0300  0.0038
  440loPI   C2B 7038  13.727   6.355   9.795 -0.0838  0.1955  0.0828
  440loPI   C3B 7039  13.732   6.431   9.339 -0.0102  0.0671  0.0035
  440loPI   C4B 7040  13.732   6.325   8.963 -0.1037 -0.1902 -0.1514
  441loPI    C1 7041   3.059  10.233  11.499 -0.0764  0.2069 -0.1558
  441loPI    C2 7042   3.103  10.589  11.676  0.0381  0.0563  0.1246
  441loPI    C3 7043   2.760  10.388  11.715 -0.0541  0.1683 -0.0969
  441loPI   PO4 7044   3.212  10.353  11.304 -0.0584  0.1586 -0.0474
  441loPI   GL1 7045   3.443  10.357  10.943 -0.0776 -0.0280  0.2172
  441loPI   GL2 7046   3.698  10.418  11.069 -0.0434  0.3896 -0.0965
  441loPI   C1A 7047   3.457  10.513  10.501  0.1060  0.1097 -0.1792
  441loPI   C2A 7048   3.424  10.421  10.062  0.3226  0.0817  0.0946
  441loPI   C3A 7049   3.449  10.473   9.637 -0.0766 -0.3898  0.0448
  441loPI   C4A 7050   3.488  10.573   9.184 -0.1029 -0.3359 -0.0217
  441loPI   C5A 7051   3.576  10.514   8.845  0.0354  0.0661 -0.0309
  441loPI   C6A 7052   3.635  10.382   8.488 -0.0858  0.2808  0.0747
  441loPI   C1B 7053   3.898  10.428  10.720 -0.1064  0.1295 -0.1638
  441loPI   C2B 7054   3.923  10.396  10.273  0.0333 -0.0323 -0.3401
  441loPI   C3B 7055   3.949  10.490   9.836  0.0151 -0.0847 -0.1715
  441loPI   C4B 7056   3.936  10.467   9.428  0.2579  0.1844 -0.2636
  442loPI    C1 7057  14.130   9.474  11.284  0.0754  0.0648 -0.0008
  442loPI    C2 7058  13.907   9.370  11.600 -0.0008  0.0886 -0.0465
  442loPI    C3 7059  14.242   9.582  11.653  0.0972 -0.0855  0.0371
  442loPI   PO4 7060  14.050   9.378  11.114  0.2447  0.1285  0.1445
  442loPI   GL1 7061  13.793   9.438  10.790  0.1219  0.0877 -0.1238
  442loPI   GL2 7062  13.612   9.190  10.650  0.0460 -0.1280  0.0941
  442loPI   C1A 7063  13.861   9.644  10.434  0.1067  0.1897 -0.0625
  442loPI   C2A 7064  13.918   9.611  10.038 -0.0085 -0.1063  0.2382
  442loPI   C3A 7065  13.841   9.587   9.661 -0.0000 -0.1055  0.0622
  442loPI   C4A 7066  13.792   9.534   9.180 -0.1806  0.1625 -0.2141
  442loPI   C5A 7067  13.903   9.720   8.765 -0.0787 -0.2770 -0.1421
  442loPI   C6A 7068  13.684  10.004   8.556 -0.0907 -0.1557  0.0441
  442loPI   C1B 7069  13.597   9.253  10.176  0.0529 -0.1491  0.3554
  442loPI   C2B 7070  13.523   9.182   9.740 -0.2330  0.0873 -0.2297
  442loPI   C3B 7071  13.562   9.118   9.234 -0.1163  0.0823 -0.0424
  442loPI   C4B 7072  13.442   8.937   8.882 -0.0523  0.2220 -0.1434
  443loPI    C1 7073   5.380   3.745  11.636 -0.0364 -0.1637  0.0292
  443loPI    C2 7074   5.716   3.691  11.847 -0.0268  0.0482  0.0702
  443loPI    C3 7075   5.369   3.754  12.035 -0.1461 -0.4601  0.0354
  443loPI   PO4 7076   5.452   3.900  11.494 -0.0454 -0.4624 -0.0367
  443loPI   GL1 7077   5.584   3.846  11.054 -0.1977  0.3079 -0.2699
  443loPI   GL2 7078   5.240   4.041  11.085 -0.3193 -0.1667 -0.0699
  443loPI   C1A 7079   5.669   3.786  10.523  0.0139  0.1579 -0.0222
  443loPI   C2A 7080   5.692   3.718  10.068  0.1962  0.2264 -0.1909
  443loPI   C3A 7081   5.623   3.751   9.560 -0.1165 -0.0587  0.1760
  443loPI   C4A 7082   5.547   3.757   9.064 -0.0781 -0.1486  0.3124
  443loPI   C5A 7083   5.339   3.674   8.680  0.1619  0.2128  0.0230
  443loPI   C6A 7084   5.176   3.980   8.488  0.1113  0.0459  0.1301
  443loPI   C1B 7085   5.196   3.943  10.731  0.0065  0.1302  0.1899
  443loPI   C2B 7086   5.090   3.815  10.333 -0.0236  0.0900 -0.0394
  443loPI   C3B 7087   5.121   3.764   9.886 -0.1502  0.0024 -0.1526
  443loPI   C4B 7088   5.138   3.889   9.420 -0.0469 -0.0305 -0.1244
  444loPI    C1 7089   8.656   5.859  11.684 -0.1099 -0.1663  0.1246
  444loPI    C2 7090   8.376   6.004  11.931  0.1854  0.4191  0.1336
  444loPI    C3 7091   8.653   5.751  12.069 -0.1756  0.0420  0.1841
  444loPI   PO4 7092   8.499   5.941  11.446 -0.0732 -0.0521  0.1788
  444loPI   GL1 7093   8.534   5.788  10.991 -0.0396 -0.0301  0.0134
  444loPI   GL2 7094   8.516   5.463  11.077  0.1769  0.1960  0.2497
  444loPI   C1A 7095   8.706   5.730  10.617 -0.0068 -0.0357  0.0190
  444loPI   C2A 7096   8.764   5.629  10.118  0.1510  0.0508 -0.3092
  444loPI   C3A 7097   8.713   5.770   9.708 -0.1259 -0.2084 -0.0628
  444loPI   C4A 7098   8.685   5.685   9.311  0.0499  0.1098  0.2562
  444loPI   C5A 7099   8.719   5.876   8.984  0.0897 -0.0115  0.2133
  444loPI   C6A 7100   8.612   6.279   8.833  0.1341 -0.2288  0.0669
  444loPI   C1B 7101   8.407   5.374  10.726 -0.0727  0.1295  0.0338
  444loPI   C2B 7102   8.479   5.281  10.306  0.2128  0.0491  0.1375
  444loPI   C3B 7103   8.414   5.295   9.810  0.0645  0.0723 -0.0548
  444loPI   C4B 7104   8.376   5.338   9.370  0.0661 -0.1608  0.1150
  445loPI    C1 7105  13.391   7.204  11.475  0.3385 -0.0774  0.0475
  445loPI    C2 7106  13.329   7.105  11.858 -0.0500 -0.3229 -0.0731
  445loPI    C3 7107  13.045   7.299  11.652  0.1652 -0.1729 -0.2331
  445loPI   PO4 7108  13.474   7.042  11.333  0.1353  0.0303 -0.2792
  445loPI   GL1 7109  13.453   6.904  10.914  0.2733  0.2131  0.3021
  445loPI   GL2 7110  13.603   6.918  10.664 -0.0577 -0.4302 -0.0408
  445loPI   C1A 7111  13.104   7.005  10.568  0.1559 -0.0547 -0.0273
  445loPI   C2A 7112  13.031   6.976  10.128  0.0772  0.0932  0.0791
  445loPI   C3A 7113  12.974   7.019   9.708 -0.2015  0.2930  0.1275
  445loPI   C4A 7114  12.941   7.019   9.272 -0.0883  0.3380  0.0362
  445loPI   C5A 7115  13.041   6.857   8.842 -0.2144  0.2532 -0.1685
  445loPI   C6A 7116  13.331   7.029   8.530  0.1259 -0.1324 -0.2193
  445loPI   C1B 7117  13.524   6.903  10.268 -0.1987 -0.0495  0.1898
  445loPI   C2B 7118  13.522   6.901   9.885 -0.0633  0.1658 -0.5241
  445loPI   C3B 7119  13.497   6.938   9.482 -0.0663 -0.0394  0.3254
  445loPI   C4B 7120  13.540   6.841   9.025  0.2253  0.2309 -0.0066
  446loPI    C1 7121   2.723   9.953  11.281  0.1664 -0.1976 -0.0331
  446loPI    C2 7122   2.733   9.879  11.674  0.1815 -0.2105 -0.0360
  446loPI    C3 7123   2.472   9.685  11.441  0.0237 -0.0448  0.0012
  446loPI   PO4 7124   2.926   9.935  11.159  0.5297  0.2401  0.1622
  446loPI   GL1 7125   2.933  10.161  10.869 -0.5569 -0.1801 -0.0134
  446loPI   GL2 7126   2.649  10.138  10.794  0.2010 -0.2320 -0.1730
  446loPI   C1A 7127   3.097  10.104  10.417  0.1408 -0.1905  0.2773
  446loPI   C2A 7128   3.164   9.916   9.986  0.0812  0.4113  0.0475
  446loPI   C3A 7129   3.162  10.002   9.524 -0.3324  0.0193 -0.2241
  446loPI   C4A 7130   3.279  10.084   9.122  0.2097 -0.0797 -0.1836
  446loPI   C5A 7131   3.286  10.068   8.651  0.0476  0.1686 -0.0102
  446loPI   C6A 7132   3.450   9.706   8.404 -0.0615 -0.1198  0.0302
  446loPI   C1B 7133   2.562  10.084  10.364  0.0960 -0.2421 -0.0377
  446loPI   C2B 7134   2.636  10.015   9.923  0.2273  0.0133 -0.0456
  446loPI   C3B 7135   2.686  10.044   9.490 -0.2711  0.4499  0.0658
  446loPI   C4B 7136   2.728  10.072   9.047  0.0205 -0.2053 -0.1127
  447loPI    C1 7137   6.281   5.512  11.393 -0.1021 -0.0166 -0.0852
  447loPI    C2 7138   6.207   5.730  11.720 -0.0774  0.1380 -0.1819
  447loPI    C3 7139   6.019   5.381  11.666 -0.2203  0.2005 -0.0932
  447loPI   PO4 7140   6.228   5.718  11.125  0.1372 -0.2796  0.0041
  447loPI   GL1 7141   6.548   5.709  10.727 -0.1220 -0.0353 -0.2329
  447loPI   GL2 7142   6.377   5.391  10.630  0.0640  0.0323  0.0777
  447loPI   C1A 7143   6.697   5.929  10.399  0.3063 -0.0799 -0.0387
  447loPI   C2A 7144   6.777   5.887   9.997 -0.1283  0.0152  0.0321
  447loPI   C3A 7145   6.680   5.985   9.499  0.0467 -0.0009  0.1546
  447loPI   C4A 7146   6.765   5.918   9.093 -0.1788  0.2888  0.0214
  447loPI   C5A 7147   6.762   5.929   8.648 -0.3111 -0.0625 -0.0320
  447loPI   C6A 7148   6.422   5.750   8.338 -0.3516 -0.0024 -0.1771
  447loPI   C1B 7149   6.394   5.547  10.227  0.3548  0.0111 -0.1639
  447loPI   C2B 7150   6.436   5.539   9.816 -0.2270 -0.1550  0.2099
  447loPI   C3B 7151   6.420   5.587   9.410 -0.0100  0.0675 -0.2931
  447loPI   C4B 7152   6.393   5.489   8.968  0.0876 -0.1423 -0.2783
  448loPI    C1 7153   3.222   0.085  11.736 -0.0199  0.1900  0.2872
  448loPI    C2 7154   3.375  -0.086  12.064  0.0784  0.2852  0.2917
  448loPI    C3 7155   3.106   0.208  12.099 -0.1934  0.0428  0.2833
  448loPI   PO4 7156   3.295  -0.036  11.569 -0.3182  0.0490  0.2734
  448loPI   GL1 7157   3.372  -0.010  11.139 -0.0902 -0.0790 -0.3218
  448loPI   GL2 7158   3.429   0.246  11.138 -0.2111 -0.1086 -0.1584
  448loPI   C1A 7159   3.364  -0.020  10.715  0.2550  0.1584 -0.1980
  448loPI   C2A 7160   3.319  -0.054  10.333 -0.0765  0.2455 -0.4017
  448loPI   C3A 7161   3.355   0.016   9.927 -0.4621 -0.3106 -0.1369
  448loPI   C4A 7162   3.401   0.016   9.541  0.0490 -0.2707 -0.2399
  448loPI   C5A 7163   3.412   0.034   9.167 -0.0187  0.2263  0.1403
  448loPI   C6A 7164   3.457  -0.053   8.783 -0.4326 -0.1263  0.1554
  448loPI   C1B 7165   3.656   0.366  10.818  0.2938  0.0224 -0.0174
  448loPI   C2B 7166   3.678   0.334  10.360 -0.0404 -0.0507 -0.1890
  448loPI   C3B 7167   3.647   0.468   9.912 -0.0290  0.1040 -0.1701
  448loPI   C4B 7168   3.687   0.429   9.454 -0.0288  0.2836  0.1699
  449loPI    C1 7169  14.693  15.006  11.672  0.1434 -0.0279  0.2658
  449loPI    C2 7170  14.316  14.966  11.799  0.0728 -0.0926  0.0405
  449loPI    C3 7171  14.617  14.814  12.014 -0.0211  0.0319  0.2636
  449loPI   PO4 7172  14.686  15.004  11.436 -0.0079  0.1847 -0.0461
  449loPI   GL1 7173  14.773  14.839  11.119  0.1796 -0.0102  0.1457
  449loPI   GL2 7174  14.576  15.044  10.947  0.3856 -0.0821  0.0350
  449loPI   C1A 7175  14.751  14.682  10.654  0.0420 -0.0897 -0.1366
  449loPI   C2A 7176  14.699  14.554  10.269 -0.1986  0.0382  0.0537
  449loPI   C3A 7177  14.800  14.448   9.848  0.2564 -0.1977 -0.0867
  449loPI   C4A 7178  14.780  14.397   9.354 -0.1308  0.3875 -0.3082
  449loPI   C5A 7179  14.743  14.195   8.924  0.2339 -0.0800  0.0866
  449loPI   C6A 7180  14.428  14.123   8.697 -0.1312 -0.0985  0.0384
  449loPI   C1B 7181  14.522  15.086  10.571  0.1334 -0.1247  0.1887
  449loPI   C2B 7182  14.603  15.016  10.054 -0.0824 -0.0631  0.2998
  449loPI   C3B 7183  14.500  14.926   9.663 -0.0619  0.0362  0.1768
  449loPI   C4B 7184  14.545  14.817   9.286 -0.0641 -0.2065  0.0373
  450loPI    C1 7185   2.990   6.623  11.559  0.2456 -0.0711 -0.1957
  450loPI    C2 7186   2.733   6.915  11.653  0.0998 -0.1289 -0.4072
  450loPI    C3 7187   2.731   6.573  11.860  0.2468  0.0041 -0.1823
  450loPI   PO4 7188   2.955   6.636  11.281 -0.3049  0.0664 -0.0362
  450loPI   GL1 7189   3.283   6.530  10.966 -0.1098  0.1963 -0.1649
  450loPI   GL2 7190   3.361   6.880  11.105 -0.2152  0.2630 -0.3759
  450loPI   C1A 7191   3.192   6.386  10.499  0.2605  0.2794  0.0533
  450loPI   C2A 7192   3.269   6.416  10.069  0.0707  0.0910 -0.2153
  450loPI   C3A 7193   3.161   6.451   9.650 -0.0708  0.1346 -0.0272
  450loPI   C4A 7194   3.154   6.433   9.205 -0.0038 -0.4430  0.0428
  450loPI   C5A 7195   2.840   6.536   8.983  0.0507 -0.2307  0.1993
  450loPI   C6A 7196   2.934   6.767   8.730  0.0627 -0.0166  0.3187
  450loPI   C1B 7197   3.564   6.906  10.736  0.1178  0.1602  0.2180
  450loPI   C2B 7198   3.573   6.857  10.295  0.3814  0.0029 -0.2821
  450loPI   C3B 7199   3.576   6.795   9.914 -0.0658 -0.2295 -0.0242
  450loPI   C4B 7200   3.447   6.793   9.443  0.2247  0.0057  0.1530
  451loPI    C1 7201   0.529  14.020  11.834  0.1459  0.0309 -0.0417
  451loPI    C2 7202   0.522  13.833  12.187  0.1720  0.0885 -0.0103
  451loPI    C3 7203   0.848  14.035  12.075  0.0028  0.4496  0.1321
  451loPI   PO4 7204   0.486  13.851  11.690 -0.1061 -0.1321 -0.1877
  451loPI   GL1 7205   0.526  13.765  11.263 -0.0926 -0.2184 -0.0008
  451loPI   GL2 7206   0.306  13.488  11.150 -0.1710  0.1599 -0.1228
  451loPI   C1A 7207   0.680  13.684  10.871  0.0887  0.1532  0.1573
  451loPI   C2A 7208   0.736  13.599  10.385  0.1241 -0.2412 -0.0653
  451loPI   C3A 7209   0.728  13.524  10.031  0.1948  0.0170 -0.0435
  451loPI   C4A 7210   0.716  13.513   9.610  0.0737 -0.1001  0.0894
  451loPI   C5A 7211   0.770  13.481   9.155 -0.0538  0.2004 -0.3671
  451loPI   C6A 7212   0.627  13.465   8.727 -0.2863  0.0559  0.2187
  451loPI   C1B 7213   0.232  13.702  10.674 -0.0844 -0.0462 -0.1792
  451loPI   C2B 7214   0.242  13.651  10.260 -0.1998  0.0729 -0.3213
  451loPI   C3B 7215   0.277  13.551   9.820  0.0523  0.1768 -0.1373
  451loPI   C4B 7216   0.259  13.618   9.353  0.1042 -0.0256 -0.2877
  452loPI    C1 7217   7.021  16.065  11.403  0.1147 -0.2242  0.0680
  452loPI    C2 7218   7.047  16.189  11.783 -0.1002 -0.1456  0.0585
  452loPI    C3 7219   6.689  16.153  11.608  0.0098  0.0556 -0.2149
  452loPI   PO4 7220   7.245  16.237  11.307 -0.0173  0.1551  0.1171
  452loPI   GL1 7221   7.215  16.502  10.966 -0.2921 -0.0645  0.1643
  452loPI   GL2 7222   7.026  16.798  11.041  0.0202  0.4334  0.0719
  452loPI   C1A 7223   7.284  16.256  10.671 -0.1993  0.0240 -0.0566
  452loPI   C2A 7224   7.265  16.336  10.293 -0.3870  0.2658  0.2559
  452loPI   C3A 7225   7.317  16.246   9.911  0.0765  0.1115 -0.2158
  452loPI   C4A 7226   7.339  16.322   9.438 -0.2356 -0.1019 -0.1900
  452loPI   C5A 7227   7.299  16.419   9.045  0.4036  0.0081  0.1626
  452loPI   C6A 7228   7.289  16.377   8.607  0.2482 -0.2709 -0.2346
  452loPI   C1B 7229   7.025  16.796  10.612  0.2328 -0.1398 -0.0409
  452loPI   C2B 7230   7.066  16.791  10.219  0.1829 -0.0419  0.2218
  452loPI   C3B 7231   7.131  16.823   9.879 -0.0524  0.0448 -0.3057
  452loPI   C4B 7232   7.110  16.737   9.392 -0.1858  0.2299  0.4043
  453loPI    C1 7233   9.960  11.528  11.518 -0.0298 -0.1832  0.1762
  453loPI    C2 7234   9.705  11.271  11.689  0.0880 -0.2922  0.1899
  453loPI    C3 7235   9.852  11.578  11.900 -0.3476  0.0126  0.0648
  453loPI   PO4 7236   9.858  11.658  11.319 -0.1820 -0.0161  0.5529
  453loPI   GL1 7237   9.781  11.806  10.859  0.2666  0.2306  0.3456
  453loPI   GL2 7238   9.592  11.531  10.773 -0.0203  0.0740 -0.1771
  453loPI   C1A 7239  10.033  11.943  10.495  0.2101 -0.0669  0.3686
  453loPI   C2A 7240  10.044  11.876  10.105 -0.0236  0.2055  0.0004
  453loPI   C3A 7241  10.051  11.884   9.721  0.0432 -0.0571  0.1728
  453loPI   C4A 7242  10.025  11.972   9.287  0.2998  0.0896 -0.1905
  453loPI   C5A 7243  10.077  12.139   8.968 -0.2247  0.2677 -0.1345
  453loPI   C6A 7244  10.258  11.949   8.644  0.1179 -0.0297 -0.1705
  453loPI   C1B 7245   9.682  11.505  10.335 -0.1028  0.3100 -0.2279
  453loPI   C2B 7246   9.778  11.495   9.929  0.0665  0.0311 -0.3472
  453loPI   C3B 7247   9.806  11.421   9.606 -0.1265  0.0976 -0.1187
  453loPI   C4B 7248   9.798  11.523   9.279  0.2212 -0.0578 -0.1235
  454loPI    C1 7249   6.039  10.024  11.857 -0.0518 -0.0386  0.0337
  454loPI    C2 7250   6.304   9.841  12.093  0.0119  0.1065  0.0759
  454loPI    C3 7251   6.204  10.222  12.163 -0.1109  0.0921 -0.0179
  454loPI   PO4 7252   6.025   9.914  11.594  0.2296  0.1011  0.0691
  454loPI   GL1 7253   5.942   9.561  11.259  0.4915 -0.0916 -0.2703
  454loPI   GL2 7254   6.120   9.745  11.134  0.2331  0.2442 -0.0082
  454loPI   C1A 7255   5.918   9.287  10.941  0.1214  0.0953 -0.1995
  454loPI   C2A 7256   5.920   9.332  10.487  0.0078 -0.0630  0.0747
  454loPI   C3A 7257   5.778   9.294  10.083 -0.1665  0.0911 -0.1123
  454loPI   C4A 7258   5.752   9.197   9.725 -0.1859  0.1344 -0.2547
  454loPI   C5A 7259   5.737   9.275   9.308 -0.0127  0.1969  0.0897
  454loPI   C6A 7260   5.716   9.516   8.946  0.0099 -0.1587  0.1479
  454loPI   C1B 7261   6.256   9.739  10.680  0.1273  0.0275 -0.0089
  454loPI   C2B 7262   6.192   9.670  10.212 -0.0160 -0.0072 -0.3301
  454loPI   C3B 7263   6.115   9.678   9.791  0.0450 -0.1335  0.2102
  454loPI   C4B 7264   6.085   9.631   9.310  0.3659 -0.0626  0.1858
  455loPI    C1 7265   5.983  15.884  11.755 -0.0786 -0.1661 -0.1508
  455loPI    C2 7266   6.310  15.753  11.566  0.0255 -0.0030 -0.0858
  455loPI    C3 7267   6.239  15.641  11.943 -0.1129 -0.2206 -0.1747
  455loPI   PO4 7268   5.791  15.920  11.545 -0.3128 -0.0635  0.0607
  455loPI   GL1 7269   5.721  16.044  11.122  0.0237 -0.1266 -0.0917
  455loPI   GL2 7270   6.002  16.044  10.901 -0.4240  0.1336  0.1698
  455loPI   C1A 7271   5.473  16.047  10.671  0.0038  0.0046  0.0912
  455loPI   C2A 7272   5.409  16.106  10.272  0.2553  0.0210 -0.1105
  455loPI   C3A 7273   5.453  16.108   9.782  0.0663  0.0152 -0.0157
  455loPI   C4A 7274   5.459  16.139   9.343  0.1543  0.0279 -0.1609
  455loPI   C5A 7275   5.574  16.078   8.935  0.0906 -0.0732 -0.1333
  455loPI   C6A 7276   5.429  15.979   8.535 -0.0110 -0.1978  0.0711
  455loPI   C1B 7277   5.957  16.006  10.440 -0.0618 -0.1407  0.1933
  455loPI   C2B 7278   5.922  16.028  10.000 -0.1064 -0.1340 -0.0754
  455loPI   C3B 7279   6.044  16.030   9.556  0.0243 -0.0959  0.1120
  455loPI   C4B 7280   6.093  15.994   9.092 -0.0933 -0.1320 -0.1901
  456loPI    C1 7281   1.679  10.899  11.485 -0.0867  0.2166  0.1776
  456loPI    C2 7282   1.683  11.032  11.863  0.1023 -0.0200  0.2610
  456loPI    C3 7283   1.554  10.662  11.782  0.1247  0.0064  0.1010
  456loPI   PO4 7284   1.937  10.943  11.397  0.0789 -0.2719 -0.1752
  456loPI   GL1 7285   2.069  10.942  11.011 -0.3185  0.2783  0.1298
  456loPI   GL2 7286   1.983  10.689  10.852 -0.2625 -0.1090 -0.0775
  456loPI   C1A 7287   2.170  11.146  10.628 -0.0455 -0.1460  0.0445
  456loPI   C2A 7288   2.243  11.034  10.140  0.1517 -0.0246  0.0220
  456loPI   C3A 7289   2.248  11.065   9.789  0.3114  0.2103  0.0256
  456loPI   C4A 7290   2.267  11.105   9.348 -0.1033  0.2391 -0.0218
  456loPI   C5A 7291   2.209  11.020   8.912 -0.0933  0.0170  0.0947
  456loPI   C6A 7292   2.123  10.688   8.650  0.0538  0.0613  0.0551
  456loPI   C1B 7293   1.823  10.675  10.457 -0.1055  0.2335  0.0021
  456loPI   C2B 7294   1.844  10.687  10.029 -0.1791  0.2616  0.0702
  456loPI   C3B 7295   1.995  10.655   9.668  0.0665 -0.1334 -0.0935
  456loPI   C4B 7296   2.012  10.700   9.271  0.0858  0.3111  0.0594
  457loPI    C1 7297  17.390   0.956  11.276  0.2298  0.0761 -0.1872
  457loPI    C2 7298  17.423   1.123  11.638  0.0550  0.0182 -0.1435
  457loPI    C3 7299  17.365   1.353  11.316 -0.0510  0.0524 -0.1007
  457loPI   PO4 7300  17.575   0.819  11.187 -0.2335 -0.4367  0.3196
  457loPI   GL1 7301  17.651   0.486  11.023  0.0012 -0.1242  0.0231
  457loPI   GL2 7302  17.912   0.341  11.155 -0.1410 -0.0619  0.0628
  457loPI   C1A 7303  17.569   0.498  10.616  0.0663 -0.0089 -0.0232
  457loPI   C2A 7304  17.521   0.480  10.106 -0.0621 -0.1047  0.0303
  457loPI   C3A 7305  17.519   0.450   9.663 -0.0725  0.0335  0.1528
  457loPI   C4A 7306  17.466   0.445   9.296  0.2456  0.1054  0.0811
  457loPI   C5A 7307  17.532   0.678   8.905 -0.0804 -0.0967 -0.1146
  457loPI   C6A 7308  17.596   0.609   8.451  0.1132 -0.0435 -0.1116
  457loPI   C1B 7309  18.082   0.459  10.762  0.2329  0.0461  0.0484
  457loPI   C2B 7310  18.063   0.453  10.315  0.0060 -0.0268 -0.2799
  457loPI   C3B 7311  18.026   0.453   9.886  0.1337 -0.0391 -0.4884
  457loPI   C4B 7312  17.989   0.375   9.399  0.0263  0.0868 -0.0183
  458loPI    C1 7313   9.404   0.702  11.674 -0.0948  0.2945 -0.0433
  458loPI    C2 7314   9.241   0.421  11.907 -0.0534  0.3117  0.0067
  458loPI    C3 7315   9.468   0.707  12.069  0.3103  0.0902 -0.1010
  458loPI   PO4 7316   9.570   0.668  11.471  0.1284  0.1215  0.1512
  458loPI   GL1 7317   9.618   0.689  11.051 -0.0135  0.3505 -0.0547
  458loPI   GL2 7318   9.970   0.669  10.914 -0.1077 -0.1383 -0.1437
  458loPI   C1A 7319   9.329   0.583  10.601  0.1162 -0.0201  0.0071
  458loPI   C2A 7320   9.317   0.618  10.198 -0.0309 -0.3313  0.0752
  458loPI   C3A 7321   9.239   0.690   9.786  0.0631 -0.0880 -0.0671
  458loPI   C4A 7322   9.220   0.642   9.303 -0.2990 -0.1892  0.0089
  458loPI   C5A 7323   9.323   0.523   8.892 -0.1008  0.2986 -0.0696
  458loPI   C6A 7324   9.405   0.250   8.470 -0.0385  0.0127  0.0878
  458loPI   C1B 7325   9.826   0.598  10.543  0.0582 -0.2404  0.1065
  458loPI   C2B 7326   9.754   0.564  10.109 -0.0033  0.0713 -0.0545
  458loPI   C3B 7327   9.810   0.592   9.606  0.0350 -0.0512  0.0914
  458loPI   C4B 7328   9.729   0.546   9.202  0.1127  0.0485 -0.0509
  459loPI    C1 7329   8.065  13.116  11.496 -0.2979 -0.0572 -0.1246
  459loPI    C2 7330   8.213  12.770  11.630 -0.1829  0.0214 -0.0469
  459loPI    C3 7331   7.923  12.956  11.834  0.0248  0.1649  0.1219
  459loPI   PO4 7332   8.076  13.035  11.239  0.1740  0.0635  0.1296
  459loPI   GL1 7333   7.790  12.784  10.871  0.0880  0.0027 -0.2522
  459loPI   GL2 7334   7.741  13.094  10.843 -0.0623 -0.1842 -0.4112
  459loPI   C1A 7335   7.910  12.587  10.487  0.1248  0.1708 -0.1640
  459loPI   C2A 7336   7.798  12.606  10.107 -0.0596  0.1330 -0.1836
  459loPI   C3A 7337   7.858  12.521   9.682 -0.0877 -0.3241  0.1873
  459loPI   C4A 7338   7.822  12.550   9.357  0.3161  0.1749 -0.0512
  459loPI   C5A 7339   7.805  12.549   8.958  0.0786 -0.1832  0.1787
  459loPI   C6A 7340   7.727  12.745   8.579  0.1706 -0.4040 -0.1212
  459loPI   C1B 7341   7.727  13.048  10.404  0.4674 -0.1346  0.0175
  459loPI   C2B 7342   7.633  13.123  10.005  0.1498 -0.0347 -0.2789
  459loPI   C3B 7343   7.687  13.113   9.552  0.0206 -0.2999 -0.1135
  459loPI   C4B 7344   7.579  13.026   9.070  0.0446 -0.0606  0.0783
  460loPI    C1 7345   6.807   7.650  11.491 -0.1408  0.0742 -0.3483
  460loPI    C2 7346   6.922   7.277  11.575 -0.0470  0.1581 -0.0929
  460loPI    C3 7347   6.920   7.554  11.863 -0.4551  0.2702 -0.1976
  460loPI   PO4 7348   6.911   7.658  11.257 -0.2490  0.1306 -0.0299
  460loPI   GL1 7349   7.036   7.678  10.936 -0.0637  0.2055  0.2295
  460loPI   GL2 7350   7.330   7.890  11.019 -0.1087 -0.0062  0.2212
  460loPI   C1A 7351   7.040   7.645  10.581  0.1735  0.0756 -0.0161
  460loPI   C2A 7352   6.998   7.730  10.151  0.1229  0.2297  0.0159
  460loPI   C3A 7353   6.949   7.639   9.714  0.1281 -0.0439 -0.1560
  460loPI   C4A 7354   6.910   7.779   9.338  0.2537 -0.0970  0.2103
  460loPI   C5A 7355   6.893   7.776   8.826 -0.4307  0.0058  0.1327
  460loPI   C6A 7356   6.832   7.744   8.393 -0.0104 -0.0002 -0.1979
  460loPI   C1B 7357   7.309   8.089  10.723 -0.0990 -0.1194 -0.1293
  460loPI   C2B 7358   7.249   8.174  10.286  0.2239 -0.1120 -0.0657
  460loPI   C3B 7359   7.221   8.073   9.885 -0.0723  0.1862  0.2159
  460loPI   C4B 7360   7.241   8.222   9.422  0.1980 -0.0812  0.0250
  461loPI    C1 7361   6.484   6.919  11.484 -0.0658 -0.2255 -0.0774
  461loPI    C2 7362   6.573   6.991  11.867  0.1489 -0.0410 -0.1600
  461loPI    C3 7363   6.208   6.860  11.768 -0.0149  0.2279  0.0732
  461loPI   PO4 7364   6.545   7.077  11.343 -0.2844 -0.0071  0.2701
  461loPI   GL1 7365   6.822   7.179  11.075 -0.0177 -0.2426 -0.0292
  461loPI   GL2 7366   6.649   7.218  10.840 -0.2625 -0.1162  0.1814
  461loPI   C1A 7367   7.140   7.189  10.658  0.0493 -0.1729  0.0949
  461loPI   C2A 7368   7.105   7.249  10.234 -0.0977 -0.0845  0.0928
  461loPI   C3A 7369   7.152   7.187   9.856 -0.0558  0.0037 -0.1320
  461loPI   C4A 7370   7.126   7.256   9.444 -0.0635  0.1431  0.2019
  461loPI   C5A 7371   7.098   7.302   8.992  0.0036 -0.0923 -0.0087
  461loPI   C6A 7372   6.895   7.266   8.596  0.1877  0.0499 -0.1902
  461loPI   C1B 7373   6.615   7.275  10.438  0.2022 -0.3291 -0.2692
  461loPI   C2B 7374   6.577   7.274  10.024 -0.0076  0.1055  0.0457
  461loPI   C3B 7375   6.643   7.277   9.650 -0.0713  0.4326 -0.0589
  461loPI   C4B 7376   6.605   7.367   9.165  0.2456 -0.0467 -0.2397
  462loPI    C1 7377  12.235  14.501  11.655 -0.1298 -0.1102 -0.1246
  462loPI    C2 7378  12.365  14.656  12.000  0.0440  0.0801 -0.2733
  462loPI    C3 7379  12.082  14.374  12.002  0.1057  0.0168  0.0290
  462loPI   PO4 7380  12.431  14.323  11.495  0.0430 -0.1423 -0.0023
  462loPI   GL1 7381  12.360  14.352  10.935  0.2040 -0.1049  0.0877
  462loPI   GL2 7382  12.596  14.321  11.007  0.0750  0.0870 -0.1752
  462loPI   C1A 7383  12.382  14.377  10.372  0.1344  0.0170  0.0075
  462loPI   C2A 7384  12.459  14.352   9.887 -0.3819  0.0030 -0.3736
  462loPI   C3A 7385  12.448  14.258   9.535 -0.1538 -0.1102  0.1946
  462loPI   C4A 7386  12.554  14.127   8.988 -0.1680 -0.0081  0.0367
  462loPI   C5A 7387  12.945  14.096   8.801  0.0291  0.2757  0.0015
  462loPI   C6A 7388  13.395  14.085   8.795  0.0961 -0.0398  0.2884
  462loPI   C1B 7389  12.898  14.365  10.669 -0.0829 -0.0511 -0.2209
  462loPI   C2B 7390  12.991  14.300  10.195  0.4697  0.1617 -0.2300
  462loPI   C3B 7391  12.995  14.283   9.779 -0.2501 -0.0904 -0.2498
  462loPI   C4B 7392  12.882  14.218   9.361 -0.2621  0.2232  0.0911
  463loPI    C1 7393   4.731  10.267  11.631 -0.0765 -0.1184  0.0763
  463loPI    C2 7394   5.066  10.404  11.802 -0.1432  0.1491 -0.0029
  463loPI    C3 7395   4.824  10.158  12.005  0.0745 -0.0054  0.0724
  463loPI   PO4 7396   4.786  10.217  11.439  0.0669 -0.3969 -0.5665
  463loPI   GL1 7397   4.911  10.352  11.062  0.1606 -0.0879  0.1091
  463loPI   GL2 7398   5.081  10.628  10.945  0.0906  0.1121  0.0662
  463loPI   C1A 7399   5.003  10.245  10.512 -0.3078 -0.1307 -0.2056
  463loPI   C2A 7400   4.911  10.290  10.097 -0.0802  0.1102  0.3919
  463loPI   C3A 7401   4.909  10.285   9.669  0.2402 -0.1087  0.0005
  463loPI   C4A 7402   4.884  10.321   9.219 -0.0892 -0.4736 -0.0927
  463loPI   C5A 7403   4.736   9.993   8.987  0.0891 -0.3388  0.0384
  463loPI   C6A 7404   4.716   9.543   8.769  0.2824 -0.1634 -0.1988
  463loPI   C1B 7405   5.205  10.669  10.551 -0.0120 -0.0318  0.3327
  463loPI   C2B 7406   5.303  10.685  10.217 -0.0859 -0.0336 -0.1471
  463loPI   C3B 7407   5.287  10.664   9.783 -0.0851 -0.2617  0.0094
  463loPI   C4B 7408   5.229  10.632   9.359 -0.2504 -0.3903  0.0303
  464loPI    C1 7409   2.012   0.820  11.838  0.0034  0.1032 -0.2451
  464loPI    C2 7410   2.411   0.811  11.867  0.0108  0.1428 -0.3297
  464loPI    C3 7411   2.193   0.987  12.153  0.0500  0.0629 -0.2505
  464loPI   PO4 7412   1.985   0.767  11.464 -0.1927 -0.1322 -0.0042
  464loPI   GL1 7413   2.158   0.633  11.006 -0.2324 -0.1251  0.0433
  464loPI   GL2 7414   2.163   0.897  10.996  0.0365  0.2985 -0.1555
  464loPI   C1A 7415   2.205   0.626  10.518  0.0629 -0.1206 -0.1180
  464loPI   C2A 7416   2.173   0.703  10.045  0.0271  0.0522 -0.1412
  464loPI   C3A 7417   2.209   0.727   9.674  0.1549  0.1399 -0.0890
  464loPI   C4A 7418   2.208   0.698   9.317 -0.1544  0.0214  0.1216
  464loPI   C5A 7419   2.192   0.690   8.861 -0.2366  0.1130  0.1334
  464loPI   C6A 7420   2.292   0.407   8.499  0.0060 -0.0098  0.0057
  464loPI   C1B 7421   1.937   1.093  10.707  0.0405  0.0968 -0.2591
  464loPI   C2B 7422   2.045   1.092  10.312  0.4204 -0.0268 -0.2313
  464loPI   C3B 7423   2.040   1.174   9.865  0.3152  0.0187 -0.2651
  464loPI   C4B 7424   2.044   1.119   9.400 -0.0091  0.3350 -0.2572
  465loPI    C1 7425   8.670  10.615  11.266 -0.1623 -0.0047 -0.0938
  465loPI    C2 7426   8.667  10.990  11.127 -0.3925 -0.0602 -0.2435
  465loPI    C3 7427   8.658  10.923  11.521  0.0028  0.0943 -0.2033
  465loPI   PO4 7428   8.884  10.500  11.104 -0.1364 -0.2890 -0.1831
  465loPI   GL1 7429   8.821  10.377  10.711 -0.0755 -0.0624 -0.1447
  465loPI   GL2 7430   8.791  10.666  10.634 -0.0279 -0.0557 -0.2245
  465loPI   C1A 7431   8.862  10.213  10.299 -0.2024  0.1478  0.2463
  465loPI   C2A 7432   8.880  10.225   9.867 -0.2424  0.0868 -0.0130
  465loPI   C3A 7433   8.830  10.200   9.427  0.0604 -0.1916  0.4809
  465loPI   C4A 7434   8.803  10.230   8.906 -0.0266  0.2409  0.3498
  465loPI   C5A 7435   9.038  10.317   8.387  0.1601 -0.1389  0.0803
  465loPI   C6A 7436   9.350  10.361   8.045  0.0709  0.1196 -0.2678
  465loPI   C1B 7437   8.716  10.670  10.228 -0.5734 -0.0741 -0.0438
  465loPI   C2B 7438   8.640  10.703   9.777 -0.2800  0.0081 -0.0128
  465loPI   C3B 7439   8.610  10.657   9.246  0.2415  0.1952  0.0487
  465loPI   C4B 7440   8.713  10.805   8.818 -0.0392  0.1449  0.2432
  466loPI    C1 7441  14.604  -0.104  11.745  0.0374  0.0024 -0.1321
  466loPI    C2 7442  14.692   0.272  11.850  0.1021 -0.0110 -0.1377
  466loPI    C3 7443  14.746  -0.026  12.111 -0.1400  0.0079 -0.0639
  466loPI   PO4 7444  14.585  -0.078  11.508  0.2013  0.0374  0.2089
  466loPI   GL1 7445  14.461   0.056  11.090  0.1212 -0.3813  0.1138
  466loPI   GL2 7446  14.470   0.203  10.904  0.0895  0.1864 -0.2278
  466loPI   C1A 7447  14.628  -0.248  10.832 -0.2797  0.0136  0.0252
  466loPI   C2A 7448  14.539  -0.407  10.405 -0.0747  0.2998 -0.0014
  466loPI   C3A 7449  14.584  -0.472   9.937 -0.2325  0.0081  0.0848
  466loPI   C4A 7450  14.539  -0.556   9.608 -0.2050 -0.0855  0.0050
  466loPI   C5A 7451  14.551  -0.663   9.108  0.0065  0.0835 -0.1897
  466loPI   C6A 7452  14.344  -0.495   8.817  0.1624 -0.2630  0.0244
  466loPI   C1B 7453  14.509   0.135  10.427 -0.1983  0.1647 -0.1164
  466loPI   C2B 7454  14.380   0.036  10.084 -0.1949  0.1204 -0.1241
  466loPI   C3B 7455  14.378  -0.078   9.702 -0.0390  0.0648 -0.1530
  466loPI   C4B 7456  14.352  -0.007   9.249 -0.1527  0.3605  0.4976
  467loPI    C1 7457   8.921  14.380  11.532 -0.0280 -0.1360  0.1149
  467loPI    C2 7458   9.314  14.312  11.554 -0.0313 -0.1959 -0.0044
  467loPI    C3 7459   9.094  14.318  11.887  0.0740 -0.1419  0.0649
  467loPI   PO4 7460   8.958  14.329  11.169  0.1714 -0.1756  0.1025
  467loPI   GL1 7461   9.049  13.969  10.830 -0.0455 -0.0216 -0.3147
  467loPI   GL2 7462   9.105  14.322  10.690 -0.2179  0.2584  0.3634
  467loPI   C1A 7463   8.856  13.844  10.416 -0.2337 -0.1165  0.0314
  467loPI   C2A 7464   8.735  13.850   9.956  0.2659 -0.1510  0.2176
  467loPI   C3A 7465   8.752  13.853   9.530 -0.0791  0.0679 -0.2303
  467loPI   C4A 7466   8.745  13.928   9.092  0.0243  0.0663 -0.1522
  467loPI   C5A 7467   8.458  14.084   8.810  0.2481 -0.4087 -0.0761
  467loPI   C6A 7468   8.526  14.138   8.397 -0.0702 -0.0143 -0.1131
  467loPI   C1B 7469   9.144  14.234  10.237  0.0194  0.0036  0.0224
  467loPI   C2B 7470   9.092  14.233   9.875 -0.0749  0.0151  0.0007
  467loPI   C3B 7471   9.024  14.262   9.508 -0.2691 -0.0684  0.1077
  467loPI   C4B 7472   9.184  14.290   9.078  0.0815  0.0249  0.2549
  468loPI    C1 7473   6.956   4.776  11.579  0.0965 -0.0203 -0.2141
  468loPI    C2 7474   7.193   5.061  11.728  0.1251 -0.1033 -0.0997
  468loPI    C3 7475   6.844   4.979  11.905  0.2742 -0.3752  0.0749
  468loPI   PO4 7476   6.966   4.958  11.229  0.0074  0.1450  0.1904
  468loPI   GL1 7477   6.744   4.854  10.792  0.0766 -0.4460 -0.4002
  468loPI   GL2 7478   6.507   4.959  10.608 -0.0007  0.1970  0.0804
  468loPI   C1A 7479   6.997   4.956  10.455  0.0415 -0.0669  0.2156
  468loPI   C2A 7480   7.072   4.977   9.975  0.1147  0.1602 -0.0854
  468loPI   C3A 7481   7.087   5.069   9.561  0.0557  0.4567 -0.1061
  468loPI   C4A 7482   7.043   5.059   9.089  0.0777  0.1403  0.1579
  468loPI   C5A 7483   6.926   4.931   8.630  0.1941 -0.3500 -0.2715
  468loPI   C6A 7484   7.198   4.893   8.211  0.3993  0.1681  0.1824
  468loPI   C1B 7485   6.579   5.037  10.218  0.0861 -0.0625  0.0012
  468loPI   C2B 7486   6.615   5.025   9.775  0.1137  0.0697 -0.1333
  468loPI   C3B 7487   6.578   5.093   9.433  0.1741  0.1887  0.1424
  468loPI   C4B 7488   6.519   5.059   8.917  0.3043 -0.0895  0.1321
  469loPI    C1 7489   7.491   2.652  11.692  0.2150  0.1049 -0.0378
  469loPI    C2 7490   7.292   2.883  11.951 -0.0401 -0.1747  0.0205
  469loPI    C3 7491   7.551   2.609  12.085  0.0920 -0.0798 -0.0384
  469loPI   PO4 7492   7.356   2.606  11.531 -0.3539  0.1093  0.1322
  469loPI   GL1 7493   7.332   2.445  11.111  0.0912  0.0893  0.2267
  469loPI   GL2 7494   7.114   2.661  10.843 -0.1507 -0.0985 -0.2931
  469loPI   C1A 7495   7.312   2.208  10.718  0.0884 -0.0664 -0.1810
  469loPI   C2A 7496   7.177   2.188  10.287 -0.0678 -0.1245 -0.4858
  469loPI   C3A 7497   7.192   2.217   9.893 -0.0693 -0.1600  0.0166
  469loPI   C4A 7498   7.211   2.216   9.464 -0.0936 -0.3236 -0.2452
  469loPI   C5A 7499   7.371   2.162   9.033 -0.1784 -0.1755 -0.2346
  469loPI   C6A 7500   7.797   2.169   8.935  0.1222 -0.0218 -0.0398
  469loPI   C1B 7501   7.064   2.712  10.408 -0.0834  0.3054 -0.0224
  469loPI   C2B 7502   7.059   2.718   9.930 -0.1630  0.1972  0.1927
  469loPI   C3B 7503   7.016   2.726   9.482  0.2784 -0.0871 -0.2389
  469loPI   C4B 7504   7.059   2.649   9.044 -0.0562  0.0950 -0.1640
  470loPI    C1 7505   2.600   8.418  11.750  0.2625 -0.0839 -0.0032
  470loPI    C2 7506   2.255   8.438  11.952  0.1040  0.0149 -0.2766
  470loPI    C3 7507   2.503   8.129  12.009 -0.0226 -0.0510 -0.0689
  470loPI   PO4 7508   2.583   8.450  11.530 -0.2115 -0.2802 -0.0533
  470loPI   GL1 7509   2.799   8.316  11.065 -0.2928 -0.0810 -0.0907
  470loPI   GL2 7510   2.906   8.037  11.158 -0.0255 -0.1780  0.2561
  470loPI   C1A 7511   2.956   8.302  10.676 -0.0934 -0.2275 -0.0634
  470loPI   C2A 7512   2.950   8.259  10.231  0.0230 -0.0795 -0.2266
  470loPI   C3A 7513   2.903   8.254   9.846 -0.0841  0.2711 -0.5760
  470loPI   C4A 7514   3.010   8.298   9.462 -0.1595 -0.3714  0.1585
  470loPI   C5A 7515   2.988   8.272   9.044  0.0457  0.0924 -0.0571
  470loPI   C6A 7516   2.774   8.529   8.815  0.1918  0.2059  0.1087
  470loPI   C1B 7517   2.731   7.881  10.758  0.3330  0.2337  0.0032
  470loPI   C2B 7518   2.642   7.853  10.334 -0.2267  0.1055 -0.4607
  470loPI   C3B 7519   2.576   7.898   9.934  0.3226 -0.1351 -0.1287
  470loPI   C4B 7520   2.606   7.899   9.516 -0.2039 -0.1534 -0.1340
  471loPI    C1 7521   9.530   4.536  11.344  0.1745  0.2202 -0.1637
  471loPI    C2 7522   9.701   4.189  11.446  0.0944  0.2001 -0.0964
  471loPI    C3 7523   9.640   4.471  11.723 -0.4047  0.0255 -0.0186
  471loPI   PO4 7524   9.440   4.414  11.043 -0.2275 -0.3655  0.3573
  471loPI   GL1 7525   9.289   4.461  10.631 -0.1109  0.3323 -0.0445
  471loPI   GL2 7526   9.171   4.761  10.716 -0.0406 -0.0340  0.1929
  471loPI   C1A 7527   9.378   4.257  10.247  0.0084 -0.0466  0.0449
  471loPI   C2A 7528   9.281   4.232   9.755  0.2399  0.1875 -0.2458
  471loPI   C3A 7529   9.240   4.265   9.325  0.0550 -0.0438 -0.0988
  471loPI   C4A 7530   9.299   4.261   8.866  0.3852 -0.1403 -0.3278
  471loPI   C5A 7531   9.168   4.202   8.477  0.0816 -0.0110  0.0752
  471loPI   C6A 7532   8.969   4.218   8.049 -0.0774 -0.0347  0.2975
  471loPI   C1B 7533   9.112   4.684  10.236 -0.0794  0.1983  0.0942
  471loPI   C2B 7534   9.131   4.733   9.836 -0.1931 -0.1602 -0.0108
  471loPI   C3B 7535   9.083   4.783   9.367  0.0953 -0.1285 -0.1187
  471loPI   C4B 7536   9.152   4.789   8.990  0.0754  0.2078 -0.0574
  472loPI    C1 7537   9.176   2.117  11.841 -0.2077  0.2950 -0.1567
  472loPI    C2 7538   8.844   2.117  12.064 -0.0766  0.3114  0.0419
  472loPI    C3 7539   9.186   2.258  12.216  0.0809  0.0558 -0.0701
  472loPI   PO4 7540   9.046   2.120  11.553 -0.0306 -0.1666 -0.2587
  472loPI   GL1 7541   8.907   2.195  11.130 -0.1792  0.2203 -0.2358
  472loPI   GL2 7542   9.193   2.426  11.030 -0.1300 -0.3140  0.0635
  472loPI   C1A 7543   8.831   1.964  10.697  0.1693 -0.1828 -0.3755
  472loPI   C2A 7544   8.845   2.074  10.366  0.0011 -0.0130 -0.1665
  472loPI   C3A 7545   8.729   2.009   9.919 -0.0050  0.0148 -0.0185
  472loPI   C4A 7546   8.699   2.054   9.550 -0.3033 -0.0306  0.5449
  472loPI   C5A 7547   8.656   2.048   9.143 -0.1079 -0.2087  0.0629
  472loPI   C6A 7548   8.812   2.290   8.752  0.0221 -0.2233 -0.0470
  472loPI   C1B 7549   9.121   2.417  10.592 -0.0096  0.1763 -0.1412
  472loPI   C2B 7550   9.030   2.432  10.145 -0.1482 -0.2504 -0.0199
  472loPI   C3B 7551   9.046   2.447   9.707 -0.0328  0.0271  0.2586
  472loPI   C4B 7552   9.046   2.400   9.217  0.0143  0.0765 -0.0150
  473loPI    C1 7553  15.967  12.951  11.495 -0.0214 -0.0756 -0.0388
  473loPI    C2 7554  15.742  13.134  11.770  0.0064 -0.0499 -0.0332
  473loPI    C3 7555  15.738  12.735  11.742  0.0212 -0.0538  0.0202
  473loPI   PO4 7556  15.887  13.072  11.278 -0.2076  0.3433  0.0906
  473loPI   GL1 7557  15.947  12.854  10.889  0.0938  0.2781  0.1118
  473loPI   GL2 7558  15.754  13.150  10.756  0.0446  0.5522 -0.1703
  473loPI   C1A 7559  16.061  12.593  10.570 -0.0158 -0.1477 -0.0559
  473loPI   C2A 7560  16.121  12.621  10.110 -0.2283  0.2861  0.0267
  473loPI   C3A 7561  16.064  12.466   9.771 -0.0809  0.1059  0.3148
  473loPI   C4A 7562  16.091  12.419   9.288 -0.1526 -0.0686  0.1251
  473loPI   C5A 7563  16.247  12.344   8.839 -0.2858 -0.2918  0.1072
  473loPI   C6A 7564  16.088  12.356   8.424 -0.3806  0.1019  0.1183
  473loPI   C1B 7565  15.838  13.036  10.413 -0.0848 -0.0175 -0.2917
  473loPI   C2B 7566  15.901  13.035   9.970  0.0254 -0.2376  0.0629
  473loPI   C3B 7567  15.965  12.918   9.557  0.0562  0.4413  0.1823
  473loPI   C4B 7568  16.079  12.901   9.054  0.2268  0.0427 -0.0887
  474loPI    C1 7569   2.566  13.247  11.795 -0.1293 -0.1617 -0.0395
  474loPI    C2 7570   2.605  13.046  12.139  0.1833  0.1885  0.1372
  474loPI    C3 7571   2.594  13.446  12.141 -0.0747  0.1885 -0.2402
  474loPI   PO4 7572   2.338  13.215  11.680 -0.1391  0.3649 -0.0602
  474loPI   GL1 7573   2.258  13.223  11.259 -0.0065 -0.1331 -0.1006
  474loPI   GL2 7574   1.967  13.030  11.046 -0.2649  0.3227 -0.1080
  474loPI   C1A 7575   2.258  13.420  10.841 -0.2471 -0.1576  0.2232
  474loPI   C2A 7576   2.208  13.310  10.395  0.0844 -0.2752  0.0618
  474loPI   C3A 7577   2.212  13.355  10.038 -0.2196 -0.1880  0.1464
  474loPI   C4A 7578   2.282  13.365   9.615 -0.2124 -0.1013 -0.1241
  474loPI   C5A 7579   2.292  13.292   9.184  0.0870  0.0832 -0.2195
  474loPI   C6A 7580   2.366  13.301   8.721 -0.0763  0.0956 -0.0110
  474loPI   C1B 7581   1.977  12.941  10.608  0.1906 -0.2180 -0.0644
  474loPI   C2B 7582   1.906  12.910  10.134  0.2486 -0.4228  0.0090
  474loPI   C3B 7583   1.972  12.956   9.711  0.0002 -0.1346  0.1246
  474loPI   C4B 7584   1.898  12.910   9.352 -0.0376  0.0986 -0.0164
  475loPI    C1 7585  17.869  13.603  11.831  0.2252 -0.2830  0.3417
  475loPI    C2 7586  17.489  13.696  11.915  0.0881 -0.2984 -0.2224
  475loPI    C3 7587  17.752  13.645  12.212 -0.2607  0.0670  0.1646
  475loPI   PO4 7588  17.829  13.462  11.612  0.0575  0.0167  0.0629
  475loPI   GL1 7589  17.569  13.418  11.222  0.1080  0.0609  0.1677
  475loPI   GL2 7590  17.321  13.261  11.136  0.0050  0.0041 -0.0487
  475loPI   C1A 7591  17.665  13.277  10.728 -0.2833  0.0118 -0.3844
  475loPI   C2A 7592  17.707  13.114  10.399 -0.1698 -0.1852 -0.0246
  475loPI   C3A 7593  17.707  13.245  10.027  0.0972  0.0385 -0.0646
  475loPI   C4A 7594  17.681  13.127   9.652  0.2874 -0.0698 -0.2998
  475loPI   C5A 7595  17.703  13.135   9.294 -0.4003  0.1478 -0.0840
  475loPI   C6A 7596  17.923  13.341   8.971 -0.0426  0.1067 -0.1277
  475loPI   C1B 7597  17.195  13.417  10.862  0.2152  0.2564  0.0938
  475loPI   C2B 7598  17.148  13.310  10.392  0.0413  0.0040 -0.0055
  475loPI   C3B 7599  17.198  13.263   9.949  0.0099  0.2844 -0.1321
  475loPI   C4B 7600  17.251  13.284   9.502  0.2444  0.0209  0.2560
  476loPI    C1 7601  14.868  11.532  11.352  0.2958 -0.1403  0.1501
  476loPI    C2 7602  14.652  11.216  11.467  0.2488 -0.1049  0.1593
  476loPI    C3 7603  14.840  11.439  11.741 -0.1731  0.2045  0.2066
  476loPI   PO4 7604  14.986  11.354  11.112  0.1788 -0.0546 -0.2726
  476loPI   GL1 7605  14.957  11.180  10.833 -0.3666 -0.2382 -0.2167
  476loPI   GL2 7606  14.772  10.939  10.684 -0.0630  0.1035 -0.1332
  476loPI   C1A 7607  15.080  11.273  10.407 -0.4172 -0.1821  0.1575
  476loPI   C2A 7608  15.121  11.163   9.905 -0.1468 -0.0771  0.1769
  476loPI   C3A 7609  15.147  11.191   9.505  0.2840  0.0201 -0.2400
  476loPI   C4A 7610  15.121  11.120   9.068 -0.0549 -0.2990 -0.0297
  476loPI   C5A 7611  15.240  11.166   8.648 -0.0548  0.0507 -0.2234
  476loPI   C6A 7612  15.210  11.509   8.450 -0.2326  0.0081 -0.2971
  476loPI   C1B 7613  14.772  10.858  10.291 -0.0787 -0.1996 -0.1108
  476loPI   C2B 7614  14.914  10.736   9.929 -0.2669  0.2259  0.1140
  476loPI   C3B 7615  14.803  10.821   9.529  0.4125  0.0237  0.0645
  476loPI   C4B 7616  14.757  10.728   9.154  0.1996 -0.0514 -0.0997
  477loPI    C1 7617   8.880  11.386  11.369 -0.2304  0.1497 -0.0650
  477loPI    C2 7618   9.148  11.315  11.657 -0.0912 -0.0533 -0.2413
  477loPI    C3 7619   8.772  11.413  11.753 -0.0778 -0.2389  0.0098
  477loPI   PO4 7620   9.025  11.497  11.177 -0.0770 -0.0072 -0.0218
  477loPI   GL1 7621   9.153  11.269  10.805 -0.0724  0.0287  0.4359
  477loPI   GL2 7622   9.033  11.030  10.771  0.0375 -0.2617  0.0768
  477loPI   C1A 7623   9.444  11.061  10.417  0.0580 -0.0391  0.0996
  477loPI   C2A 7624   9.506  11.006   9.986 -0.2904  0.4011 -0.0336
  477loPI   C3A 7625   9.516  10.978   9.527  0.3547  0.0193 -0.0837
  477loPI   C4A 7626   9.548  11.157   9.046 -0.1913  0.0881 -0.0510
  477loPI   C5A 7627   9.794  11.178   8.690  0.0044  0.3777 -0.2388
  477loPI   C6A 7628   9.821  11.071   8.237 -0.0377 -0.3004  0.0015
  477loPI   C1B 7629   8.939  11.057  10.318 -0.1025 -0.1034 -0.1800
  477loPI   C2B 7630   8.998  11.083   9.902 -0.3435 -0.1303  0.2124
  477loPI   C3B 7631   8.887  11.081   9.445 -0.3180 -0.2100  0.4456
  477loPI   C4B 7632   8.944  11.191   9.015 -0.2397  0.0422 -0.1860
  478loPI    C1 7633   1.982   7.403  11.647  0.0872 -0.0231  0.1103
  478loPI    C2 7634   2.299   7.189  11.765  0.1910  0.0786  0.0175
  478loPI    C3 7635   2.102   7.416  12.029  0.1911  0.0095  0.0771
  478loPI   PO4 7636   2.075   7.444  11.371  0.0971  0.2181  0.0037
  478loPI   GL1 7637   1.891   7.382  11.016  0.0073 -0.0974 -0.0472
  478loPI   GL2 7638   2.038   7.147  10.926  0.1879 -0.2045  0.2025
  478loPI   C1A 7639   1.846   7.567  10.641  0.0967  0.1085 -0.3444
  478loPI   C2A 7640   1.783   7.487  10.197  0.3522  0.1346 -0.1626
  478loPI   C3A 7641   1.764   7.521   9.747 -0.1455  0.1119 -0.1106
  478loPI   C4A 7642   1.861   7.578   9.233 -0.0227 -0.0542 -0.1829
  478loPI   C5A 7643   1.771   7.516   8.834  0.4099  0.1351 -0.1678
  478loPI   C6A 7644   1.835   7.385   8.364  0.2077  0.1432 -0.3834
  478loPI   C1B 7645   1.885   7.017  10.495 -0.3272 -0.0711 -0.0881
  478loPI   C2B 7646   1.920   6.983  10.095  0.2142 -0.2369 -0.0543
  478loPI   C3B 7647   1.963   7.041   9.745  0.2444 -0.1219 -0.2228
  478loPI   C4B 7648   1.941   7.098   9.279 -0.2143 -0.1023  0.2203
  479loPI    C1 7649   7.301  14.015  11.429  0.4758  0.4383  0.1191
  479loPI    C2 7650   7.234  13.951  11.819  0.0625  0.1110  0.0019
  479loPI    C3 7651   7.437  13.682  11.604  0.1972  0.2403 -0.0347
  479loPI   PO4 7652   7.085  14.123  11.331 -0.0886 -0.0163  0.2607
  479loPI   GL1 7653   6.872  14.295  10.980  0.2271  0.0078 -0.4106
  479loPI   GL2 7654   6.674  14.067  10.962  0.0312  0.0715  0.0812
  479loPI   C1A 7655   7.090  14.528  10.722 -0.0578  0.0915  0.0668
  479loPI   C2A 7656   7.095  14.557  10.273 -0.2181  0.0193 -0.1853
  479loPI   C3A 7657   7.030  14.498   9.931  0.0121  0.0728  0.0205
  479loPI   C4A 7658   7.085  14.606   9.512  0.0482  0.0076  0.0700
  479loPI   C5A 7659   7.064  14.498   9.009  0.2425 -0.2198  0.1970
  479loPI   C6A 7660   7.127  14.519   8.579  0.0777 -0.1128 -0.1361
  479loPI   C1B 7661   6.757  14.046  10.617  0.2788  0.2680  0.0584
  479loPI   C2B 7662   6.749  14.137  10.193 -0.1107  0.0355  0.2048
  479loPI   C3B 7663   6.712  14.085   9.731 -0.1612  0.0965  0.2011
  479loPI   C4B 7664   6.830  14.143   9.382  0.0711  0.0479  0.3291
  480loPI    C1 7665  12.485   3.090  11.478 -0.0339 -0.1977 -0.1710
  480loPI    C2 7666  12.599   3.289  11.150 -0.0794 -0.0013 -0.0695
  480loPI    C3 7667  12.756   3.383  11.506 -0.1946 -0.0624 -0.0018
  480loPI   PO4 7668  12.490   2.822  11.361  0.1145 -0.0994  0.2499
  480loPI   GL1 7669  12.417   2.516  11.108 -0.4773  0.3926  0.2658
  480loPI   GL2 7670  12.126   2.584  11.063  0.1109  0.0818 -0.1388
  480loPI   C1A 7671  12.442   2.569  10.626 -0.1349  0.0836 -0.0418
  480loPI   C2A 7672  12.391   2.567  10.177  0.1665 -0.0956  0.0346
  480loPI   C3A 7673  12.405   2.604   9.718  0.0325  0.2730 -0.3673
  480loPI   C4A 7674  12.460   2.480   9.299 -0.2009 -0.0349  0.1222
  480loPI   C5A 7675  12.304   2.654   8.947  0.2122  0.1013 -0.2349
  480loPI   C6A 7676  12.098   2.884   8.715 -0.0323 -0.1681  0.0953
  480loPI   C1B 7677  11.950   2.648  10.629 -0.1786  0.1347  0.0290
  480loPI   C2B 7678  11.877   2.605  10.234 -0.1174  0.0276  0.0442
  480loPI   C3B 7679  11.900   2.660   9.888  0.1830  0.0182 -0.1000
  480loPI   C4B 7680  11.958   2.685   9.433 -0.0691  0.2446  0.1693
  481loPI    C1 7681   1.069   2.082  11.920 -0.1294  0.1307  0.4089
  481loPI    C2 7682   1.444   2.212  11.975  0.0131 -0.1087  0.0412
  481loPI    C3 7683   1.210   2.138  12.291  0.3095 -0.0573  0.2773
  481loPI   PO4 7684   1.077   1.903  11.685  0.0257  0.3364 -0.2836
  481loPI   GL1 7685   1.042   1.865  11.269  0.0868  0.1545 -0.0959
  481loPI   GL2 7686   1.215   1.688  11.102 -0.0790  0.1562 -0.1780
  481loPI   C1A 7687   1.033   2.111  10.730 -0.3044  0.0278  0.1058
  481loPI   C2A 7688   1.048   2.229  10.289  0.1162  0.2848 -0.3908
  481loPI   C3A 7689   1.167   2.229   9.889 -0.2829  0.2295 -0.0114
  481loPI   C4A 7690   1.032   2.029   9.547  0.0809  0.3672 -0.0549
  481loPI   C5A 7691   1.107   1.932   9.159  0.2225  0.0152  0.0006
  481loPI   C6A 7692   0.872   1.994   8.825  0.3835 -0.1081  0.2668
  481loPI   C1B 7693   1.235   1.703  10.577 -0.1619  0.2095  0.3657
  481loPI   C2B 7694   1.299   1.694  10.182  0.2705 -0.1109 -0.1233
  481loPI   C3B 7695   1.281   1.612   9.791  0.0982  0.0435  0.1256
  481loPI   C4B 7696   1.217   1.552   9.412 -0.0325  0.1461 -0.0888
  482loPI    C1 7697   4.507   6.975  11.851  0.0521  0.0145  0.2312
  482loPI    C2 7698   4.880   6.997  11.993  0.0878 -0.0789  0.1521
  482loPI    C3 7699   4.571   6.985  12.246  0.1215  0.2856  0.2152
  482loPI   PO4 7700   4.441   7.175  11.613  0.1295 -0.0525 -0.3102
  482loPI   GL1 7701   4.509   7.158  11.080  0.1820 -0.0504  0.0507
  482loPI   GL2 7702   4.823   7.072  10.912  0.1797  0.2804 -0.1514
  482loPI   C1A 7703   4.371   7.195  10.702 -0.3243 -0.0016 -0.0599
  482loPI   C2A 7704   4.339   7.168  10.236 -0.1563  0.0704 -0.0595
  482loPI   C3A 7705   4.268   7.141   9.797  0.2363 -0.2005  0.2805
  482loPI   C4A 7706   4.226   7.151   9.312 -0.0011  0.3074 -0.0331
  482loPI   C5A 7707   4.367   7.130   8.899 -0.1311  0.0006 -0.0020
  482loPI   C6A 7708   4.008   6.884   8.624  0.1466  0.1654 -0.3333
  482loPI   C1B 7709   4.782   7.076  10.437 -0.0184 -0.4103  0.0621
  482loPI   C2B 7710   4.872   7.158  10.103 -0.0758 -0.0198 -0.0445
  482loPI   C3B 7711   4.813   7.050   9.693  0.1032 -0.2274  0.1644
  482loPI   C4B 7712   4.714   7.054   9.295 -0.0217  0.0739  0.0272
  483loPI    C1 7713   4.454   4.378  11.677 -0.2368  0.2040  0.0451
  483loPI    C2 7714   4.464   4.142  12.001 -0.0583 -0.0119 -0.1146
  483loPI    C3 7715   4.422   4.538  12.043  0.0327 -0.0306  0.1756
  483loPI   PO4 7716   4.195   4.310  11.527 -0.0720  0.3323 -0.0610
  483loPI   GL1 7717   4.222   3.999  11.167  0.0149  0.1052 -0.0908
  483loPI   GL2 7718   4.242   3.631  11.182 -0.1425 -0.0034  0.1881
  483loPI   C1A 7719   4.107   3.991  10.711 -0.0491 -0.2582 -0.0600
  483loPI   C2A 7720   4.137   4.029  10.294  0.1015 -0.2932 -0.2608
  483loPI   C3A 7721   4.097   4.056   9.807  0.0535 -0.0956 -0.3065
  483loPI   C4A 7722   4.080   3.980   9.412 -0.2519 -0.3246 -0.1068
  483loPI   C5A 7723   4.200   3.875   8.970 -0.1129  0.0157 -0.4040
  483loPI   C6A 7724   4.409   3.496   8.859 -0.0477  0.0020 -0.1851
  483loPI   C1B 7725   4.264   3.493  10.699  0.1525  0.0003  0.2222
  483loPI   C2B 7726   4.351   3.464  10.280  0.0122  0.0529  0.1521
  483loPI   C3B 7727   4.370   3.581   9.926  0.2042 -0.2733  0.2981
  483loPI   C4B 7728   4.295   3.542   9.415  0.1771 -0.0197  0.0369
  484loPI    C1 7729   9.574   7.361  11.293 -0.2079  0.2915  0.0050
  484loPI    C2 7730   9.841   7.232  11.562 -0.1901  0.0115 -0.1430
  484loPI    C3 7731   9.502   7.405  11.684 -0.1403 -0.0293  0.0567
  484loPI   PO4 7732   9.820   7.354  11.063 -0.0365 -0.0451 -0.0174
  484loPI   GL1 7733   9.916   7.567  10.754  0.2315 -0.0399  0.1073
  484loPI   GL2 7734   9.733   7.848  10.738 -0.1363 -0.1885 -0.0827
  484loPI   C1A 7735   9.878   7.398  10.401  0.1611 -0.0391  0.0632
  484loPI   C2A 7736  10.019   7.380   9.972  0.1183  0.3088 -0.1435
  484loPI   C3A 7737   9.996   7.386   9.513 -0.1749  0.0005 -0.2310
  484loPI   C4A 7738   9.918   7.504   9.110  0.1148 -0.2884 -0.0878
  484loPI   C5A 7739   9.708   7.486   8.720  0.0746 -0.1701  0.4059
  484loPI   C6A 7740   9.708   7.560   8.254 -0.0418 -0.3257  0.2491
  484loPI   C1B 7741   9.794   7.845  10.307  0.1998  0.2329  0.0564
  484loPI   C2B 7742   9.815   7.849   9.828  0.2681 -0.0668  0.2485
  484loPI   C3B 7743   9.751   7.915   9.373  0.2307  0.1587 -0.1472
  484loPI   C4B 7744   9.738   7.906   8.948  0.2771  0.0635  0.1450
  485loPI    C1 7745  16.339  11.721  11.644 -0.0109 -0.0035  0.0049
  485loPI    C2 7746  16.533  11.631  11.983 -0.0457 -0.2621 -0.0419
  485loPI    C3 7747  16.173  11.804  11.998  0.0690 -0.0282  0.0485
  485loPI   PO4 7748  16.519  11.646  11.481 -0.3337  0.2674  0.0312
  485loPI   GL1 7749  16.647  11.887  11.161 -0.2532  0.1295  0.2191
  485loPI   GL2 7750  16.662  12.153  11.135 -0.4541 -0.0116 -0.1062
  485loPI   C1A 7751  16.911  11.670  10.824 -0.0264  0.2312  0.0035
  485loPI   C2A 7752  16.922  11.495  10.332  0.0274  0.1033 -0.0379
  485loPI   C3A 7753  16.926  11.463   9.895 -0.2133 -0.4297  0.1744
  485loPI   C4A 7754  16.927  11.314   9.422  0.0569  0.0005 -0.1310
  485loPI   C5A 7755  16.718  11.337   9.065  0.0512 -0.1458  0.0063
  485loPI   C6A 7756  16.859  11.347   8.634 -0.0921 -0.0436  0.2132
  485loPI   C1B 7757  16.711  12.117  10.688  0.0481 -0.0598  0.1773
  485loPI   C2B 7758  16.660  12.002  10.306 -0.0110  0.0396 -0.1237
  485loPI   C3B 7759  16.742  12.002   9.881 -0.0671  0.2441  0.0184
  485loPI   C4B 7760  16.746  11.843   9.379 -0.3379 -0.2322 -0.0581
  486loPI    C1 7761  12.142   8.108  11.201 -0.0799  0.2193  0.2213
  486loPI    C2 7762  12.164   8.088  11.600  0.0612 -0.2903  0.1948
  486loPI    C3 7763  11.944   7.821  11.398 -0.0564 -0.0006 -0.0673
  486loPI   PO4 7764  12.059   8.360  11.083 -0.0140  0.1970 -0.1225
  486loPI   GL1 7765  11.845   8.414  10.778 -0.2117 -0.0319 -0.0565
  486loPI   GL2 7766  11.543   8.459  10.687 -0.3098  0.2594  0.0187
  486loPI   C1A 7767  11.955   8.439  10.410 -0.3564 -0.0316 -0.0376
  486loPI   C2A 7768  11.915   8.482   9.977 -0.3351  0.1581 -0.0054
  486loPI   C3A 7769  11.963   8.388   9.556 -0.2426 -0.0738 -0.0900
  486loPI   C4A 7770  11.953   8.434   9.108  0.1543 -0.1684 -0.0382
  486loPI   C5A 7771  12.100   8.698   8.693 -0.3279 -0.1721 -0.1964
  486loPI   C6A 7772  12.027   8.620   8.320  0.0682  0.1788  0.0612
  486loPI   C1B 7773  11.443   8.541  10.294  0.0228  0.0089 -0.1413
  486loPI   C2B 7774  11.385   8.491   9.876  0.3898 -0.1008 -0.0125
  486loPI   C3B 7775  11.456   8.551   9.476 -0.0434 -0.1102 -0.1512
  486loPI   C4B 7776  11.407   8.533   9.058 -0.1935  0.0789  0.2070
  487loPI    C1 7777  17.232   9.459  11.861 -0.0935  0.1135  0.2416
  487loPI    C2 7778  17.209   9.102  12.039 -0.2754 -0.0928 -0.1827
  487loPI    C3 7779  16.973   9.401  12.160 -0.2662 -0.1743  0.0413
  487loPI   PO4 7780  17.246   9.406  11.626  0.1066 -0.1362  0.1513
  487loPI   GL1 7781  17.282   9.384  11.234  0.2111  0.2498  0.0359
  487loPI   GL2 7782  17.456   9.164  11.206 -0.0654  0.2441 -0.0342
  487loPI   C1A 7783  17.191   9.563  10.820 -0.0988 -0.0553  0.1693
  487loPI   C2A 7784  17.201   9.602  10.347 -0.2959  0.2331 -0.0371
  487loPI   C3A 7785  17.266   9.647   9.929  0.0438 -0.3126  0.3677
  487loPI   C4A 7786  17.282   9.611   9.439 -0.4673 -0.0493 -0.1028
  487loPI   C5A 7787  17.449   9.350   9.136  0.1624  0.1373  0.0210
  487loPI   C6A 7788  17.213   8.910   9.017  0.2153  0.2111  0.1021
  487loPI   C1B 7789  17.312   9.070  10.867  0.1055 -0.0190 -0.0808
  487loPI   C2B 7790  17.345   9.169  10.438 -0.0510 -0.1207  0.0468
  487loPI   C3B 7791  17.414   9.205  10.093  0.1174 -0.1366  0.0569
  487loPI   C4B 7792  17.498   9.167   9.649  0.0871  0.0840  0.1353
  488loPI    C1 7793   3.437   3.720  11.483  0.0521  0.0385 -0.0408
  488loPI    C2 7794   3.316   3.590  11.841  0.0765 -0.1900 -0.1137
  488loPI    C3 7795   3.541   3.920  11.813  0.0984 -0.1869  0.0832
  488loPI   PO4 7796   3.247   3.698  11.365  0.2393  0.0029  0.0077
  488loPI   GL1 7797   3.275   3.451  11.079 -0.2372  0.2447 -0.1191
  488loPI   GL2 7798   3.462   3.161  10.989 -0.0313  0.0032 -0.1203
  488loPI   C1A 7799   3.331   3.699  10.707 -0.2492 -0.0067 -0.0303
  488loPI   C2A 7800   3.392   3.620  10.263 -0.2280  0.2004  0.1131
  488loPI   C3A 7801   3.381   3.694   9.830 -0.1741  0.0398 -0.3685
  488loPI   C4A 7802   3.270   3.730   9.386  0.1523  0.3629  0.1319
  488loPI   C5A 7803   3.373   3.612   8.965  0.4017 -0.0444  0.0994
  488loPI   C6A 7804   3.737   3.745   8.724  0.0066 -0.3096  0.1230
  488loPI   C1B 7805   3.501   3.169  10.511  0.1479  0.1535 -0.2123
  488loPI   C2B 7806   3.551   3.173  10.128 -0.2360 -0.5126 -0.0218
  488loPI   C3B 7807   3.490   3.156   9.759  0.0221 -0.3934 -0.1020
  488loPI   C4B 7808   3.506   3.279   9.361 -0.1005  0.2109 -0.0763
  489loPI    C1 7809  10.453   9.397  11.626 -0.2644  0.4669 -0.0565
  489loPI    C2 7810  10.134   9.251  11.819  0.0476  0.3132  0.3575
  489loPI    C3 7811  10.413   9.456  12.020  0.3502  0.2060  0.0565
  489loPI   PO4 7812  10.404   9.472  11.429 -0.4843  0.5247  0.1317
  489loPI   GL1 7813  10.638   9.290  11.119 -0.1741  0.2058  0.0402
  489loPI   GL2 7814  10.809   9.063  11.080 -0.2840  0.4269 -0.0059
  489loPI   C1A 7815  10.598   9.555  10.728  0.2752 -0.2291  0.1090
  489loPI   C2A 7816  10.548   9.558  10.288  0.1225 -0.2462  0.0036
  489loPI   C3A 7817  10.509   9.490   9.840 -0.0389 -0.0371  0.0222
  489loPI   C4A 7818  10.511   9.517   9.353  0.0475 -0.3208 -0.1050
  489loPI   C5A 7819  10.662   9.567   8.969  0.1111  0.0504  0.3286
  489loPI   C6A 7820  10.740   9.334   8.516 -0.0351  0.0326 -0.1674
  489loPI   C1B 7821  10.778   9.026  10.676 -0.1011 -0.1082  0.3329
  489loPI   C2B 7822  10.698   9.100  10.334  0.1049  0.0130 -0.2312
  489loPI   C3B 7823  10.710   9.056   9.974 -0.0599  0.0100 -0.4191
  489loPI   C4B 7824  10.646   9.058   9.537 -0.0247 -0.1557  0.0657
  490loPI    C1 7825   5.832   6.562  11.757 -0.0168  0.0980 -0.2171
  490loPI    C2 7826   5.546   6.442  12.009  0.0921  0.0351 -0.1226
  490loPI    C3 7827   5.928   6.446  12.127  0.0972  0.4283 -0.1400
  490loPI   PO4 7828   5.725   6.490  11.553 -0.0117  0.0603 -0.0521
  490loPI   GL1 7829   5.720   6.490  11.119 -0.2656 -0.3082 -0.1834
  490loPI   GL2 7830   5.431   6.570  10.934  0.0104 -0.2301  0.0439
  490loPI   C1A 7831   5.922   6.556  10.754 -0.2079  0.2132  0.0863
  490loPI   C2A 7832   5.986   6.459  10.318 -0.1363 -0.0491  0.3683
  490loPI   C3A 7833   5.992   6.512   9.826  0.1674  0.1782 -0.2356
  490loPI   C4A 7834   5.972   6.493   9.379  0.1204 -0.0967  0.0653
  490loPI   C5A 7835   5.975   6.518   8.909 -0.3474  0.2308 -0.1279
  490loPI   C6A 7836   5.859   6.872   8.789  0.1329  0.2063 -0.2269
  490loPI   C1B 7837   5.471   6.532  10.552  0.1809  0.0795  0.0656
  490loPI   C2B 7838   5.536   6.545  10.148  0.2151 -0.0827 -0.0389
  490loPI   C3B 7839   5.483   6.558   9.656  0.0745  0.1851  0.0350
  490loPI   C4B 7840   5.469   6.556   9.210  0.1678  0.2108 -0.0795
  491loPI    C1 7841  15.244  17.234  11.652  0.0506  0.0911  0.0098
  491loPI    C2 7842  15.087  17.600  11.691  0.1506  0.1319  0.0360
  491loPI    C3 7843  14.946  17.297  11.912 -0.0658  0.1112 -0.1272
  491loPI   PO4 7844  15.238  17.166  11.409  0.1566  0.0373 -0.2193
  491loPI   GL1 7845  15.109  17.336  11.104 -0.0903  0.0542 -0.0900
  491loPI   GL2 7846  15.041  17.660  11.123  0.1176  0.0249  0.1507
  491loPI   C1A 7847  15.155  17.306  10.725  0.1221  0.0130  0.0897
  491loPI   C2A 7848  15.111  17.222  10.270 -0.2782  0.0551  0.2730
  491loPI   C3A 7849  15.107  17.121   9.867 -0.1811 -0.3367 -0.1190
  491loPI   C4A 7850  15.067  17.126   9.422 -0.0817  0.0109 -0.0360
  491loPI   C5A 7851  15.012  17.013   9.066  0.0483 -0.0066  0.0607
  491loPI   C6A 7852  14.812  16.762   8.845  0.1172  0.0149  0.4240
  491loPI   C1B 7853  15.004  17.826  10.684  0.0297  0.2955 -0.1322
  491loPI   C2B 7854  14.914  17.698  10.237 -0.0472  0.1221 -0.3708
  491loPI   C3B 7855  14.907  17.576   9.792  0.1100  0.1832 -0.0905
  491loPI   C4B 7856  14.798  17.565   9.373 -0.3298  0.3239  0.3650
  492loPI    C1 7857  10.196   6.040  11.437 -0.0064  0.0920  0.0212
  492loPI    C2 7858   9.888   6.161  11.662 -0.3479 -0.2748 -0.2351
  492loPI    C3 7859  10.115   5.855  11.783 -0.0381  0.0330 -0.0178
  492loPI   PO4 7860  10.115   6.039  11.173  0.0471 -0.1534 -0.1183
  492loPI   GL1 7861  10.053   6.262  10.806 -0.1597  0.0520 -0.1980
  492loPI   GL2 7862   9.781   6.437  10.808 -0.1293 -0.1796 -0.1967
  492loPI   C1A 7863   9.966   6.135  10.355  0.0279 -0.2258  0.3373
  492loPI   C2A 7864  10.101   6.043   9.899  0.1864  0.0907  0.2486
  492loPI   C3A 7865  10.061   6.053   9.433  0.0660  0.0755  0.0964
  492loPI   C4A 7866  10.087   5.985   9.016  0.3375  0.4548  0.2132
  492loPI   C5A 7867   9.912   5.781   8.738 -0.0802  0.1993 -0.0383
  492loPI   C6A 7868   9.610   5.591   8.753 -0.0520 -0.3924 -0.0113
  492loPI   C1B 7869   9.859   6.593  10.476 -0.2742  0.0388  0.0881
  492loPI   C2B 7870   9.873   6.491   9.944 -0.2183  0.2659  0.2726
  492loPI   C3B 7871   9.851   6.493   9.547  0.0342 -0.0962 -0.0324
  492loPI   C4B 7872   9.814   6.529   9.097 -0.0016  0.3117  0.3486
  493loPI    C1 7873  10.081   1.845  11.643 -0.0582  0.0946  0.1557
  493loPI    C2 7874  10.074   1.448  11.600  0.2218  0.0970  0.0681
  493loPI    C3 7875   9.920   1.616  11.928  0.0145 -0.0757  0.0616
  493loPI   PO4 7876  10.096   1.912  11.327 -0.2224  0.1355  0.2111
  493loPI   GL1 7877  10.029   1.887  10.909 -0.2127 -0.0624 -0.1543
  493loPI   GL2 7878  10.332   1.906  10.703  0.1793  0.3550  0.1375
  493loPI   C1A 7879   9.817   1.936  10.587  0.0376 -0.1625 -0.0726
  493loPI   C2A 7880   9.744   1.875  10.146 -0.1308 -0.2366  0.2530
  493loPI   C3A 7881   9.800   1.955   9.705 -0.3620  0.1157  0.1370
  493loPI   C4A 7882   9.693   1.950   9.291  0.0954  0.0279  0.0476
  493loPI   C5A 7883   9.728   1.849   8.801 -0.1894  0.1966 -0.2202
  493loPI   C6A 7884   9.834   1.635   8.437 -0.0102  0.0178  0.0990
  493loPI   C1B 7885  10.256   1.912  10.319 -0.0194  0.0173 -0.0684
  493loPI   C2B 7886  10.298   1.946   9.961  0.0714  0.0897 -0.2431
  493loPI   C3B 7887  10.314   1.845   9.548 -0.0224 -0.2684  0.2602
  493loPI   C4B 7888  10.177   1.864   9.064 -0.2102  0.0913 -0.1970
  494loPI    C1 7889   3.140   8.285  11.751 -0.1501  0.2265 -0.0648
  494loPI    C2 7890   2.973   8.513  12.033 -0.2146  0.1689 -0.0561
  494loPI    C3 7891   3.009   8.119  12.090 -0.1043  0.1763 -0.0713
  494loPI   PO4 7892   3.096   8.350  11.541 -0.2274  0.1914  0.1360
  494loPI   GL1 7893   3.185   8.558  11.114  0.1545  0.0499 -0.0760
  494loPI   GL2 7894   3.316   8.311  11.072 -0.0697  0.0139  0.0457
  494loPI   C1A 7895   3.160   8.728  10.763  0.1301 -0.1084 -0.0874
  494loPI   C2A 7896   3.206   8.666  10.342 -0.0800 -0.2799  0.0910
  494loPI   C3A 7897   3.316   8.735  10.025  0.1620 -0.0798 -0.0940
  494loPI   C4A 7898   3.202   8.669   9.657 -0.0180 -0.1594 -0.1161
  494loPI   C5A 7899   3.255   8.652   9.206  0.1818  0.0530 -0.0495
  494loPI   C6A 7900   3.268   8.771   8.860 -0.3339  0.1769 -0.0301
  494loPI   C1B 7901   3.402   8.109  10.813 -0.0434 -0.0178 -0.0624
  494loPI   C2B 7902   3.432   8.183  10.425  0.0435  0.1407  0.0381
  494loPI   C3B 7903   3.413   8.264   9.991 -0.1262  0.1452  0.1325
  494loPI   C4B 7904   3.449   8.206   9.602  0.1581  0.0093 -0.0289
  495loPI    C1 7905   1.697   9.411  11.490 -0.0562 -0.0606  0.0764
  495loPI    C2 7906   1.954   9.708  11.411 -0.1111 -0.0383 -0.0193
  495loPI    C3 7907   1.932   9.556  11.780 -0.1183  0.1108  0.0426
  495loPI   PO4 7908   1.498   9.496  11.335  0.1319  0.0588 -0.1160
  495loPI   GL1 7909   1.388   9.267  10.961 -0.0374 -0.2018  0.2988
  495loPI   GL2 7910   1.185   8.991  10.986  0.4531 -0.1163  0.1030
  495loPI   C1A 7911   1.394   9.420  10.561 -0.0748 -0.1321  0.3464
  495loPI   C2A 7912   1.551   9.386  10.224 -0.3243 -0.1294  0.1236
  495loPI   C3A 7913   1.504   9.394   9.799 -0.1828 -0.2825 -0.2480
  495loPI   C4A 7914   1.525   9.431   9.326 -0.2881 -0.1061  0.1192
  495loPI   C5A 7915   1.657   9.423   8.879  0.0907  0.2742 -0.5102
  495loPI   C6A 7916   1.557   9.380   8.414  0.0358 -0.4194 -0.0034
  495loPI   C1B 7917   1.125   8.955  10.524  0.2593  0.3481  0.1098
  495loPI   C2B 7918   1.173   8.988  10.021 -0.1335 -0.0159  0.0969
  495loPI   C3B 7919   1.223   8.979   9.598  0.0724 -0.1173  0.0524
  495loPI   C4B 7920   1.281   9.003   9.148 -0.2285 -0.0910 -0.1697
  496loPI    C1 7921   3.831  13.440  11.744 -0.0032 -0.0397 -0.3437
  496loPI    C2 7922   3.512  13.677  11.783  0.2237  0.2064  0.0978
  496loPI    C3 7923   3.526  13.328  11.978  0.1674  0.1299 -0.0336
  496loPI   PO4 7924   3.955  13.349  11.473  0.0085 -0.2333 -0.0565
  496loPI   GL1 7925   4.011  13.210  11.074 -0.0050 -0.0082  0.1244
  496loPI   GL2 7926   4.117  12.988  10.841  0.0352  0.0247 -0.4172
  496loPI   C1A 7927   4.041  13.465  10.603 -0.1017  0.0634 -0.0650
  496loPI   C2A 7928   4.060  13.621  10.237  0.1264 -0.1047  0.0691
  496loPI   C3A 7929   4.128  13.589   9.869  0.0577  0.1033  0.1148
  496loPI   C4A 7930   4.070  13.577   9.463 -0.6011 -0.1346 -0.2218
  496loPI   C5A 7931   4.111  13.497   9.008 -0.2594  0.1428 -0.2136
  496loPI   C6A 7932   4.451  13.346   8.785  0.1405  0.3077 -0.2447
  496loPI   C1B 7933   4.220  13.044  10.393  0.1025 -0.0396  0.0360
  496loPI   C2B 7934   4.276  13.126   9.953 -0.2704  0.1919  0.2608
  496loPI   C3B 7935   4.332  13.088   9.572 -0.0073 -0.1935 -0.2081
  496loPI   C4B 7936   4.262  13.100   9.264  0.0126 -0.1377 -0.2122
  497loPI    C1 7937   8.380  11.445  11.378 -0.0642 -0.1216  0.0227
  497loPI    C2 7938   7.999  11.455  11.500 -0.0384  0.1322  0.0888
  497loPI    C3 7939   8.258  11.205  11.675 -0.1894 -0.0939 -0.0057
  497loPI   PO4 7940   8.427  11.462  11.145  0.0009 -0.1127  0.1061
  497loPI   GL1 7941   8.682  11.370  10.781 -0.2506 -0.0607  0.0387
  497loPI   GL2 7942   8.518  11.135  10.684 -0.2798 -0.3740 -0.3068
  497loPI   C1A 7943   8.724  11.644  10.446  0.0329  0.0582 -0.2692
  497loPI   C2A 7944   8.777  11.578   9.990  0.0558  0.2518 -0.5114
  497loPI   C3A 7945   8.759  11.522   9.633  0.1225 -0.0825 -0.1263
  497loPI   C4A 7946   8.754  11.619   9.202  0.0428 -0.0016  0.0266
  497loPI   C5A 7947   8.641  11.646   8.828  0.0505 -0.1680  0.2630
  497loPI   C6A 7948   8.268  11.457   8.675 -0.2832 -0.0599 -0.1599
  497loPI   C1B 7949   8.465  11.223  10.303  0.1782  0.0904  0.2519
  497loPI   C2B 7950   8.396  11.089   9.872 -0.2561  0.2795 -0.0757
  497loPI   C3B 7951   8.400  11.149   9.431 -0.0248 -0.2357  0.0232
  497loPI   C4B 7952   8.465  11.175   9.034  0.1110  0.4627 -0.1272
  498loPI    C1 7953  11.429  12.968  11.641  0.1611 -0.0374  0.2299
  498loPI    C2 7954  11.490  12.625  11.444 -0.0761 -0.0023  0.0908
  498loPI    C3 7955  11.726  12.725  11.751  0.2287 -0.1109 -0.1036
  498loPI   PO4 7956  11.301  13.087  11.357  0.2287 -0.5431  0.3545
  498loPI   GL1 7957  11.346  12.879  10.930 -0.0870 -0.0317 -0.0019
  498loPI   GL2 7958  11.383  12.593  10.986  0.0502  0.1966 -0.0114
  498loPI   C1A 7959  11.456  13.153  10.494 -0.4771 -0.1342 -0.1758
  498loPI   C2A 7960  11.492  13.100  10.118  0.2089 -0.3558  0.0665
  498loPI   C3A 7961  11.565  13.052   9.758  0.0921 -0.2156  0.1513
  498loPI   C4A 7962  11.552  13.033   9.294  0.1196  0.2042  0.0140
  498loPI   C5A 7963  11.158  13.078   9.064 -0.1211 -0.0231 -0.1927
  498loPI   C6A 7964  10.760  12.752   9.152 -0.2039 -0.2081  0.0588
  498loPI   C1B 7965  11.662  12.656  10.583 -0.2672  0.0144 -0.0930
  498loPI   C2B 7966  11.754  12.666  10.175  0.2734  0.2384  0.5853
  498loPI   C3B 7967  11.721  12.561   9.688 -0.1841  0.1950 -0.0594
  498loPI   C4B 7968  11.735  12.574   9.279  0.2174  0.0503 -0.0399
  499loPI    C1 7969  14.552   3.941  11.527  0.1352  0.2483 -0.0983
  499loPI    C2 7970  14.315   4.226  11.677 -0.1055  0.0376 -0.0709
  499loPI    C3 7971  14.551   4.014  11.920 -0.1679 -0.0051 -0.0470
  499loPI   PO4 7972  14.738   4.038  11.383 -0.1499 -0.1636 -0.2629
  499loPI   GL1 7973  14.818   4.034  10.958 -0.1456 -0.0068 -0.5346
  499loPI   GL2 7974  14.621   3.758  10.916  0.0709  0.0973 -0.1248
  499loPI   C1A 7975  14.745   4.088  10.536  0.1535  0.4124  0.1844
  499loPI   C2A 7976  14.609   4.038  10.174  0.0845 -0.1206 -0.0194
  499loPI   C3A 7977  14.606   3.969   9.777 -0.0447 -0.3290  0.1752
  499loPI   C4A 7978  14.717   3.956   9.350  0.2117 -0.0228 -0.1550
  499loPI   C5A 7979  14.836   4.097   8.957 -0.1350  0.2312  0.0006
  499loPI   C6A 7980  15.167   4.098   8.818 -0.0898  0.1499 -0.1677
  499loPI   C1B 7981  14.393   3.680  10.570  0.0715 -0.0932 -0.2682
  499loPI   C2B 7982  14.332   3.643  10.169  0.1091 -0.0460 -0.2313
  499loPI   C3B 7983  14.294   3.585   9.815  0.0824 -0.5075 -0.1374
  499loPI   C4B 7984  14.378   3.549   9.385  0.3265  0.2551 -0.1259
  500loPI    C1 7985   2.874   9.336  11.499  0.1128  0.2187  0.1179
  500loPI    C2 7986   3.063   9.466  11.171 -0.2317  0.0195 -0.1657
  500loPI    C3 7987   3.122   9.650  11.521  0.2730  0.1283 -0.2998
  500loPI   PO4 7988   2.668   9.213  11.392 -0.1934  0.0237 -0.2508
  500loPI   GL1 7989   2.467   9.340  11.026 -0.2016 -0.2375  0.1234
  500loPI   GL2 7990   2.668   9.608  10.931  0.1730  0.0813 -0.0335
  500loPI   C1A 7991   2.508   9.210  10.632  0.3007  0.0501  0.0977
  500loPI   C2A 7992   2.514   9.156  10.154  0.0251 -0.1962 -0.1304
  500loPI   C3A 7993   2.544   9.186   9.769 -0.0161 -0.0617 -0.0822
  500loPI   C4A 7994   2.561   9.183   9.290  0.0007 -0.0837  0.1618
  500loPI   C5A 7995   2.517   9.255   8.825  0.1568  0.1963  0.0247
  500loPI   C6A 7996   2.513   9.249   8.369  0.1169  0.2183  0.0605
  500loPI   C1B 7997   2.753   9.651  10.533 -0.2147 -0.2827 -0.1543
  500loPI   C2B 7998   2.883   9.551  10.121  0.2861 -0.1678  0.2228
  500loPI   C3B 7999   2.837   9.572   9.671 -0.0159  0.1825  0.0764
  500loPI   C4B 8000   2.882   9.642   9.234  0.0475  0.1809  0.0654
  501loPI    C1 8001  11.027   5.782  11.672 -0.2770 -0.0600 -0.0221
  501loPI    C2 8002  11.278   5.627  11.943 -0.0355 -0.0046 -0.2108
  501loPI    C3 8003  10.902   5.714  12.046  0.0182 -0.0981  0.0726
  501loPI   PO4 8004  11.054   5.601  11.480  0.1738 -0.0455 -0.1909
  501loPI   GL1 8005  11.180   5.650  11.080  0.1523  0.1129 -0.0551
  501loPI   GL2 8006  10.839   5.649  10.881  0.2103  0.2334 -0.1226
  501loPI   C1A 8007  11.317   5.523  10.657  0.1281 -0.0758 -0.0846
  501loPI   C2A 8008  11.281   5.504  10.251 -0.0138 -0.2426  0.0286
  501loPI   C3A 8009  11.260   5.392   9.824 -0.1978  0.2386  0.2118
  501loPI   C4A 8010  11.305   5.501   9.464  0.1181  0.2401  0.0559
  501loPI   C5A 8011  11.254   5.323   9.049  0.1128 -0.0224  0.3262
  501loPI   C6A 8012  11.332   5.022   8.841 -0.0079 -0.2507 -0.1037
  501loPI   C1B 8013  10.794   5.484  10.494  0.0065  0.0515 -0.1722
  501loPI   C2B 8014  10.743   5.462  10.065  0.1405 -0.0814 -0.1307
  501loPI   C3B 8015  10.721   5.516   9.624  0.1781 -0.0076 -0.0695
  501loPI   C4B 8016  10.792   5.422   9.067  0.5745 -0.0604 -0.2618
  502loPI    C1 8017   7.244  10.709  11.471 -0.2328 -0.1644  0.1078
  502loPI    C2 8018   7.524  10.565  11.718 -0.0406 -0.3616 -0.2176
  502loPI    C3 8019   7.236  10.805  11.859  0.1977 -0.2853  0.1513
  502loPI   PO4 8020   7.321  10.814  11.261 -0.2049 -0.0521  0.0636
  502loPI   GL1 8021   7.197  10.898  10.897  0.1547 -0.0738 -0.0605
  502loPI   GL2 8022   7.375  10.608  10.781  0.2075  0.0707 -0.0985
  502loPI   C1A 8023   7.101  10.950  10.420 -0.1339  0.2015 -0.3298
  502loPI   C2A 8024   7.109  10.880  10.013  0.0650 -0.0016 -0.4082
  502loPI   C3A 8025   7.073  10.906   9.573  0.0321  0.0953  0.1853
  502loPI   C4A 8026   7.156  10.865   9.276 -0.2944 -0.0477  0.3129
  502loPI   C5A 8027   7.044  10.895   8.919 -0.0388  0.2512 -0.0938
  502loPI   C6A 8028   6.693  10.828   8.610 -0.2331 -0.0121  0.2549
  502loPI   C1B 8029   7.245  10.448  10.400 -0.1768 -0.2026  0.3356
  502loPI   C2B 8030   7.294  10.401   9.975 -0.4805 -0.0830  0.0012
  502loPI   C3B 8031   7.255  10.385   9.468  0.1643  0.2651  0.0171
  502loPI   C4B 8032   7.321  10.449   9.003 -0.0350 -0.0892 -0.1578
  503loPI    C1 8033  13.589  12.201  11.412  0.0156 -0.0436 -0.1829
  503loPI    C2 8034  13.794  12.487  11.222 -0.1466 -0.0590 -0.3840
  503loPI    C3 8035  13.938  12.328  11.559 -0.0900  0.3118 -0.2288
  503loPI   PO4 8036  13.444  12.060  11.178  0.0611  0.0872  0.0474
  503loPI   GL1 8037  13.561  12.220  10.861  0.1635  0.1717  0.0594
  503loPI   GL2 8038  13.405  12.060  10.670 -0.1315 -0.0767 -0.2236
  503loPI   C1A 8039  13.743  12.315  10.424 -0.2557  0.2095 -0.3432
  503loPI   C2A 8040  13.706  12.340  10.010 -0.1833 -0.1983 -0.0836
  503loPI   C3A 8041  13.770  12.421   9.592 -0.0772 -0.1959 -0.1052
  503loPI   C4A 8042  13.825  12.298   9.175  0.0836  0.1293 -0.0448
  503loPI   C5A 8043  13.755  12.358   8.723 -0.1216 -0.0292 -0.0574
  503loPI   C6A 8044  13.820  12.614   8.307  0.2095 -0.0074  0.0983
  503loPI   C1B 8045  13.305  11.865  10.394 -0.0386 -0.1127 -0.0971
  503loPI   C2B 8046  13.446  11.897   9.972 -0.0604 -0.1541  0.1775
  503loPI   C3B 8047  13.500  11.949   9.444  0.4008 -0.2809 -0.0335
  503loPI   C4B 8048  13.434  11.880   9.054  0.1225 -0.2597  0.2791
  504loPI    C1 8049   7.813  12.322  11.447 -0.1706 -0.2420 -0.0886
  504loPI    C2 8050   7.715  12.704  11.384 -0.0844 -0.1651  0.2268
  504loPI    C3 8051   7.630  12.531  11.735  0.0622 -0.3747  0.1609
  504loPI   PO4 8052   7.806  12.229  11.142  0.1483  0.2827 -0.1938
  504loPI   GL1 8053   7.602  12.217  10.782  0.0797  0.1543 -0.3152
  504loPI   GL2 8054   7.800  11.929  10.638 -0.0116 -0.0753  0.2558
  504loPI   C1A 8055   7.537  12.234  10.316 -0.3060 -0.1572 -0.1507
  504loPI   C2A 8056   7.573  12.178   9.931 -0.0129  0.0675 -0.2603
  504loPI   C3A 8057   7.505  12.188   9.441 -0.0837 -0.3327  0.0495
  504loPI   C4A 8058   7.530  12.135   8.957  0.2259 -0.0016 -0.0533
  504loPI   C5A 8059   7.762  12.228   8.570 -0.2284  0.1898 -0.3058
  504loPI   C6A 8060   8.057  12.210   8.205  0.0160  0.2042 -0.0262
  504loPI   C1B 8061   7.770  11.797  10.170 -0.2120 -0.2917  0.1795
  504loPI   C2B 8062   7.729  11.637   9.738 -0.0724  0.1900  0.0678
  504loPI   C3B 8063   7.765  11.697   9.304 -0.1589 -0.3814 -0.0088
  504loPI   C4B 8064   7.834  11.646   8.839 -0.1573  0.0004 -0.1209
  505loPI    C1 8065  16.945   1.009  11.607  0.1533  0.0605 -0.0808
  505loPI    C2 8066  16.665   0.972  11.890 -0.0361 -0.0873 -0.2852
  505loPI    C3 8067  17.045   1.041  11.993 -0.1701  0.2679 -0.0109
  505loPI   PO4 8068  16.914   1.088  11.367 -0.0777  0.3153  0.0615
  505loPI   GL1 8069  16.981   1.111  11.034 -0.1186  0.2003 -0.0369
  505loPI   GL2 8070  16.593   1.081  10.969  0.0343 -0.0458 -0.1650
  505loPI   C1A 8071  16.943   1.077  10.578 -0.2950  0.2569 -0.0343
  505loPI   C2A 8072  16.848   1.034  10.186 -0.0555 -0.1612 -0.0940
  505loPI   C3A 8073  16.908   1.002   9.760 -0.6375  0.2235  0.2058
  505loPI   C4A 8074  16.781   1.059   9.433  0.0630 -0.0826  0.0800
  505loPI   C5A 8075  16.591   1.186   9.035 -0.2230 -0.0290  0.0051
  505loPI   C6A 8076  16.473   1.088   8.601 -0.1459 -0.0425 -0.0304
  505loPI   C1B 8077  16.463   1.199  10.594  0.1311  0.0750 -0.0488
  505loPI   C2B 8078  16.363   1.126  10.219  0.0150 -0.0567  0.2128
  505loPI   C3B 8079  16.429   1.068   9.864  0.1590 -0.2879  0.1367
  505loPI   C4B 8080  16.242   1.031   9.413  0.0041  0.1981  0.0169
  506loPI    C1 8081  17.325  14.916  11.857 -0.0833  0.2628 -0.0281
  506loPI    C2 8082  17.471  14.699  12.159  0.1045  0.0973 -0.2343
  506loPI    C3 8083  17.240  15.016  12.235  0.0140 -0.0387  0.0767
  506loPI   PO4 8084  17.230  14.833  11.718 -0.1972 -0.0935 -0.0944
  506loPI   GL1 8085  17.235  14.805  11.283  0.2006  0.2794 -0.2777
  506loPI   GL2 8086  17.107  14.844  11.092  0.1015  0.2705 -0.0368
  506loPI   C1A 8087  17.329  15.202  10.898 -0.0277  0.3097  0.0456
  506loPI   C2A 8088  17.424  15.223  10.399  0.2157  0.0722 -0.0575
  506loPI   C3A 8089  17.405  15.181   9.977  0.1724 -0.1560 -0.1759
  506loPI   C4A 8090  17.345  15.009   9.700  0.1354  0.0909  0.0822
  506loPI   C5A 8091  17.469  15.042   9.261  0.0426 -0.0809  0.0281
  506loPI   C6A 8092  17.648  15.010   8.821 -0.3038 -0.3305  0.2098
  506loPI   C1B 8093  17.026  14.785  10.670 -0.0840  0.2249  0.0633
  506loPI   C2B 8094  17.120  14.815  10.232 -0.0652  0.3959  0.2232
  506loPI   C3B 8095  17.099  14.614   9.825  0.0291  0.2186 -0.0736
  506loPI   C4B 8096  17.123  14.600   9.390 -0.3442 -0.2299 -0.0407
  507loPI    C1 8097   3.093  11.646  11.629  0.3309  0.0103  0.1288
  507loPI    C2 8098   3.054  11.444  11.972 -0.0292 -0.0868  0.0351
  507loPI    C3 8099   3.133  11.836  11.979 -0.1462 -0.0653  0.2311
  507loPI   PO4 8100   2.944  11.593  11.478 -0.0135 -0.0965  0.1414
  507loPI   GL1 8101   2.722  11.593  11.116 -0.3355  0.2848 -0.0371
  507loPI   GL2 8102   2.721  11.957  10.959  0.2363  0.2677  0.4315
  507loPI   C1A 8103   2.492  11.551  10.741  0.1327 -0.0976 -0.0206
  507loPI   C2A 8104   2.552  11.514  10.311 -0.1208 -0.0675  0.1565
  507loPI   C3A 8105   2.549  11.554   9.921 -0.0576  0.4971 -0.2866
  507loPI   C4A 8106   2.525  11.491   9.471 -0.1378  0.0159 -0.4918
  507loPI   C5A 8107   2.600  11.394   9.049  0.1574 -0.4048 -0.1877
  507loPI   C6A 8108   2.613  11.146   8.630  0.3247  0.1342  0.1687
  507loPI   C1B 8109   2.838  11.911  10.540  0.0049 -0.0257 -0.1245
  507loPI   C2B 8110   2.920  11.831  10.136 -0.1439 -0.1190  0.2159
  507loPI   C3B 8111   2.851  11.854   9.634 -0.2418 -0.2072 -0.1236
  507loPI   C4B 8112   2.809  11.944   9.140 -0.0402  0.0504 -0.1178
  508loPI    C1 8113   4.203  17.452  11.534  0.1532 -0.1697  0.0060
  508loPI    C2 8114   4.135  17.728  11.815 -0.2312 -0.0032 -0.2420
  508loPI    C3 8115   4.266  17.365  11.919 -0.1740  0.1197  0.1306
  508loPI   PO4 8116   4.079  17.455  11.379 -0.0619  0.2048 -0.0652
  508loPI   GL1 8117   3.825  17.556  10.995 -0.0818  0.0848  0.3221
  508loPI   GL2 8118   4.009  17.793  11.033  0.2480 -0.1189  0.2251
  508loPI   C1A 8119   3.841  17.625  10.540  0.1276  0.0413  0.2370
  508loPI   C2A 8120   3.901  17.722  10.100 -0.0795  0.0221 -0.0997
  508loPI   C3A 8121   3.865  17.679   9.636 -0.1981  0.1761 -0.1877
  508loPI   C4A 8122   3.961  17.736   9.221  0.0800  0.1814  0.1652
  508loPI   C5A 8123   4.350  17.688   8.965  0.0366  0.0282  0.1059
  508loPI   C6A 8124   4.522  17.730   8.560 -0.0856 -0.1327  0.2384
  508loPI   C1B 8125   4.140  18.028  10.622 -0.3477 -0.0303 -0.0111
  508loPI   C2B 8126   4.226  18.095  10.247 -0.3291 -0.1843  0.0423
  508loPI   C3B 8127   4.199  18.153   9.847  0.1368  0.1380 -0.0108
  508loPI   C4B 8128   4.207  18.100   9.412 -0.0295 -0.3154  0.0417
  509loPI    C1 8129  12.327   4.300  11.622 -0.3523 -0.1243  0.0476
  509loPI    C2 8130  12.416   4.625  11.837 -0.1531 -0.2024  0.0857
  509loPI    C3 8131  12.039   4.491  11.824 -0.2493  0.0667  0.0166
  509loPI   PO4 8132  12.488   4.344  11.411  0.1283 -0.4417  0.0435
  509loPI   GL1 8133  12.513   4.515  10.985  0.0712  0.2526 -0.0114
  509loPI   GL2 8134  12.679   4.253  10.823  0.0343 -0.2934 -0.3821
  509loPI   C1A 8135  12.528   4.775  10.679 -0.1290 -0.1136  0.0064
  509loPI   C2A 8136  12.452   4.783  10.224  0.3107  0.1361 -0.0786
  509loPI   C3A 8137  12.490   4.783   9.851  0.2523  0.1680  0.0486
  509loPI   C4A 8138  12.478   4.829   9.359 -0.2461  0.1687 -0.0477
  509loPI   C5A 8139  12.482   4.804   8.894 -0.2134 -0.3937  0.1304
  509loPI   C6A 8140  12.657   4.830   8.467  0.0244 -0.0184 -0.1164
  509loPI   C1B 8141  12.623   4.348  10.413 -0.0724  0.0093 -0.0400
  509loPI   C2B 8142  12.639   4.265   9.973  0.1201  0.1440  0.1713
  509loPI   C3B 8143  12.590   4.348   9.602 -0.1265 -0.2996  0.2879
  509loPI   C4B 8144  12.638   4.249   9.229 -0.0492 -0.1179 -0.1089
  510loPI    C1 8145   3.220   5.250  11.842 -0.3549  0.0154 -0.1128
  510loPI    C2 8146   3.406   5.439  12.141 -0.4403  0.2547 -0.2091
  510loPI    C3 8147   3.113   5.179  12.221 -0.1474 -0.0370 -0.0628
  510loPI   PO4 8148   3.377   5.124  11.673 -0.1055  0.0771 -0.1429
  510loPI   GL1 8149   3.380   5.227  11.233  0.2115  0.2932 -0.3555
  510loPI   GL2 8150   3.354   5.549  11.080  0.0693 -0.1001  0.1876
  510loPI   C1A 8151   3.245   5.000  10.853 -0.0354  0.3398  0.3382
  510loPI   C2A 8152   3.202   5.005  10.386 -0.0835 -0.0353  0.1374
  510loPI   C3A 8153   3.263   5.112  10.015  0.1281 -0.2666  0.0880
  510loPI   C4A 8154   3.232   5.050   9.555 -0.3045  0.0883  0.1282
  510loPI   C5A 8155   3.369   5.071   9.154  0.0613  0.1249  0.1154
  510loPI   C6A 8156   3.706   5.031   8.946  0.2115  0.4308  0.0133
  510loPI   C1B 8157   3.533   5.534  10.707 -0.0138 -0.2401 -0.3117
  510loPI   C2B 8158   3.583   5.429  10.229  0.2975 -0.1338  0.0841
  510loPI   C3B 8159   3.545   5.456   9.768 -0.2378 -0.0542 -0.0670
  510loPI   C4B 8160   3.471   5.490   9.381 -0.3938 -0.0840  0.0265
  511loPI    C1 8161  11.018  11.227  11.550 -0.4021 -0.1215  0.0638
  511loPI    C2 8162  11.040  11.450  11.881 -0.2842 -0.1337  0.0645
  511loPI    C3 8163  11.032  11.051  11.908  0.1482 -0.1484  0.0364
  511loPI   PO4 8164  10.925  11.395  11.376  0.4876  0.2693 -0.0869
  511loPI   GL1 8165  11.043  11.619  10.970  0.0254 -0.2401 -0.0741
  511loPI   GL2 8166  10.710  11.512  10.912  0.1801 -0.0828 -0.0546
  511loPI   C1A 8167  11.031  11.786  10.574  0.0300  0.3092 -0.0718
  511loPI   C2A 8168  11.111  11.808  10.155  0.0485 -0.1064  0.1749
  511loPI   C3A 8169  11.114  11.745   9.746  0.3711 -0.1160  0.1702
  511loPI   C4A 8170  11.005  11.780   9.226  0.2081  0.3196  0.3419
  511loPI   C5A 8171  11.217  11.681   8.838 -0.1267 -0.3475 -0.0471
  511loPI   C6A 8172  11.097  11.665   8.463 -0.2096 -0.4551 -0.0790
  511loPI   C1B 8173  10.754  11.388  10.498  0.0347  0.1580 -0.0488
  511loPI   C2B 8174  10.872  11.404  10.010 -0.1814  0.1997  0.1943
  511loPI   C3B 8175  10.751  11.372   9.510  0.0771  0.0581 -0.2640
  511loPI   C4B 8176  10.715  11.430   9.066 -0.1764  0.0025 -0.0225
  512loPI    C1 8177   5.968  13.535  11.473 -0.1198  0.1782 -0.0609
  512loPI    C2 8178   5.653  13.446  11.704  0.0713 -0.1404  0.0838
  512loPI    C3 8179   6.004  13.540  11.871  0.1478 -0.1356 -0.0775
  512loPI   PO4 8180   5.880  13.642  11.245  0.1445  0.2301 -0.0523
  512loPI   GL1 8181   5.765  13.712  10.951  0.0707 -0.3467  0.0430
  512loPI   GL2 8182   6.018  13.357  10.885 -0.2567 -0.0506  0.0024
  512loPI   C1A 8183   5.837  13.768  10.432  0.0453 -0.2510  0.1747
  512loPI   C2A 8184   5.859  13.786   9.990 -0.1073  0.0903 -0.2579
  512loPI   C3A 8185   5.946  13.784   9.544 -0.1604  0.2013 -0.2496
  512loPI   C4A 8186   5.997  13.728   9.165  0.1330 -0.0196 -0.0500
  512loPI   C5A 8187   6.018  13.532   8.846 -0.2976  0.1287 -0.1014
  512loPI   C6A 8188   5.928  13.050   8.686 -0.0203  0.2381  0.3469
  512loPI   C1B 8189   6.087  13.262  10.558 -0.2351 -0.0192 -0.0021
  512loPI   C2B 8190   6.016  13.325  10.174 -0.1619  0.2583  0.0941
  512loPI   C3B 8191   6.077  13.348   9.812  0.2383  0.2967 -0.3438
  512loPI   C4B 8192   6.195  13.276   9.410 -0.0955 -0.0240 -0.1146
  513loPI    C1 8193   7.758   9.587  11.728 -0.1377 -0.1967 -0.0564
  513loPI    C2 8194   8.091   9.367  11.747  0.0299  0.0610  0.0339
  513loPI    C3 8195   7.828   9.357  12.048 -0.0798 -0.1949 -0.0678
  513loPI   PO4 8196   7.786   9.643  11.460 -0.1890 -0.1857 -0.0551
  513loPI   GL1 8197   7.787   9.644  10.982  0.0608 -0.4100 -0.1848
  513loPI   GL2 8198   7.576   9.902  11.017 -0.0760 -0.1134 -0.0377
  513loPI   C1A 8199   7.706   9.402  10.705  0.0933 -0.2092 -0.1813
  513loPI   C2A 8200   7.654   9.498  10.302  0.0699 -0.1539  0.1049
  513loPI   C3A 8201   7.657   9.532   9.862 -0.1024  0.2331  0.3273
  513loPI   C4A 8202   7.676   9.454   9.406 -0.1965 -0.0008  0.1672
  513loPI   C5A 8203   7.705   9.520   8.986  0.0455  0.0992 -0.3149
  513loPI   C6A 8204   7.596   9.651   8.543  0.0272  0.0800  0.1150
  513loPI   C1B 8205   7.504   9.920  10.613  0.2226  0.1705 -0.1873
  513loPI   C2B 8206   7.474   9.990  10.160  0.0269 -0.1233  0.3088
  513loPI   C3B 8207   7.461   9.953   9.706  0.2014  0.0284 -0.0027
  513loPI   C4B 8208   7.484   9.979   9.304  0.0104  0.0540  0.0956
  514loPI    C1 8209   9.034   9.182  11.261  0.1883  0.2177  0.0383
  514loPI    C2 8210   9.431   9.178  11.218  0.2123  0.0400  0.2557
  514loPI    C3 8211   9.269   9.123  11.579 -0.0119  0.0503  0.1582
  514loPI   PO4 8212   8.954   9.009  11.136 -0.2439  0.2208 -0.2158
  514loPI   GL1 8213   8.889   8.822  10.858 -0.1046 -0.0880 -0.1094
  514loPI   GL2 8214   8.650   8.728  10.804  0.3168 -0.0465 -0.1366
  514loPI   C1A 8215   8.828   8.870  10.382 -0.1576 -0.1214  0.1119
  514loPI   C2A 8216   8.867   8.781   9.890  0.0590 -0.0208 -0.4089
  514loPI   C3A 8217   8.846   8.879   9.464  0.1416 -0.1207  0.2190
  514loPI   C4A 8218   8.896   8.875   9.066  0.1385  0.2757  0.3770
  514loPI   C5A 8219   8.686   8.791   8.649  0.0218  0.1023  0.0085
  514loPI   C6A 8220   8.814   8.948   8.245  0.0615  0.3044  0.0679
  514loPI   C1B 8221   8.376   8.911  10.596 -0.1250 -0.0915 -0.2796
  514loPI   C2B 8222   8.360   8.923  10.173 -0.0130 -0.1388  0.0326
  514loPI   C3B 8223   8.389   8.918   9.698 -0.0488  0.1555  0.3443
  514loPI   C4B 8224   8.364   8.913   9.178 -0.2803  0.1899 -0.0527
  515loPI    C1 8225  12.863   5.343  11.651 -0.0545  0.1047  0.2595
  515loPI    C2 8226  12.740   5.058  11.903 -0.0667  0.0928  0.2405
  515loPI    C3 8227  12.982   5.349  12.032  0.0104  0.0290  0.2406
  515loPI   PO4 8228  12.937   5.337  11.410 -0.0808  0.2639 -0.4401
  515loPI   GL1 8229  12.942   5.530  11.000 -0.3067  0.1009  0.6385
  515loPI   GL2 8230  13.231   5.507  10.939  0.1057 -0.0229 -0.1641
  515loPI   C1A 8231  12.819   5.304  10.717 -0.0207 -0.1505  0.2693
  515loPI   C2A 8232  12.770   5.197  10.310  0.0485 -0.0969 -0.3660
  515loPI   C3A 8233  12.824   5.214   9.963 -0.1099 -0.2022 -0.1444
  515loPI   C4A 8234  12.788   5.201   9.560  0.0496 -0.0017  0.0303
  515loPI   C5A 8235  12.767   5.193   9.143 -0.0599 -0.3211  0.0462
  515loPI   C6A 8236  12.778   5.223   8.671 -0.0743  0.2804 -0.1567
  515loPI   C1B 8237  13.129   5.588  10.485 -0.0915  0.2756  0.0914
  515loPI   C2B 8238  13.189   5.598  10.128 -0.0768  0.1049  0.1173
  515loPI   C3B 8239  13.095   5.619   9.664  0.2204 -0.0289  0.1369
  515loPI   C4B 8240  13.128   5.606   9.179  0.0696 -0.0469  0.0008
  516loPI    C1 8241   9.030   7.556  11.512  0.0158  0.0100  0.0115
  516loPI    C2 8242   8.710   7.758  11.643 -0.0425 -0.0535 -0.0321
  516loPI    C3 8243   9.005   7.664  11.896 -0.0401  0.0392 -0.0002
  516loPI   PO4 8244   9.124   7.617  11.327  0.0194 -0.0238 -0.0277
  516loPI   GL1 8245   9.056   7.546  10.866 -0.0686 -0.0196 -0.0890
  516loPI   GL2 8246   9.416   7.492  10.779  0.1228 -0.1613 -0.3283
  516loPI   C1A 8247   8.903   7.434  10.493  0.1408  0.2234 -0.2912
  516loPI   C2A 8248   8.958   7.374  10.094 -0.0241 -0.2467 -0.0954
  516loPI   C3A 8249   8.892   7.475   9.683  0.1004  0.0102  0.2692
  516loPI   C4A 8250   8.906   7.528   9.237 -0.6351 -0.2874  0.1490
  516loPI   C5A 8251   9.017   7.549   8.781  0.2211 -0.0748 -0.0022
  516loPI   C6A 8252   9.269   7.283   8.549 -0.1250 -0.0713  0.0274
  516loPI   C1B 8253   9.364   7.499  10.339  0.0878 -0.0876 -0.2024
  516loPI   C2B 8254   9.546   7.413  10.008  0.1138 -0.0248 -0.0424
  516loPI   C3B 8255   9.481   7.391   9.589 -0.1075 -0.0960 -0.0611
  516loPI   C4B 8256   9.399   7.473   9.131 -0.0700 -0.4006  0.1115
  517loPI    C1 8257   4.746  14.700  11.928 -0.1777 -0.0595 -0.0002
  517loPI    C2 8258   4.541  14.501  12.208  0.1927  0.0066  0.3272
  517loPI    C3 8259   4.634  14.886  12.264  0.2982  0.0119  0.1266
  517loPI   PO4 8260   4.580  14.598  11.648 -0.2074 -0.2794  0.1836
  517loPI   GL1 8261   4.571  14.498  11.169 -0.1141  0.1139  0.3537
  517loPI   GL2 8262   4.720  14.229  11.008  0.3760  0.3489  0.0838
  517loPI   C1A 8263   4.408  14.834  10.890  0.0898  0.0236  0.0540
  517loPI   C2A 8264   4.536  14.871  10.457  0.0822 -0.1085 -0.1295
  517loPI   C3A 8265   4.524  14.859  10.083  0.1177 -0.0494 -0.0421
  517loPI   C4A 8266   4.564  14.851   9.583  0.1212  0.0918 -0.3322
  517loPI   C5A 8267   4.493  14.926   9.187  0.0430  0.2073  0.0716
  517loPI   C6A 8268   4.377  15.019   8.752  0.2156 -0.1990  0.0470
  517loPI   C1B 8269   4.766  13.905  10.765  0.0732 -0.1882 -0.3744
  517loPI   C2B 8270   4.870  13.932  10.314  0.2662  0.0384 -0.0996
  517loPI   C3B 8271   4.858  13.920   9.831  0.0034 -0.1922 -0.1719
  517loPI   C4B 8272   4.886  13.958   9.436  0.0476  0.1121 -0.0805
  518loPI    C1 8273   8.396   2.887  11.805 -0.0225 -0.0954  0.2866
  518loPI    C2 8274   8.096   3.132  11.907 -0.0817 -0.1072  0.1438
  518loPI    C3 8275   8.027   2.741  11.858 -0.0932 -0.0743 -0.1144
  518loPI   PO4 8276   8.527   2.959  11.592 -0.1352 -0.0889 -0.1596
  518loPI   GL1 8277   8.448   2.917  11.129  0.0578 -0.3703  0.0557
  518loPI   GL2 8278   8.622   2.846  10.960 -0.0311 -0.0895 -0.1229
  518loPI   C1A 8279   8.598   3.328  10.740 -0.3646  0.1512  0.2853
  518loPI   C2A 8280   8.695   3.328  10.304  0.0767 -0.1740 -0.1341
  518loPI   C3A 8281   8.761   3.367   9.874 -0.1210  0.0792 -0.0267
  518loPI   C4A 8282   8.663   3.449   9.459  0.1489 -0.4362 -0.0297
  518loPI   C5A 8283   8.700   3.355   8.969 -0.1864 -0.4102 -0.2031
  518loPI   C6A 8284   8.653   3.412   8.599 -0.0488  0.0656  0.1069
  518loPI   C1B 8285   8.408   2.913  10.584 -0.1386 -0.0463  0.1006
  518loPI   C2B 8286   8.408   2.919  10.139 -0.0627 -0.0391 -0.3164
  518loPI   C3B 8287   8.317   2.972   9.694 -0.0779  0.2588  0.1026
  518loPI   C4B 8288   8.394   3.025   9.343 -0.0448 -0.2382  0.1373
  519loPI    C1 8289   4.182   6.402  11.644  0.2142 -0.0644  0.1466
  519loPI    C2 8290   4.119   6.119  11.921  0.1051 -0.2124 -0.0266
  519loPI    C3 8291   4.258   6.479  12.029  0.0176 -0.2527  0.2253
  519loPI   PO4 8292   3.997   6.385  11.423  0.0391  0.1110  0.0884
  519loPI   GL1 8293   4.036   6.427  11.089  0.1183 -0.0117 -0.0236
  519loPI   GL2 8294   3.769   6.360  10.940  0.2973 -0.1114 -0.0109
  519loPI   C1A 8295   4.242   6.261  10.696 -0.0952  0.1659 -0.0950
  519loPI   C2A 8296   4.179   6.238  10.298 -0.0280 -0.1412  0.0314
  519loPI   C3A 8297   4.215   6.220   9.891  0.0516 -0.0306  0.1090
  519loPI   C4A 8298   4.114   6.326   9.461  0.0048  0.0756 -0.0729
  519loPI   C5A 8299   4.165   6.283   8.995  0.1072 -0.0634  0.0138
  519loPI   C6A 8300   4.376   6.547   8.745 -0.1577  0.1171  0.2088
  519loPI   C1B 8301   3.765   6.437  10.468 -0.0294 -0.0590  0.0234
  519loPI   C2B 8302   3.748   6.318  10.137 -0.0272  0.0212 -0.0154
  519loPI   C3B 8303   3.631   6.244   9.752 -0.2195  0.1612  0.1016
  519loPI   C4B 8304   3.653   6.290   9.257  0.0333  0.1077 -0.0308
  520loPI    C1 8305   6.338   0.274  11.552 -0.1280 -0.0543 -0.1674
  520loPI    C2 8306   6.415   0.152  11.925  0.0974  0.1735 -0.1365
  520loPI    C3 8307   6.130   0.425  11.858  0.1287  0.2107 -0.1188
  520loPI   PO4 8308   6.524   0.313  11.471 -0.2452  0.1470 -0.1021
  520loPI   GL1 8309   6.636   0.067  11.179  0.0636  0.1960  0.0334
  520loPI   GL2 8310   7.099  -0.048  11.098  0.0624 -0.1528 -0.2781
  520loPI   C1A 8311   6.622   0.042  10.785  0.1081 -0.0600 -0.3162
  520loPI   C2A 8312   6.674   0.082  10.425 -0.0291 -0.1068 -0.2148
  520loPI   C3A 8313   6.692  -0.110  10.052  0.1621 -0.0487 -0.2309
  520loPI   C4A 8314   6.675   0.039   9.609 -0.0220  0.2337 -0.2194
  520loPI   C5A 8315   6.727   0.080   9.168 -0.1752  0.0259 -0.0402
  520loPI   C6A 8316   6.417  -0.177   8.932  0.3047  0.0672  0.5495
  520loPI   C1B 8317   7.120  -0.062  10.689 -0.1337 -0.2425  0.0322
  520loPI   C2B 8318   7.248  -0.130  10.178 -0.0480  0.0608  0.1386
  520loPI   C3B 8319   7.209  -0.033   9.716  0.1083  0.1576 -0.0192
  520loPI   C4B 8320   7.189   0.067   9.342 -0.1138 -0.1488  0.1393
  521loPI    C1 8321  17.086   3.735  11.537  0.1498  0.2863  0.0393
  521loPI    C2 8322  17.372   3.551  11.747 -0.1008  0.0364  0.1684
  521loPI    C3 8323  17.001   3.577  11.895 -0.1562  0.3226 -0.0145
  521loPI   PO4 8324  17.122   3.601  11.273  0.0707  0.1110  0.0561
  521loPI   GL1 8325  17.373   3.566  10.947  0.0085  0.0393 -0.0579
  521loPI   GL2 8326  17.653   3.489  10.951 -0.0046  0.1138 -0.2004
  521loPI   C1A 8327  17.245   3.773  10.603  0.1035 -0.2303 -0.0628
  521loPI   C2A 8328  17.188   3.786  10.152 -0.1614 -0.0610  0.0067
  521loPI   C3A 8329  17.205   3.717   9.666 -0.2650 -0.0451  0.3256
  521loPI   C4A 8330  17.275   3.650   9.170 -0.2963  0.2362  0.0824
  521loPI   C5A 8331  17.233   3.674   8.714 -0.0959  0.4250  0.1387
  521loPI   C6A 8332  17.422   3.452   8.331 -0.0870 -0.6145  0.0604
  521loPI   C1B 8333  17.752   3.722  10.572  0.1406  0.2538 -0.0966
  521loPI   C2B 8334  17.686   3.767  10.154 -0.1785 -0.1590  0.2281
  521loPI   C3B 8335  17.715   3.647   9.713 -0.0724 -0.2126  0.1341
  521loPI   C4B 8336  17.744   3.531   9.276  0.0091 -0.1116  0.1839
  522loPI    C1 8337  16.769   7.023  11.230 -0.0924  0.0723  0.1329
  522loPI    C2 8338  16.710   7.399  11.353 -0.0685  0.0710  0.1485
  522loPI    C3 8339  16.834   7.121  11.613 -0.2105  0.0230  0.1659
  522loPI   PO4 8340  16.931   6.984  10.979  0.2534 -0.1016  0.1451
  522loPI   GL1 8341  17.194   6.906  10.670 -0.1876  0.2680 -0.0331
  522loPI   GL2 8342  16.836   6.940  10.510 -0.2566 -0.0646 -0.0272
  522loPI   C1A 8343  17.325   6.909  10.357 -0.0661  0.2152  0.0626
  522loPI   C2A 8344  17.396   6.894   9.936  0.0678 -0.0630  0.2771
  522loPI   C3A 8345  17.300   6.983   9.435  0.1489 -0.1094 -0.2180
  522loPI   C4A 8346  17.288   7.024   9.049 -0.3364 -0.1164  0.3590
  522loPI   C5A 8347  17.289   7.032   8.574  0.1921 -0.1295  0.0718
  522loPI   C6A 8348  17.244   7.230   8.143 -0.1090 -0.0274 -0.2232
  522loPI   C1B 8349  16.819   6.980  10.138  0.0954  0.3754  0.0079
  522loPI   C2B 8350  16.865   7.016   9.727 -0.0458  0.0004 -0.0626
  522loPI   C3B 8351  16.822   7.082   9.295 -0.1182 -0.3114 -0.0193
  522loPI   C4B 8352  16.834   7.052   8.796  0.0635  0.1799 -0.1061
  523loPI    C1 8353  12.299   7.096  11.445 -0.0790  0.0245  0.1051
  523loPI    C2 8354  12.676   7.022  11.553  0.0049  0.1921 -0.0669
  523loPI    C3 8355  12.375   6.918  11.795  0.1703  0.2358  0.1614
  523loPI   PO4 8356  12.393   7.100  11.169 -0.3793 -0.1075  0.2548
  523loPI   GL1 8357  12.402   7.182  10.790 -0.2133 -0.1185  0.3165
  523loPI   GL2 8358  12.653   7.009  10.765 -0.1097  0.1677  0.0667
  523loPI   C1A 8359  12.235   7.422  10.429 -0.1050  0.0516  0.1489
  523loPI   C2A 8360  12.276   7.521  10.050 -0.0898  0.0002 -0.1810
  523loPI   C3A 8361  12.315   7.560   9.637  0.0523  0.3636 -0.3031
  523loPI   C4A 8362  12.382   7.438   9.209 -0.1020 -0.1643  0.1311
  523loPI   C5A 8363  12.447   7.646   8.792 -0.1172  0.0244  0.0521
  523loPI   C6A 8364  12.751   7.687   8.484 -0.0828 -0.0088 -0.0627
  523loPI   C1B 8365  12.625   7.021  10.341  0.1291 -0.0340 -0.0421
  523loPI   C2B 8366  12.493   7.069   9.894 -0.0375 -0.0580 -0.0653
  523loPI   C3B 8367  12.456   7.050   9.482 -0.0095  0.0667  0.1789
  523loPI   C4B 8368  12.506   6.973   9.051  0.0801 -0.0091 -0.0936
  524loPI    C1 8369  15.806   7.790  11.590  0.1920  0.0297 -0.0126
  524loPI    C2 8370  15.951   7.599  11.910  0.1904  0.1088  0.0357
  524loPI    C3 8371  16.006   7.993  11.871  0.0475  0.1274  0.0206
  524loPI   PO4 8372  15.791   7.556  11.456 -0.1742 -0.1052 -0.0380
  524loPI   GL1 8373  15.821   7.338  11.042 -0.1550 -0.2149 -0.0195
  524loPI   GL2 8374  15.836   7.001  11.083  0.2701  0.0531  0.0597
  524loPI   C1A 8375  15.684   7.543  10.564  0.0354 -0.0090  0.1745
  524loPI   C2A 8376  15.683   7.510  10.111  0.0902  0.3356 -0.0730
  524loPI   C3A 8377  15.646   7.542   9.694 -0.0095 -0.3239 -0.0164
  524loPI   C4A 8378  15.615   7.547   9.302  0.5385 -0.0170  0.0562
  524loPI   C5A 8379  15.338   7.560   8.949  0.3217  0.0131 -0.0062
  524loPI   C6A 8380  15.376   7.710   8.539  0.3277  0.0062 -0.0745
  524loPI   C1B 8381  15.844   7.065  10.654  0.1554 -0.1200  0.0279
  524loPI   C2B 8382  15.872   7.038  10.229 -0.0449  0.0011 -0.0111
  524loPI   C3B 8383  15.781   7.064   9.809 -0.3164 -0.4475  0.0835
  524loPI   C4B 8384  15.918   7.139   9.399 -0.1834 -0.1064  0.3498
  525loPI    C1 8385   1.229  10.268  11.839  0.1457  0.2198 -0.0039
  525loPI    C2 8386   0.967  10.568  11.877  0.1145  0.1822  0.0828
  525loPI    C3 8387   1.010  10.302  12.172 -0.0315 -0.0373 -0.0906
  525loPI   PO4 8388   1.233  10.366  11.530 -0.0523 -0.0608  0.0625
  525loPI   GL1 8389   1.259  10.545  11.167 -0.0622 -0.0358  0.0126
  525loPI   GL2 8390   1.466  10.750  11.007 -0.2631  0.0769 -0.2507
  525loPI   C1A 8391   1.098  10.274  10.811  0.2598 -0.0554  0.2074
  525loPI   C2A 8392   1.072  10.273  10.444  0.0197 -0.3075  0.0256
  525loPI   C3A 8393   1.101  10.228   9.979  0.0889 -0.1658  0.0952
  525loPI   C4A 8394   1.119  10.372   9.560 -0.1542 -0.3738  0.1774
  525loPI   C5A 8395   1.081  10.406   9.157  0.0600 -0.0150  0.0677
  525loPI   C6A 8396   1.248  10.208   8.765 -0.2942  0.0495 -0.0466
  525loPI   C1B 8397   1.317  10.680  10.613 -0.2012  0.1090 -0.0688
  525loPI   C2B 8398   1.388  10.715  10.204  0.0089  0.1062  0.1023
  525loPI   C3B 8399   1.452  10.710   9.751  0.1849 -0.3093 -0.1246
  525loPI   C4B 8400   1.402  10.718   9.245  0.0398  0.2114 -0.0756
  526loPI    C1 8401   5.099  13.331  11.483  0.0071  0.0275  0.0137
  526loPI    C2 8402   5.078  13.094  11.804  0.2460  0.0153  0.0222
  526loPI    C3 8403   5.181  13.478  11.846  0.3688 -0.0092 -0.0493
  526loPI   PO4 8404   5.283  13.307  11.386 -0.1503  0.0716  0.1568
  526loPI   GL1 8405   5.334  13.397  11.003 -0.2722 -0.0340  0.0744
  526loPI   GL2 8406   5.130  13.072  10.967  0.2103  0.2669  0.1894
  526loPI   C1A 8407   5.505  13.337  10.610 -0.0526  0.1082  0.2821
  526loPI   C2A 8408   5.534  13.387  10.255  0.0368 -0.0141  0.3282
  526loPI   C3A 8409   5.597  13.381   9.863  0.0178  0.2333  0.0098
  526loPI   C4A 8410   5.677  13.383   9.477  0.1049 -0.2015  0.3156
  526loPI   C5A 8411   5.593  13.362   9.004 -0.1270  0.0642 -0.0184
  526loPI   C6A 8412   5.426  13.182   8.484  0.0372 -0.0648 -0.2677
  526loPI   C1B 8413   5.206  12.966  10.574  0.3454  0.0668 -0.0273
  526loPI   C2B 8414   5.278  13.010  10.168  0.0130 -0.0409  0.0734
  526loPI   C3B 8415   5.313  12.959   9.730  0.1908  0.0144  0.0089
  526loPI   C4B 8416   5.326  13.028   9.283 -0.4359 -0.2558  0.2758
  527loPI    C1 8417  13.400   1.098  11.704  0.1832  0.0538 -0.0772
  527loPI    C2 8418  13.614   1.301  11.973  0.1417 -0.0544  0.0386
  527loPI    C3 8419  13.251   1.163  12.069  0.0884 -0.0143 -0.1031
  527loPI   PO4 8420  13.372   1.251  11.502 -0.2502 -0.1662 -0.1427
  527loPI   GL1 8421  13.645   1.510  11.129 -0.5201 -0.1278 -0.2189
  527loPI   GL2 8422  13.593   1.813  10.984 -0.0903  0.0703  0.1100
  527loPI   C1A 8423  13.885   1.469  10.734 -0.0306  0.0917 -0.0660
  527loPI   C2A 8424  13.839   1.463  10.374 -0.0430 -0.1500  0.0491
  527loPI   C3A 8425  13.722   1.500   9.984 -0.2315  0.1958 -0.1400
  527loPI   C4A 8426  13.798   1.464   9.576  0.0637  0.0025  0.0205
  527loPI   C5A 8427  13.749   1.293   9.179  0.1956  0.0181  0.0577
  527loPI   C6A 8428  13.746   1.216   8.718  0.0494  0.1797  0.0183
  527loPI   C1B 8429  13.683   1.982  10.578 -0.1075  0.0094 -0.1624
  527loPI   C2B 8430  13.557   2.030  10.189 -0.0259 -0.1714 -0.6216
  527loPI   C3B 8431  13.518   1.875   9.768  0.1761  0.1015 -0.0406
  527loPI   C4B 8432  13.562   1.825   9.388  0.2054 -0.0553 -0.0684
  528loPI    C1 8433   9.870   3.763  11.266  0.0291 -0.0001 -0.2358
  528loPI    C2 8434   9.588   3.693  11.541  0.0605  0.3962 -0.0961
  528loPI    C3 8435   9.959   3.554  11.596  0.0035  0.2546 -0.0645
  528loPI   PO4 8436   9.849   3.644  11.114  0.0345 -0.1050 -0.2184
  528loPI   GL1 8437   9.940   3.688  10.655 -0.1282 -0.0549  0.2020
  528loPI   GL2 8438   9.537   3.806  10.484  0.0199  0.1111 -0.1556
  528loPI   C1A 8439   9.989   3.747  10.229  0.1772 -0.2032  0.1550
  528loPI   C2A 8440  10.007   3.717   9.782  0.3452 -0.4776  0.0777
  528loPI   C3A 8441   9.940   3.693   9.272  0.2431 -0.2380  0.1436
  528loPI   C4A 8442   9.980   3.753   8.813  0.1705  0.0807  0.2441
  528loPI   C5A 8443  10.322   3.847   8.502  0.1429 -0.3006  0.0479
  528loPI   C6A 8444  10.438   4.230   8.253  0.2174 -0.1726  0.2059
  528loPI   C1B 8445   9.511   3.854   9.958  0.1206  0.1463 -0.2373
  528loPI   C2B 8446   9.516   3.770   9.536  0.0966  0.0891  0.0528
  528loPI   C3B 8447   9.446   3.860   9.131 -0.1047 -0.1213  0.1576
  528loPI   C4B 8448   9.507   3.778   8.714  0.1248  0.0108 -0.1388
  529loPI    C1 8449   8.584   4.608  11.453  0.1446  0.0874  0.2549
  529loPI    C2 8450   8.379   4.300  11.605  0.1436 -0.0080  0.0640
  529loPI    C3 8451   8.455   4.621  11.831  0.1361 -0.1433  0.2617
  529loPI   PO4 8452   8.520   4.564  11.172 -0.0496 -0.1071  0.0983
  529loPI   GL1 8453   8.483   4.397  10.731 -0.3344 -0.1578 -0.3519
  529loPI   GL2 8454   8.817   4.439  10.825 -0.2362 -0.0522  0.0010
  529loPI   C1A 8455   8.373   4.366  10.256 -0.3863  0.0325  0.1502
  529loPI   C2A 8456   8.288   4.274   9.920  0.0779 -0.2140 -0.3487
  529loPI   C3A 8457   8.156   4.339   9.561  0.0432 -0.2599  0.1979
  529loPI   C4A 8458   8.301   4.445   9.167  0.2183  0.1358  0.2283
  529loPI   C5A 8459   8.229   4.384   8.697 -0.0696  0.0923 -0.0922
  529loPI   C6A 8460   8.199   4.359   8.181  0.2432 -0.2956  0.0162
  529loPI   C1B 8461   8.832   4.295  10.428  0.0311  0.0485  0.0865
  529loPI   C2B 8462   8.831   4.280  10.009  0.3751 -0.2251 -0.2204
  529loPI   C3B 8463   8.761   4.325   9.614 -0.4905 -0.0433 -0.2771
  529loPI   C4B 8464   8.809   4.289   9.099 -0.0020  0.1983 -0.2712
  530loPI    C1 8465  10.280  12.953  11.485 -0.0655 -0.0447 -0.0857
  530loPI    C2 8466  10.610  12.841  11.680 -0.0920  0.0261  0.0007
  530loPI    C3 8467  10.439  13.193  11.762 -0.1267  0.0382 -0.1219
  530loPI   PO4 8468  10.374  12.963  11.246 -0.0713 -0.0186  0.0345
  530loPI   GL1 8469  10.499  12.874  10.863 -0.1796  0.0238 -0.0907
  530loPI   GL2 8470  10.200  12.739  10.739  0.1623 -0.3009 -0.0369
  530loPI   C1A 8471  10.626  12.756  10.551  0.0068 -0.0451  0.1711
  530loPI   C2A 8472  10.734  12.709  10.140 -0.1757 -0.2477 -0.2359
  530loPI   C3A 8473  10.740  12.833   9.735 -0.2209  0.0936 -0.2590
  530loPI   C4A 8474  11.051  13.126   9.583  0.1560  0.1439 -0.0629
  530loPI   C5A 8475  10.873  13.550   9.501 -0.1814  0.1182 -0.0281
  530loPI   C6A 8476  10.670  14.018   9.442 -0.0866 -0.0398  0.2681
  530loPI   C1B 8477  10.253  12.804  10.226 -0.0041  0.1540 -0.3589
  530loPI   C2B 8478  10.254  12.806   9.847  0.1047  0.0538  0.0578
  530loPI   C3B 8479  10.307  12.800   9.387 -0.1698 -0.3328  0.0878
  530loPI   C4B 8480  10.307  12.905   8.919  0.1003 -0.0335 -0.1002
  531loPI    C1 8481   8.484   8.140  11.550 -0.0838  0.3165 -0.1056
  531loPI    C2 8482   8.496   8.518  11.679  0.2195  0.2514  0.0645
  531loPI    C3 8483   8.702   8.234  11.871  0.3404  0.0759 -0.3141
  531loPI   PO4 8484   8.364   8.197  11.272  0.1348  0.0712  0.2488
  531loPI   GL1 8485   8.616   8.253  10.886  0.2200 -0.0482 -0.3481
  531loPI   GL2 8486   8.714   7.997  10.627 -0.0740 -0.1479  0.1052
  531loPI   C1A 8487   8.520   8.423  10.441 -0.2951  0.2989  0.0078
  531loPI   C2A 8488   8.600   8.410   9.961 -0.1724  0.2133  0.0150
  531loPI   C3A 8489   8.554   8.461   9.518 -0.1595  0.3800  0.0805
  531loPI   C4A 8490   8.551   8.393   9.025 -0.0801 -0.1646 -0.0956
  531loPI   C5A 8491   8.449   8.323   8.542 -0.1333  0.1693  0.0357
  531loPI   C6A 8492   8.035   8.418   8.198 -0.1103 -0.2411 -0.2700
  531loPI   C1B 8493   8.713   7.914  10.215  0.0584 -0.0710  0.0382
  531loPI   C2B 8494   8.724   7.963   9.793 -0.0733 -0.0799  0.0853
  531loPI   C3B 8495   8.706   7.988   9.330  0.1049 -0.0855  0.3727
  531loPI   C4B 8496   8.692   7.951   8.836  0.1569 -0.2607  0.4943
  532loPI    C1 8497   4.551  16.042  11.757 -0.0988 -0.0046  0.1747
  532loPI    C2 8498   4.202  15.885  11.640 -0.0246 -0.1109  0.0946
  532loPI    C3 8499   4.414  15.709  11.931 -0.1459  0.0802  0.3011
  532loPI   PO4 8500   4.657  16.079  11.423 -0.0361 -0.3851 -0.2293
  532loPI   GL1 8501   4.807  15.854  11.034  0.2784  0.4001  0.2789
  532loPI   GL2 8502   4.882  16.115  10.943 -0.0845  0.2536 -0.1107
  532loPI   C1A 8503   5.054  15.664  10.738 -0.2722  0.0620  0.1151
  532loPI   C2A 8504   5.204  15.612  10.353 -0.2874 -0.0479 -0.0338
  532loPI   C3A 8505   5.184  15.704   9.870 -0.0432 -0.0400  0.0000
  532loPI   C4A 8506   5.245  15.691   9.397 -0.2414 -0.2046  0.2025
  532loPI   C5A 8507   5.089  15.773   9.001  0.0555 -0.0704 -0.0855
  532loPI   C6A 8508   4.609  15.704   8.896 -0.2711  0.3285 -0.1742
  532loPI   C1B 8509   4.922  16.147  10.438  0.2013 -0.0835 -0.0512
  532loPI   C2B 8510   4.942  16.212   9.983 -0.0897 -0.0498 -0.0909
  532loPI   C3B 8511   4.960  16.139   9.562 -0.1026 -0.0095 -0.1984
  532loPI   C4B 8512   4.943  16.321   9.173  0.0747  0.0278 -0.2036
  533loPI    C1 8513   5.207  11.886  11.374  0.0575  0.0349 -0.2235
  533loPI    C2 8514   5.041  12.192  11.571  0.0848 -0.0180 -0.1173
  533loPI    C3 8515   5.024  11.823  11.724 -0.1708 -0.1136 -0.3673
  533loPI   PO4 8516   5.102  11.905  11.156  0.0865 -0.2307 -0.2099
  533loPI   GL1 8517   4.833  12.197  10.999 -0.2099 -0.2142 -0.1440
  533loPI   GL2 8518   4.986  12.514  11.117 -0.3776 -0.0461 -0.2125
  533loPI   C1A 8519   4.634  12.164  10.524  0.0933 -0.0110 -0.0078
  533loPI   C2A 8520   4.711  12.167  10.089 -0.0094  0.0333  0.2255
  533loPI   C3A 8521   4.682  12.181   9.598  0.1954 -0.1948  0.0575
  533loPI   C4A 8522   4.690  12.256   9.204  0.2865  0.0321  0.1550
  533loPI   C5A 8523   4.947  12.523   9.025  0.0880  0.0128 -0.0283
  533loPI   C6A 8524   5.322  12.825   8.829 -0.2517  0.2129 -0.1211
  533loPI   C1B 8525   4.947  12.609  10.738  0.0462  0.1113  0.1221
  533loPI   C2B 8526   5.013  12.570  10.282 -0.1260 -0.0327  0.1593
  533loPI   C3B 8527   5.050  12.585   9.930  0.0862  0.3593  0.1206
  533loPI   C4B 8528   5.079  12.589   9.513 -0.2037  0.0917  0.0721
  534loPI    C1 8529  11.415  14.822  11.305 -0.1113 -0.1010 -0.0564
  534loPI    C2 8530  11.073  14.739  11.495 -0.0026 -0.2719  0.0676
  534loPI    C3 8531  11.395  14.853  11.704  0.0044 -0.0665 -0.0529
  534loPI   PO4 8532  11.385  14.710  11.091 -0.0337  0.0224 -0.2111
  534loPI   GL1 8533  11.532  14.610  10.698  0.0566 -0.2827  0.1144
  534loPI   GL2 8534  11.362  14.333  10.662 -0.0224 -0.2025 -0.0071
  534loPI   C1A 8535  11.360  14.600  10.258  0.1230 -0.0644  0.1883
  534loPI   C2A 8536  11.385  14.395   9.878  0.1592  0.0773  0.2240
  534loPI   C3A 8537  11.441  14.467   9.369  0.2478 -0.2401 -0.1643
  534loPI   C4A 8538  11.498  14.347   8.974 -0.0059  0.0287  0.3876
  534loPI   C5A 8539  11.360  14.094   8.718  0.3047  0.0254  0.1216
  534loPI   C6A 8540  11.108  13.892   8.389 -0.3298  0.2221 -0.0474
  534loPI   C1B 8541  11.580  14.178  10.352 -0.3059  0.0435 -0.5218
  534loPI   C2B 8542  11.658  13.955   9.906  0.0044  0.2188 -0.0491
  534loPI   C3B 8543  11.659  13.998   9.544 -0.0292 -0.0172  0.2145
  534loPI   C4B 8544  11.683  13.928   9.139  0.2354 -0.1793 -0.0279
  535loPI    C1 8545   2.607  14.096  11.625 -0.0090 -0.0763  0.2425
  535loPI    C2 8546   2.827  13.824  11.818  0.4264  0.0410 -0.0721
  535loPI    C3 8547   2.856  14.211  11.916 -0.0311  0.0058  0.2293
  535loPI   PO4 8548   2.670  14.060  11.434 -0.0202  0.1683  0.1085
  535loPI   GL1 8549   2.829  13.864  11.108 -0.2992  0.0658  0.2024
  535loPI   GL2 8550   3.150  13.806  11.022  0.2668  0.2577  0.1407
  535loPI   C1A 8551   2.614  13.773  10.728  0.1161  0.2016 -0.1264
  535loPI   C2A 8552   2.523  13.740  10.357  0.0418  0.0650  0.0524
  535loPI   C3A 8553   2.617  13.678   9.964 -0.0277 -0.1835  0.1622
  535loPI   C4A 8554   2.569  13.738   9.503 -0.0085 -0.0599  0.0520
  535loPI   C5A 8555   2.546  13.873   9.047 -0.0017 -0.2225 -0.2454
  535loPI   C6A 8556   2.333  13.800   8.681 -0.0856  0.2551  0.1010
  535loPI   C1B 8557   3.087  13.704  10.575  0.1299 -0.2573  0.1712
  535loPI   C2B 8558   3.128  13.663  10.122  0.0669 -0.1790 -0.1261
  535loPI   C3B 8559   3.019  13.752   9.683 -0.3423  0.1296  0.0452
  535loPI   C4B 8560   2.980  13.913   9.244 -0.3438 -0.1073  0.1180
  536loPI    C1 8561   9.521   9.499  11.795  0.3975 -0.0067 -0.1791
  536loPI    C2 8562   9.812   9.510  12.070  0.1979  0.1324  0.0297
  536loPI    C3 8563   9.439   9.619  12.167  0.0246 -0.2541 -0.1763
  536loPI   PO4 8564   9.682   9.435  11.606 -0.0828 -0.2580 -0.1722
  536loPI   GL1 8565   9.764   9.519  11.155  0.0508  0.1070  0.0778
  536loPI   GL2 8566  10.107   9.532  10.981  0.0225  0.2479  0.1079
  536loPI   C1A 8567   9.697   9.268  10.759 -0.0823 -0.2165 -0.2030
  536loPI   C2A 8568   9.726   9.225  10.387  0.0504 -0.0325 -0.1819
  536loPI   C3A 8569   9.708   9.171   9.884 -0.1204 -0.1457 -0.1502
  536loPI   C4A 8570   9.690   9.254   9.522 -0.0776 -0.1287 -0.1643
  536loPI   C5A 8571   9.723   9.264   9.033  0.2841 -0.3461  0.1894
  536loPI   C6A 8572   9.793   9.539   8.754 -0.1188 -0.4791  0.2372
  536loPI   C1B 8573  10.064   9.588  10.484 -0.3460 -0.3116  0.1181
  536loPI   C2B 8574  10.075   9.621  10.018  0.1783 -0.1277  0.0881
  536loPI   C3B 8575  10.067   9.614   9.584  0.3396 -0.0328  0.2115
  536loPI   C4B 8576  10.089   9.624   9.147  0.3956 -0.0646  0.3239
  537loPI    C1 8577  16.203   4.021  11.470 -0.0574 -0.2211 -0.0139
  537loPI    C2 8578  16.051   4.338  11.659  0.1220  0.0531 -0.3188
  537loPI    C3 8579  16.146   4.009  11.866  0.0550  0.2427  0.0220
  537loPI   PO4 8580  16.345   4.050  11.276  0.1153  0.1124  0.0323
  537loPI   GL1 8581  16.520   4.295  10.908 -0.0305 -0.1035  0.0571
  537loPI   GL2 8582  16.427   3.989  10.792  0.1743  0.0490 -0.1480
  537loPI   C1A 8583  16.529   4.328  10.388 -0.0766  0.0861  0.1774
  537loPI   C2A 8584  16.482   4.207  10.027 -0.0424  0.0378 -0.0199
  537loPI   C3A 8585  16.495   4.297   9.672 -0.2243  0.1369  0.1544
  537loPI   C4A 8586  16.391   4.038   9.394  0.0496 -0.1300 -0.0882
  537loPI   C5A 8587  16.224   3.705   9.298 -0.0036  0.1449 -0.2828
  537loPI   C6A 8588  16.102   3.503   8.983  0.1444 -0.0346 -0.3502
  537loPI   C1B 8589  16.239   3.869  10.318  0.4115  0.0739  0.1721
  537loPI   C2B 8590  16.210   3.753   9.886  0.0078  0.3090  0.0824
  537loPI   C3B 8591  15.908   3.382   9.746  0.1896  0.1909  0.0185
  537loPI   C4B 8592  15.845   3.372   9.378  0.4284 -0.1601 -0.1402
  538loPI    C1 8593  17.324  11.782  11.889  0.3013  0.0993  0.0775
  538loPI    C2 8594  17.211  11.967  12.225 -0.0337  0.0299  0.0069
  538loPI    C3 8595  17.009  11.647  12.095  0.2799 -0.1287 -0.1002
  538loPI   PO4 8596  17.469  11.995  11.689 -0.1165 -0.2282 -0.2725
  538loPI   GL1 8597  17.494  12.112  11.221  0.1056  0.2731  0.0641
  538loPI   GL2 8598  17.304  11.925  10.965 -0.0383 -0.0157  0.1231
  538loPI   C1A 8599  17.456  12.359  10.819 -0.0514 -0.0621 -0.2188
  538loPI   C2A 8600  17.544  12.368  10.434 -0.1130  0.0461 -0.0979
  538loPI   C3A 8601  17.549  12.301   9.909  0.1631 -0.1093 -0.0521
  538loPI   C4A 8602  17.531  12.250   9.471 -0.0580  0.1592  0.3255
  538loPI   C5A 8603  17.459  12.313   9.071  0.0120  0.0432 -0.0216
  538loPI   C6A 8604  17.494  12.513   8.657  0.0207 -0.0757  0.0526
  538loPI   C1B 8605  17.147  11.947  10.520  0.2060 -0.0355  0.3403
  538loPI   C2B 8606  17.244  11.928  10.064  0.0740 -0.4237 -0.2160
  538loPI   C3B 8607  17.219  11.789   9.649  0.0376 -0.0309  0.2863
  538loPI   C4B 8608  17.188  11.936   9.210 -0.1273  0.0420  0.1160
  539loPI    C1 8609  12.969   0.434  11.501 -0.2434 -0.1223  0.1064
  539loPI    C2 8610  12.966   0.051  11.615 -0.1299 -0.1547  0.0028
  539loPI    C3 8611  12.808   0.331  11.852  0.2719 -0.1955  0.3294
  539loPI   PO4 8612  12.937   0.368  11.216  0.0565 -0.1088 -0.1490
  539loPI   GL1 8613  12.953   0.588  10.796  0.1675 -0.0436 -0.0144
  539loPI   GL2 8614  13.253   0.610  10.599  0.3081 -0.0223  0.0182
  539loPI   C1A 8615  12.740   0.708  10.460 -0.0628 -0.1499 -0.0568
  539loPI   C2A 8616  12.702   0.708   9.990  0.0934 -0.0793 -0.0610
  539loPI   C3A 8617  12.669   0.621   9.626  0.0972 -0.1004 -0.1683
  539loPI   C4A 8618  12.610   0.589   9.165  0.1613  0.0719  0.0236
  539loPI   C5A 8619  12.935   0.518   8.784  0.0445 -0.0007 -0.1586
  539loPI   C6A 8620  13.211   0.695   8.374 -0.2339 -0.1193  0.1164
  539loPI   C1B 8621  13.224   0.675  10.169  0.1424 -0.1191 -0.1510
  539loPI   C2B 8622  13.217   0.657   9.779  0.2710  0.1949 -0.3185
  539loPI   C3B 8623  13.204   0.403   9.365 -0.0296  0.0471 -0.1340
  539loPI   C4B 8624  13.335  -0.026   9.324 -0.1547 -0.0961  0.3104
  540loPI    C1 8625   7.466   1.645  11.656 -0.1586 -0.1781 -0.2850
  540loPI    C2 8626   7.181   1.524  11.910 -0.0789 -0.2859 -0.2460
  540loPI    C3 8627   7.470   1.772  12.035 -0.1132 -0.2356 -0.2660
  540loPI   PO4 8628   7.299   1.718  11.459  0.0551 -0.0285 -0.0660
  540loPI   GL1 8629   7.326   1.819  11.054  0.0421 -0.1001 -0.1712
  540loPI   GL2 8630   7.606   2.016  11.144  0.1586  0.1571 -0.0442
  540loPI   C1A 8631   7.457   1.724  10.694 -0.1494  0.0213  0.0782
  540loPI   C2A 8632   7.427   1.744  10.227  0.2687 -0.1093  0.0228
  540loPI   C3A 8633   7.429   1.813   9.730 -0.0656 -0.0605 -0.0184
  540loPI   C4A 8634   7.432   1.737   9.390  0.0360 -0.3181 -0.0842
  540loPI   C5A 8635   7.302   1.623   8.957  0.0956  0.0045  0.2905
  540loPI   C6A 8636   6.976   1.632   8.778  0.0035 -0.3048 -0.0507
  540loPI   C1B 8637   7.862   2.123  10.718  0.1890 -0.1263  0.4131
  540loPI   C2B 8638   7.755   2.113  10.335  0.2014 -0.4255  0.2260
  540loPI   C3B 8639   7.697   2.215   9.902 -0.2769  0.2738  0.1107
  540loPI   C4B 8640   7.715   2.177   9.431 -0.1215  0.0767 -0.0791
  541loPI    C1 8641   7.318   6.908  11.601  0.0551  0.1226  0.3196
  541loPI    C2 8642   7.002   6.723  11.763  0.1519 -0.0965  0.2614
  541loPI    C3 8643   7.194   7.008  11.968 -0.0660  0.0188  0.3077
  541loPI   PO4 8644   7.243   6.940  11.282 -0.0449 -0.0098  0.0622
  541loPI   GL1 8645   7.205   6.713  10.881 -0.0528  0.0380  0.0995
  541loPI   GL2 8646   6.858   6.750  10.720 -0.0181  0.0282  0.2253
  541loPI   C1A 8647   7.328   6.681  10.485  0.2648  0.0026 -0.2131
  541loPI   C2A 8648   7.348   6.767  10.113  0.3763 -0.1328  0.1135
  541loPI   C3A 8649   7.369   6.797   9.632 -0.0879  0.1881 -0.4713
  541loPI   C4A 8650   7.315   6.735   9.259  0.0069 -0.1286  0.2590
  541loPI   C5A 8651   7.287   6.818   9.005  0.0333 -0.2193  0.1128
  541loPI   C6A 8652   7.289   6.795   8.576 -0.0120 -0.0294  0.2515
  541loPI   C1B 8653   6.851   6.782  10.324  0.0963 -0.0162 -0.0413
  541loPI   C2B 8654   6.819   6.751   9.890  0.0845  0.1445 -0.1298
  541loPI   C3B 8655   6.814   6.872   9.405  0.1459 -0.0752  0.0665
  541loPI   C4B 8656   6.744   6.918   8.992  0.3381  0.1761  0.1668
  542loPI    C1 8657   9.185   1.610  11.384 -0.0129 -0.2232 -0.0492
  542loPI    C2 8658   8.802   1.634  11.497  0.0050 -0.0204 -0.0268
  542loPI    C3 8659   9.093   1.658  11.771  0.0358 -0.1107 -0.0511
  542loPI   PO4 8660   9.193   1.719  11.163  0.1227  0.1316  0.1053
  542loPI   GL1 8661   9.449   1.659  10.850  0.1810 -0.3335 -0.0334
  542loPI   GL2 8662   9.310   1.992  10.783  0.1024  0.2306 -0.1746
  542loPI   C1A 8663   9.398   1.430  10.486  0.3489 -0.2206  0.1813
  542loPI   C2A 8664   9.478   1.456  10.100 -0.1651  0.0976 -0.0837
  542loPI   C3A 8665   9.483   1.544   9.644 -0.0035  0.1316  0.1608
  542loPI   C4A 8666   9.401   1.512   9.200  0.0805  0.2268  0.2062
  542loPI   C5A 8667   9.183   1.379   8.752 -0.0675 -0.2849  0.0354
  542loPI   C6A 8668   9.373   1.529   8.283  0.0021  0.1560 -0.0573
  542loPI   C1B 8669   9.301   1.900  10.441 -0.0156  0.1516  0.0717
  542loPI   C2B 8670   9.271   1.881   9.976  0.1457 -0.1158  0.1369
  542loPI   C3B 8671   9.269   2.005   9.486  0.1522 -0.4500  0.0865
  542loPI   C4B 8672   9.232   2.049   8.994  0.0207  0.1468 -0.0040
  543loPI    C1 8673   0.074   3.377  11.652  0.2311 -0.0322 -0.0204
  543loPI    C2 8674  -0.147   3.070  11.782  0.1842 -0.0027 -0.0302
  543loPI    C3 8675   0.209   3.145  11.949  0.1368  0.0179  0.0619
  543loPI   PO4 8676   0.174   3.409  11.423  0.0078  0.0287  0.1217
  543loPI   GL1 8677   0.349   3.356  11.051 -0.2515  0.1183 -0.0240
  543loPI   GL2 8678   0.400   3.693  10.936  0.0414  0.1341 -0.0911
  543loPI   C1A 8679   0.245   3.224  10.660  0.0657 -0.0346  0.1444
  543loPI   C2A 8680   0.091   3.301  10.319  0.0417  0.1095  0.0223
  543loPI   C3A 8681   0.203   3.160   9.910  0.1414  0.0445 -0.0604
  543loPI   C4A 8682   0.188   3.093   9.503  0.0082 -0.1514 -0.2872
  543loPI   C5A 8683   0.205   3.063   9.040  0.2265 -0.0603  0.0204
  543loPI   C6A 8684   0.488   2.997   8.787  0.2781  0.0670 -0.1797
  543loPI   C1B 8685   0.500   3.697  10.444  0.2166 -0.3988  0.1056
  543loPI   C2B 8686   0.412   3.655  10.067 -0.3077 -0.0002  0.1558
  543loPI   C3B 8687   0.438   3.551   9.657 -0.0766  0.1174  0.0613
  543loPI   C4B 8688   0.522   3.425   9.270 -0.0092  0.0762 -0.2243
  544loPI    C1 8689  15.513  10.664  11.705  0.1203  0.1450 -0.0005
  544loPI    C2 8690  15.748  10.676  12.029  0.0155 -0.0028  0.0822
  544loPI    C3 8691  15.491  10.373  11.979  0.1580 -0.0768 -0.2298
  544loPI   PO4 8692  15.671  10.701  11.562  0.0505 -0.2336 -0.0996
  544loPI   GL1 8693  15.667  10.619  11.078 -0.0614 -0.2343  0.0062
  544loPI   GL2 8694  15.543  10.365  10.941 -0.0553  0.0919 -0.1467
  544loPI   C1A 8695  15.736  10.785  10.741  0.3105 -0.0690  0.0749
  544loPI   C2A 8696  15.858  10.779  10.262 -0.0486  0.3280 -0.6313
  544loPI   C3A 8697  15.884  10.714   9.873 -0.0823  0.1587 -0.2514
  544loPI   C4A 8698  15.888  10.692   9.466 -0.2842 -0.3084  0.0506
  544loPI   C5A 8699  15.718  10.571   9.075  0.2538  0.1017  0.2580
  544loPI   C6A 8700  15.500  10.216   8.854 -0.0312 -0.1220  0.2611
  544loPI   C1B 8701  15.544  10.406  10.508  0.0558 -0.0837  0.4910
  544loPI   C2B 8702  15.521  10.345  10.124  0.1841  0.2684  0.0404
  544loPI   C3B 8703  15.516  10.249   9.657 -0.1999  0.1607 -0.1115
  544loPI   C4B 8704  15.541  10.233   9.344 -0.0920  0.0367  0.0166
  545loPI    C1 8705  12.357   8.871  11.706  0.1578 -0.2081  0.1528
  545loPI    C2 8706  12.060   8.782  11.959 -0.0694  0.1010  0.0007
  545loPI    C3 8707  12.418   8.890  12.101 -0.0225 -0.2812  0.1851
  545loPI   PO4 8708  12.210   8.886  11.478  0.1615  0.1103  0.0433
  545loPI   GL1 8709  12.277   8.830  11.050 -0.1949  0.3588 -0.3941
  545loPI   GL2 8710  12.444   9.068  11.071  0.0862 -0.0342 -0.2993
  545loPI   C1A 8711  12.291   8.877  10.604  0.1973  0.0788 -0.0513
  545loPI   C2A 8712  12.204   8.841  10.238 -0.2834 -0.0500 -0.1803
  545loPI   C3A 8713  12.196   8.816   9.677 -0.0349 -0.1856  0.0585
  545loPI   C4A 8714  12.329   8.861   9.149  0.3743  0.0567 -0.0156
  545loPI   C5A 8715  12.454   9.019   8.794  0.1486  0.7469 -0.1004
  545loPI   C6A 8716  12.771   9.189   8.527 -0.0994 -0.1337  0.1071
  545loPI   C1B 8717  12.600   9.276  10.658 -0.1460 -0.2518  0.1634
  545loPI   C2B 8718  12.557   9.310  10.174 -0.0354 -0.0507  0.2887
  545loPI   C3B 8719  12.502   9.307   9.681 -0.0501  0.1184 -0.0320
  545loPI   C4B 8720  12.540   9.312   9.305  0.0055 -0.3431 -0.0625
  546loPI    C1 8721   5.269  16.529  11.765  0.0505  0.1038  0.1666
  546loPI    C2 8722   5.302  16.256  12.055  0.0778 -0.1333 -0.0560
  546loPI    C3 8723   4.961  16.289  11.850  0.0286  0.0934  0.0590
  546loPI   PO4 8724   5.506  16.365  11.486  0.1240 -0.1253 -0.2045
  546loPI   GL1 8725   5.679  16.507  11.137  0.0177 -0.0607 -0.0061
  546loPI   GL2 8726   5.348  16.433  11.035 -0.1974 -0.3209  0.2551
  546loPI   C1A 8727   5.719  16.466  10.674  0.2571 -0.0310 -0.2440
  546loPI   C2A 8728   5.738  16.434  10.248 -0.1729 -0.0910  0.2796
  546loPI   C3A 8729   5.767  16.498   9.758 -0.0274 -0.1160  0.0593
  546loPI   C4A 8730   5.820  16.487   9.259  0.0370  0.0104 -0.2118
  546loPI   C5A 8731   5.530  16.630   8.946 -0.0763  0.1190  0.0471
  546loPI   C6A 8732   5.254  16.463   8.825  0.3550 -0.1659 -0.2139
  546loPI   C1B 8733   5.223  16.512  10.700  0.0837 -0.1270  0.0957
  546loPI   C2B 8734   5.262  16.589  10.249  0.1053 -0.0855 -0.2429
  546loPI   C3B 8735   5.264  16.581   9.817  0.1182 -0.0312 -0.1567
  546loPI   C4B 8736   5.315  16.602   9.431 -0.2307  0.1318 -0.0579
  547loPI    C1 8737   7.765  17.347  11.787  0.2439  0.0289 -0.1902
  547loPI    C2 8738   8.023  17.651  11.753  0.0163  0.2281 -0.1673
  547loPI    C3 8739   8.117  17.334  11.979  0.1949  0.3466 -0.0721
  547loPI   PO4 8740   7.692  17.304  11.526  0.1012  0.2110 -0.3836
  547loPI   GL1 8741   7.516  17.307  11.164 -0.0693  0.0278 -0.2033
  547loPI   GL2 8742   7.241  17.204  11.131  0.1952 -0.0949  0.2145
  547loPI   C1A 8743   7.580  17.621  10.881  0.0989  0.3507  0.3457
  547loPI   C2A 8744   7.665  17.552  10.427  0.0009  0.0568 -0.1574
  547loPI   C3A 8745   7.708  17.614   9.995  0.0795 -0.3379  0.1917
  547loPI   C4A 8746   7.739  17.669   9.536 -0.1905  0.4676  0.0451
  547loPI   C5A 8747   7.567  17.646   9.128  0.2477 -0.1404  0.2557
  547loPI   C6A 8748   7.352  17.399   8.814  0.1425 -0.1133  0.0250
  547loPI   C1B 8749   7.379  17.173  10.727 -0.0800  0.1424 -0.1514
  547loPI   C2B 8750   7.340  17.178  10.292 -0.1545 -0.0817 -0.4109
  547loPI   C3B 8751   7.427  17.234   9.821  0.1696 -0.0958  0.1011
  547loPI   C4B 8752   7.391  17.260   9.393  0.1314 -0.1763 -0.1715
  548loPI    C1 8753   6.836   6.131  11.232  0.2555 -0.1559 -0.1874
  548loPI    C2 8754   6.762   5.741  11.189 -0.1306 -0.0899 -0.1520
  548loPI    C3 8755   6.567   5.952  11.468  0.1216  0.1166 -0.1293
  548loPI   PO4 8756   6.936   6.179  10.940 -0.0805  0.0619  0.0651
  548loPI   GL1 8757   7.038   6.247  10.620 -0.2293 -0.0362  0.3964
  548loPI   GL2 8758   7.441   6.205  10.776  0.1116  0.0520  0.0553
  548loPI   C1A 8759   7.002   6.319  10.156 -0.0945  0.1223 -0.2797
  548loPI   C2A 8760   7.001   6.303   9.719  0.1359  0.0822  0.1510
  548loPI   C3A 8761   6.950   6.392   9.269 -0.1067  0.1108 -0.2783
  548loPI   C4A 8762   7.153   6.324   8.810 -0.0423  0.3010  0.1503
  548loPI   C5A 8763   7.320   6.240   8.433 -0.1606  0.3387 -0.0949
  548loPI   C6A 8764   7.652   6.079   8.314 -0.3194 -0.1045 -0.0908
  548loPI   C1B 8765   7.506   6.251  10.356  0.4526 -0.1374 -0.3990
  548loPI   C2B 8766   7.493   6.380   9.862 -0.3364  0.0492  0.1192
  548loPI   C3B 8767   7.552   6.275   9.495 -0.0071 -0.2873  0.1148
  548loPI   C4B 8768   7.672   6.346   9.087  0.5334 -0.2222  0.2899
  549loPI    C1 8769  11.299   7.625  11.341 -0.1314  0.2145  0.1928
  549loPI    C2 8770  11.440   7.545  11.707  0.2040 -0.1660 -0.0120
  549loPI    C3 8771  11.310   7.247  11.473  0.0357  0.0681 -0.2216
  549loPI   PO4 8772  11.442   7.745  11.238 -0.1531 -0.1856  0.0241
  549loPI   GL1 8773  11.682   7.941  10.900 -0.1629  0.2310  0.0831
  549loPI   GL2 8774  11.964   7.947  10.765 -0.2343 -0.0869  0.3588
  549loPI   C1A 8775  11.616   8.039  10.442 -0.0670  0.3017 -0.1080
  549loPI   C2A 8776  11.647   8.059  10.036 -0.1076 -0.0159  0.2661
  549loPI   C3A 8777  11.614   8.062   9.558 -0.1680  0.2478  0.0050
  549loPI   C4A 8778  11.624   8.055   9.157 -0.0285 -0.0997  0.0055
  549loPI   C5A 8779  11.481   8.025   8.773 -0.1977  0.0533 -0.2235
  549loPI   C6A 8780  11.281   8.050   8.423  0.0196  0.2807 -0.1076
  549loPI   C1B 8781  12.073   7.979  10.260  0.0941  0.0663  0.1836
  549loPI   C2B 8782  12.091   7.992   9.767  0.0057  0.1381  0.1500
  549loPI   C3B 8783  12.133   7.924   9.366 -0.0184 -0.2959  0.3324
  549loPI   C4B 8784  12.077   7.904   8.924 -0.1929  0.0930  0.2195
  550loPI    C1 8785   2.570   0.380  11.654 -0.0085 -0.2056 -0.0175
  550loPI    C2 8786   2.206   0.321  11.810  0.0129 -0.0985  0.0736
  550loPI    C3 8787   2.529   0.168  11.991  0.0344 -0.0032  0.1163
  550loPI   PO4 8788   2.475   0.266  11.346 -0.2441  0.2395 -0.0786
  550loPI   GL1 8789   2.491   0.312  10.856 -0.0152 -0.0739  0.0588
  550loPI   GL2 8790   2.626   0.584  10.824 -0.1150 -0.2062 -0.0476
  550loPI   C1A 8791   2.364   0.094  10.548  0.0459  0.1355 -0.0325
  550loPI   C2A 8792   2.303   0.237  10.103 -0.0510  0.1901  0.1638
  550loPI   C3A 8793   2.441   0.254   9.747 -0.1981 -0.1345  0.1439
  550loPI   C4A 8794   2.307   0.216   9.299 -0.2541 -0.0790  0.1222
  550loPI   C5A 8795   2.162   0.008   8.809 -0.1073  0.3621  0.3509
  550loPI   C6A 8796   2.289  -0.300   8.513 -0.1037 -0.0508 -0.0513
  550loPI   C1B 8797   2.669   0.535  10.346  0.0255 -0.0458 -0.0765
  550loPI   C2B 8798   2.742   0.642   9.941  0.2285 -0.0688 -0.1187
  550loPI   C3B 8799   2.746   0.626   9.470  0.0444  0.0252 -0.1531
  550loPI   C4B 8800   2.698   0.749   8.997 -0.2327 -0.0363 -0.2933
  551loPI    C1 8801  11.795   7.304  11.338  0.2629  0.0685 -0.0727
  551loPI    C2 8802  11.811   7.063  11.658 -0.0572  0.0880 -0.0384
  551loPI    C3 8803  11.974   7.428  11.673  0.1588 -0.0093  0.0126
  551loPI   PO4 8804  11.861   7.137  11.145  0.0011  0.1480  0.1066
  551loPI   GL1 8805  11.892   7.129  10.685  0.0341  0.2486 -0.1159
  551loPI   GL2 8806  11.789   7.488  10.822  0.0034 -0.0207 -0.1088
  551loPI   C1A 8807  11.960   7.059  10.211 -0.0166  0.2886 -0.0221
  551loPI   C2A 8808  11.958   7.155   9.883  0.0029  0.2239 -0.4315
  551loPI   C3A 8809  11.965   7.103   9.450 -0.1972 -0.0369  0.0899
  551loPI   C4A 8810  12.019   7.103   8.990 -0.0115  0.3341  0.1061
  551loPI   C5A 8811  12.089   6.720   8.712 -0.0307 -0.1451 -0.0957
  551loPI   C6A 8812  12.082   6.766   8.168 -0.0030 -0.1689  0.0573
  551loPI   C1B 8813  11.802   7.584  10.441  0.0353 -0.0149 -0.1403
  551loPI   C2B 8814  11.806   7.564  10.037  0.1099 -0.0918 -0.0506
  551loPI   C3B 8815  11.790   7.571   9.631 -0.0857 -0.1428 -0.1078
  551loPI   C4B 8816  11.855   7.537   9.135 -0.3331 -0.0965 -0.1361
  552loPI    C1 8817  13.823   4.821  11.430 -0.2320 -0.0823 -0.0631
  552loPI    C2 8818  13.977   4.455  11.386 -0.0137 -0.0055  0.0460
  552loPI    C3 8819  13.852   4.577  11.746  0.0487  0.0787  0.0393
  552loPI   PO4 8820  13.650   4.835  11.167  0.0723  0.2400  0.2940
  552loPI   GL1 8821  13.833   5.167  10.910  0.1434 -0.1763 -0.1391
  552loPI   GL2 8822  14.079   5.325  10.977 -0.0002  0.2292  0.1062
  552loPI   C1A 8823  13.813   5.116  10.478  0.2191 -0.1666 -0.1913
  552loPI   C2A 8824  13.737   5.063  10.046 -0.1475 -0.1829 -0.0974
  552loPI   C3A 8825  13.769   5.060   9.588 -0.1782 -0.0652 -0.0338
  552loPI   C4A 8826  13.756   5.032   9.145 -0.0076 -0.0830 -0.3186
  552loPI   C5A 8827  13.788   5.040   8.696  0.0439  0.1914 -0.2373
  552loPI   C6A 8828  14.089   4.795   8.319 -0.0264 -0.1308 -0.1313
  552loPI   C1B 8829  14.104   5.532  10.642  0.1938  0.0793  0.0538
  552loPI   C2B 8830  14.149   5.426  10.191  0.2540  0.0434  0.0560
  552loPI   C3B 8831  14.120   5.470   9.790 -0.2521  0.1056 -0.0745
  552loPI   C4B 8832  14.054   5.437   9.311  0.0427  0.0051 -0.4238
  553loPI    C1 8833   2.240   6.665  11.696  0.0418 -0.1943  0.1753
  553loPI    C2 8834   1.882   6.488  11.674  0.0459 -0.1870  0.0473
  553loPI    C3 8835   1.944   6.781  11.939 -0.1326  0.0159 -0.1316
  553loPI   PO4 8836   2.325   6.613  11.447 -0.0887 -0.1132  0.0098
  553loPI   GL1 8837   2.024   6.522  11.142  0.1399 -0.3157  0.0838
  553loPI   GL2 8838   1.673   6.529  11.235  0.1245 -0.1597 -0.5716
  553loPI   C1A 8839   2.155   6.627  10.740 -0.1889 -0.0403  0.2145
  553loPI   C2A 8840   2.162   6.596  10.238 -0.0952 -0.0536  0.2526
  553loPI   C3A 8841   2.059   6.541   9.801 -0.1940 -0.0603  0.3695
  553loPI   C4A 8842   2.137   6.576   9.406 -0.1665  0.4003  0.1015
  553loPI   C5A 8843   2.123   6.577   9.006 -0.0299 -0.2145  0.0683
  553loPI   C6A 8844   1.985   6.330   8.736  0.0927 -0.1942 -0.2501
  553loPI   C1B 8845   1.656   6.689  10.784 -0.0288 -0.0162  0.0524
  553loPI   C2B 8846   1.669   6.587  10.366  0.0547  0.0356  0.0316
  553loPI   C3B 8847   1.595   6.625   9.868  0.0452  0.3479 -0.5680
  553loPI   C4B 8848   1.622   6.660   9.507  0.2825  0.1102 -0.1305
  554loPI    C1 8849  11.502  13.984  11.497  0.0460 -0.0818  0.0003
  554loPI    C2 8850  11.823  14.194  11.608 -0.0230 -0.0573  0.1565
  554loPI    C3 8851  11.488  14.383  11.499 -0.0757 -0.0848  0.2689
  554loPI   PO4 8852  11.690  13.774  11.263  0.1173  0.2077  0.1652
  554loPI   GL1 8853  11.821  13.845  10.814  0.3490 -0.0920  0.1363
  554loPI   GL2 8854  11.991  14.162  10.624  0.1823  0.2172  0.1042
  554loPI   C1A 8855  11.733  13.633  10.513 -0.0793  0.0684 -0.2633
  554loPI   C2A 8856  11.837  13.474  10.128 -0.2054 -0.1035  0.3058
  554loPI   C3A 8857  11.817  13.510   9.631 -0.0497 -0.1138 -0.1031
  554loPI   C4A 8858  11.831  13.475   9.154  0.0927 -0.1149  0.0237
  554loPI   C5A 8859  11.616  13.213   8.795  0.0922 -0.2265 -0.0676
  554loPI   C6A 8860  11.442  13.080   8.418 -0.3923  0.1946 -0.1415
  554loPI   C1B 8861  12.009  13.982  10.236 -0.0653 -0.3665  0.3374
  554loPI   C2B 8862  12.175  13.944   9.815  0.1342  0.1502 -0.0247
  554loPI   C3B 8863  12.125  13.840   9.379  0.0293  0.1450 -0.0211
  554loPI   C4B 8864  12.180  13.790   8.955  0.4186 -0.0665  0.1620
  555loPI    C1 8865   9.241  15.196  11.254 -0.1402 -0.2228  0.0957
  555loPI    C2 8866   9.201  15.544  11.446  0.4753 -0.0321 -0.0994
  555loPI    C3 8867   9.235  15.205  11.654 -0.0100  0.0293  0.0940
  555loPI   PO4 8868   9.346  15.228  11.109 -0.1579  0.2965  0.2183
  555loPI   GL1 8869   9.150  15.395  10.736 -0.1439  0.3480  0.2301
  555loPI   GL2 8870   9.278  15.162  10.545  0.0589 -0.2391 -0.2535
  555loPI   C1A 8871   9.038  15.660  10.329  0.1496 -0.1156 -0.0642
  555loPI   C2A 8872   9.096  15.612   9.899 -0.1847 -0.0415 -0.0119
  555loPI   C3A 8873   8.971  15.665   9.520  0.1662 -0.0137  0.0772
  555loPI   C4A 8874   9.017  15.831   9.156  0.0997  0.0004  0.3355
  555loPI   C5A 8875   9.062  15.896   8.716 -0.1230  0.1385  0.0352
  555loPI   C6A 8876   9.306  16.057   8.324 -0.5040  0.4674  0.1048
  555loPI   C1B 8877   9.226  15.167  10.132 -0.0557  0.1210  0.0399
  555loPI   C2B 8878   9.271  15.176   9.746 -0.2625  0.1509 -0.0243
  555loPI   C3B 8879   9.256  15.265   9.334  0.0521  0.1285 -0.3489
  555loPI   C4B 8880   9.188  15.434   8.947  0.1099  0.2545 -0.0890
  556loPI    C1 8881   5.013   9.781  11.650 -0.0539 -0.1492  0.1432
  556loPI    C2 8882   5.136   9.695  12.021 -0.0062 -0.0018  0.1624
  556loPI    C3 8883   4.745   9.702  11.936 -0.0128 -0.1753  0.1748
  556loPI   PO4 8884   5.211   9.985  11.526 -0.0317  0.1362 -0.2257
  556loPI   GL1 8885   5.380  10.154  11.185 -0.0128  0.0174 -0.1098
  556loPI   GL2 8886   5.604   9.970  11.259  0.2454  0.4988 -0.0151
  556loPI   C1A 8887   5.455  10.184  10.768 -0.1514 -0.0746 -0.1060
  556loPI   C2A 8888   5.436  10.167  10.340 -0.2966 -0.1632  0.1141
  556loPI   C3A 8889   5.411  10.206   9.959 -0.1740  0.2943  0.0203
  556loPI   C4A 8890   5.359  10.164   9.578 -0.1348  0.0995 -0.0463
  556loPI   C5A 8891   5.392  10.138   9.188 -0.1280  0.0943  0.1439
  556loPI   C6A 8892   5.271  10.249   8.770  0.1347  0.0118  0.0936
  556loPI   C1B 8893   5.677   9.764  10.861  0.0152  0.0023  0.0715
  556loPI   C2B 8894   5.588   9.710  10.394 -0.0264 -0.1822  0.3055
  556loPI   C3B 8895   5.601   9.758   9.928 -0.2391 -0.1984 -0.2609
  556loPI   C4B 8896   5.586   9.749   9.549 -0.0362  0.6067  0.0207
  557loPI    C1 8897  14.449   1.113  11.725  0.2384 -0.0043  0.1138
  557loPI    C2 8898  14.652   0.773  11.675  0.1972 -0.0398  0.1862
  557loPI    C3 8899  14.538   0.885  12.041  0.1693  0.0280  0.1568
  557loPI   PO4 8900  14.403   1.211  11.453 -0.0010 -0.1162  0.2350
  557loPI   GL1 8901  14.312   1.233  11.005 -0.0140  0.0682 -0.1306
  557loPI   GL2 8902  14.090   1.078  10.917  0.0860  0.0634  0.2192
  557loPI   C1A 8903  14.428   1.420  10.619  0.2290 -0.3865 -0.1800
  557loPI   C2A 8904  14.351   1.442  10.199  0.2411  0.0105 -0.4803
  557loPI   C3A 8905  14.286   1.319   9.783 -0.3635 -0.1470 -0.0313
  557loPI   C4A 8906  14.278   1.328   9.378 -0.0624 -0.1922  0.1793
  557loPI   C5A 8907  14.198   1.347   8.924  0.5194 -0.0423  0.1132
  557loPI   C6A 8908  14.240   1.421   8.495 -0.2145  0.0355 -0.0810
  557loPI   C1B 8909  14.028   0.968  10.558  0.2508  0.0021  0.0200
  557loPI   C2B 8910  14.026   1.005  10.117  0.0665  0.3406  0.3700
  557loPI   C3B 8911  13.983   0.992   9.575 -0.1217 -0.1646 -0.1610
  557loPI   C4B 8912  13.916   0.822   9.177  0.1418  0.2144 -0.3686
  558loPI    C1 8913  13.571  10.161  11.697 -0.0580 -0.0619 -0.0404
  558loPI    C2 8914  13.873   9.900  11.668 -0.0560 -0.0852  0.1794
  558loPI    C3 8915  13.754  10.031  12.027  0.0388  0.3297  0.0653
  558loPI   PO4 8916  13.553  10.251  11.401 -0.3318 -0.2168  0.0703
  558loPI   GL1 8917  13.776  10.295  11.029 -0.1523  0.1522 -0.1541
  558loPI   GL2 8918  13.608  10.013  10.856  0.1845  0.2098 -0.0451
  558loPI   C1A 8919  13.977  10.498  10.690 -0.2234 -0.0386 -0.3240
  558loPI   C2A 8920  14.059  10.428  10.228  0.1580  0.0181  0.0389
  558loPI   C3A 8921  14.039  10.495   9.774  0.1541  0.1540 -0.0547
  558loPI   C4A 8922  14.020  10.545   9.458 -0.0779  0.0650  0.0481
  558loPI   C5A 8923  14.066  10.471   9.018 -0.1817  0.1074  0.3935
  558loPI   C6A 8924  13.963  10.536   8.619  0.1410 -0.0519  0.0861
  558loPI   C1B 8925  13.727  10.069  10.460  0.0882 -0.2376  0.3410
  558loPI   C2B 8926  13.683  10.134  10.007 -0.0463 -0.0085 -0.0802
  558loPI   C3B 8927  13.641  10.053   9.602  0.2182 -0.2604 -0.1419
  558loPI   C4B 8928  13.721  10.119   9.245 -0.2260  0.0433 -0.1639
  559loPI    C1 8929  11.121   0.682  11.704  0.2655  0.0110  0.2002
  559loPI    C2 8930  10.777   0.874  11.769  0.2385  0.0320  0.0011
  559loPI    C3 8931  11.008   0.768  12.077  0.2110  0.3054  0.1184
  559loPI   PO4 8932  11.127   0.837  11.461  0.3708 -0.1003  0.1751
  559loPI   GL1 8933  11.217   0.783  11.133 -0.0607  0.0318 -0.1728
  559loPI   GL2 8934  11.137   0.499  10.975  0.0616  0.0323  0.1288
  559loPI   C1A 8935  11.201   0.927  10.646 -0.2725 -0.0202 -0.0167
  559loPI   C2A 8936  11.244   0.876  10.249  0.2369  0.5156 -0.1047
  559loPI   C3A 8937  11.087   0.896   9.939  0.1239  0.0595 -0.4012
  559loPI   C4A 8938  11.152   0.878   9.527  0.0377  0.1219 -0.2626
  559loPI   C5A 8939  11.116   0.810   9.078 -0.1597 -0.0651 -0.2131
  559loPI   C6A 8940  11.206   0.758   8.667 -0.2753  0.0738  0.2837
  559loPI   C1B 8941  10.894   0.437  10.660  0.0042 -0.1323  0.1424
  559loPI   C2B 8942  10.800   0.349  10.279  0.0525  0.0949  0.2521
  559loPI   C3B 8943  10.840   0.436   9.804  0.1979 -0.1521 -0.0415
  559loPI   C4B 8944  10.835   0.509   9.376  0.0858 -0.0374  0.3214
  560loPI    C1 8945   8.046   4.408  11.181 -0.0069 -0.1061  0.0074
  560loPI    C2 8946   7.802   4.721  11.228  0.0848 -0.0136 -0.1240
  560loPI    C3 8947   8.043   4.610  11.527  0.0937  0.0772 -0.0970
  560loPI   PO4 8948   7.985   4.269  11.016 -0.1034 -0.1841 -0.0773
  560loPI   GL1 8949   7.609   4.166  10.867 -0.1786 -0.4198 -0.0563
  560loPI   GL2 8950   7.352   4.145  10.716  0.0650 -0.2701  0.2409
  560loPI   C1A 8951   7.788   4.362  10.396 -0.1982  0.1063  0.2721
  560loPI   C2A 8952   7.814   4.341   9.987 -0.1761  0.1376 -0.1210
  560loPI   C3A 8953   7.711   4.514   9.648  0.2777 -0.2949 -0.1201
  560loPI   C4A 8954   7.752   4.540   9.195  0.1624  0.1132 -0.3746
  560loPI   C5A 8955   7.820   4.544   8.882  0.1783  0.3650 -0.0182
  560loPI   C6A 8956   7.950   4.783   8.508  0.2505  0.1029 -0.0100
  560loPI   C1B 8957   7.490   3.958  10.279 -0.2982  0.0483 -0.0835
  560loPI   C2B 8958   7.463   3.999   9.827  0.0729 -0.1700 -0.0123
  560loPI   C3B 8959   7.449   4.149   9.414  0.1273  0.3168 -0.0107
  560loPI   C4B 8960   7.518   4.142   9.002  0.3169  0.0699  0.0469
  561loPI    C1 8961  11.865  17.289  11.311 -0.0710 -0.1368  0.1641
  561loPI    C2 8962  11.939  17.606  11.543  0.0523  0.0404 -0.1118
  561loPI    C3 8963  12.187  17.292  11.549  0.1108  0.0867 -0.0789
  561loPI   PO4 8964  11.911  17.332  11.095 -0.2441  0.3745  0.2335
  561loPI   GL1 8965  11.981  17.736  10.702  0.2790  0.1648 -0.0968
  561loPI   GL2 8966  12.228  17.880  10.674 -0.0761  0.0248 -0.2896
  561loPI   C1A 8967  12.079  17.632  10.265 -0.3104 -0.2077 -0.1545
  561loPI   C2A 8968  12.088  17.684   9.914  0.1078 -0.4451 -0.0854
  561loPI   C3A 8969  12.005  17.616   9.549 -0.1251 -0.0661  0.2741
  561loPI   C4A 8970  11.958  17.549   9.044  0.1970 -0.0405 -0.0081
  561loPI   C5A 8971  11.709  17.331   8.751  0.0126 -0.2487 -0.0552
  561loPI   C6A 8972  11.523  16.908   8.706 -0.1345  0.1160  0.1573
  561loPI   C1B 8973  12.365  18.082  10.296  0.0062  0.1269  0.1201
  561loPI   C2B 8974  12.387  18.092   9.891  0.2260 -0.0117 -0.3108
  561loPI   C3B 8975  12.306  17.992   9.527  0.3145 -0.0121  0.0750
  561loPI   C4B 8976  12.365  17.820   9.136 -0.0565  0.2067  0.0617
  562loPI    C1 8977   9.623  14.555  11.216  0.0866 -0.0867  0.0102
  562loPI    C2 8978   9.674  14.924  11.361 -0.1522 -0.0977  0.1265
  562loPI    C3 8979   9.861  14.615  11.532  0.1010 -0.0234 -0.0126
  562loPI   PO4 8980   9.639  14.577  11.007  0.0107  0.4429  0.3002
  562loPI   GL1 8981   9.547  14.619  10.611 -0.0975 -0.1850  0.0821
  562loPI   GL2 8982   9.624  14.311  10.564  0.1428  0.3255 -0.1341
  562loPI   C1A 8983   9.394  14.685  10.226  0.0873 -0.1519 -0.1442
  562loPI   C2A 8984   9.340  14.712   9.753 -0.0984  0.5039  0.1488
  562loPI   C3A 8985   9.425  14.748   9.323  0.0430 -0.1323 -0.0592
  562loPI   C4A 8986   9.693  14.879   8.992 -0.3053  0.2438  0.0861
  562loPI   C5A 8987   9.990  15.051   8.734 -0.1710  0.0016 -0.1493
  562loPI   C6A 8988  10.389  15.168   8.738  0.0317  0.1823 -0.0463
  562loPI   C1B 8989   9.661  14.177  10.122  0.0343  0.0249  0.3274
  562loPI   C2B 8990   9.558  14.242   9.666 -0.0362  0.2318  0.1153
  562loPI   C3B 8991   9.679  14.278   9.275 -0.1791  0.0860  0.1729
  562loPI   C4B 8992   9.949  14.304   8.976 -0.2557 -0.1396  0.0805
  563loPI    C1 8993   8.839  10.143  11.559  0.0342  0.2554  0.1176
  563loPI    C2 8994   8.639  10.441  11.734 -0.1525  0.1028  0.1673
  563loPI    C3 8995   8.441  10.159  11.530  0.0367  0.1035 -0.0216
  563loPI   PO4 8996   9.016  10.131  11.407 -0.0782 -0.2340  0.2830
  563loPI   GL1 8997   9.137  10.056  10.956  0.4509  0.0864  0.0188
  563loPI   GL2 8998   8.814   9.882  10.703  0.0756  0.3287 -0.1108
  563loPI   C1A 8999   9.312  10.137  10.529 -0.0313  0.2464  0.0301
  563loPI   C2A 9000   9.352  10.097  10.105 -0.0298  0.0003 -0.1064
  563loPI   C3A 9001   9.372  10.218   9.648  0.1528 -0.1754  0.0260
  563loPI   C4A 9002   9.298  10.197   9.247  0.3213 -0.1876 -0.0821
  563loPI   C5A 9003   9.275  10.295   8.912 -0.1027  0.0014 -0.2003
  563loPI   C6A 9004   9.216  10.650   8.685 -0.1501  0.0595  0.0736
  563loPI   C1B 9005   9.087   9.707  10.378  0.2412 -0.0045 -0.0425
  563loPI   C2B 9006   9.025   9.709  10.083 -0.2834 -0.2749  0.0555
  563loPI   C3B 9007   8.992   9.787   9.687  0.1582 -0.0908 -0.1914
  563loPI   C4B 9008   9.009   9.773   9.237  0.0850 -0.0981 -0.1783
  564loPI    C1 9009  17.143   9.949  11.649 -0.0354 -0.1698 -0.1110
  564loPI    C2 9010  17.163   9.982  12.048  0.0080 -0.3852 -0.0938
  564loPI    C3 9011  16.856   9.789  11.878 -0.0854 -0.1696 -0.1735
  564loPI   PO4 9012  17.339   9.899  11.477 -0.0947 -0.0259  0.2831
  564loPI   GL1 9013  17.569   9.826  11.106  0.1505 -0.0615 -0.1377
  564loPI   GL2 9014  17.315   9.974  10.999 -0.2081  0.1049  0.2862
  564loPI   C1A 9015  17.677   9.594  10.766 -0.0608  0.1038  0.0416
  564loPI   C2A 9016  17.716   9.636  10.384 -0.0854 -0.1556  0.0836
  564loPI   C3A 9017  17.767   9.538   9.917  0.0077  0.1767 -0.2464
  564loPI   C4A 9018  17.744   9.607   9.484  0.0329 -0.2168 -0.4658
  564loPI   C5A 9019  17.677   9.898   9.126  0.2595  0.3210  0.1954
  564loPI   C6A 9020  17.540  10.221   8.809 -0.0040 -0.0201 -0.0464
  564loPI   C1B 9021  17.444  10.093  10.694  0.4183 -0.2440 -0.1323
  564loPI   C2B 9022  17.435  10.156  10.331  0.0743  0.0880  0.2293
  564loPI   C3B 9023  17.589  10.058   9.960  0.0784 -0.1939 -0.1312
  564loPI   C4B 9024  17.469  10.079   9.591  0.1279  0.4244 -0.4894
  565loPI    C1 9025  14.617   7.212  11.447  0.2324  0.0730 -0.0528
  565loPI    C2 9026  14.351   7.211  11.745  0.1482  0.1188 -0.1275
  565loPI    C3 9027  14.693   7.006  11.782  0.0241 -0.0869 -0.1016
  565loPI   PO4 9028  14.472   7.229  11.207  0.2641  0.2016  0.1130
  565loPI   GL1 9029  14.205   7.275  10.865 -0.0895 -0.2179  0.1885
  565loPI   GL2 9030  13.895   7.307  10.880  0.1481 -0.3362  0.1150
  565loPI   C1A 9031  14.347   7.215  10.452 -0.0431  0.1280 -0.5916
  565loPI   C2A 9032  14.369   7.182  10.121 -0.2782 -0.1250 -0.0451
  565loPI   C3A 9033  14.421   7.278   9.717 -0.2328 -0.0673  0.0681
  565loPI   C4A 9034  14.393   7.107   9.357 -0.0319  0.0840 -0.0176
  565loPI   C5A 9035  14.437   7.321   8.913 -0.0714  0.1833  0.1175
  565loPI   C6A 9036  14.614   7.306   8.480 -0.0949 -0.2978  0.1260
  565loPI   C1B 9037  13.859   7.309  10.448 -0.0739 -0.1422 -0.1787
  565loPI   C2B 9038  13.849   7.320   9.906 -0.3251 -0.0434  0.2095
  565loPI   C3B 9039  13.879   7.323   9.448  0.0874  0.2533  0.0209
  565loPI   C4B 9040  13.935   7.219   8.954 -0.0307  0.1259 -0.0515
  566loPI    C1 9041  16.090   5.461  11.885 -0.1542  0.1016  0.0428
  566loPI    C2 9042  15.738   5.479  12.074 -0.1457  0.0620  0.0628
  566loPI    C3 9043  15.940   5.134  12.060 -0.3081 -0.0222 -0.3123
  566loPI   PO4 9044  16.050   5.508  11.608  0.4023 -0.0625  0.1882
  566loPI   GL1 9045  16.169   5.353  11.128 -0.0598  0.1585  0.0426
  566loPI   GL2 9046  16.477   5.408  10.967  0.0327 -0.0046  0.0166
  566loPI   C1A 9047  16.110   5.359  10.628  0.1046 -0.0330 -0.2194
  566loPI   C2A 9048  16.125   5.255  10.145 -0.1185 -0.1006  0.1099
  566loPI   C3A 9049  16.069   5.247   9.670  0.1878 -0.1908  0.0626
  566loPI   C4A 9050  16.059   5.076   9.209 -0.2794 -0.3237 -0.1460
  566loPI   C5A 9051  16.409   4.940   8.943  0.0782  0.4082  0.0812
  566loPI   C6A 9052  16.833   5.081   8.872 -0.2694  0.2661  0.0595
  566loPI   C1B 9053  16.624   5.230  10.613 -0.0572 -0.2508  0.0247
  566loPI   C2B 9054  16.630   5.238  10.203 -0.2146 -0.2496 -0.2268
  566loPI   C3B 9055  16.603   5.148   9.762  0.0002 -0.4435 -0.1041
  566loPI   C4B 9056  16.622   5.274   9.301 -0.1356  0.2972 -0.1773
  567loPI    C1 9057  11.198   2.602  11.565 -0.0918 -0.2353 -0.0879
  567loPI    C2 9058  10.869   2.644  11.788 -0.0902 -0.1424 -0.1029
  567loPI    C3 9059  11.184   2.444  11.932 -0.0863 -0.0759 -0.0187
  567loPI   PO4 9060  11.170   2.545  11.321  0.0501 -0.1732  0.0101
  567loPI   GL1 9061  11.203   2.675  10.892  0.1082  0.2551  0.0130
  567loPI   GL2 9062  11.442   2.695  10.599  0.0482  0.0247 -0.2756
  567loPI   C1A 9063  10.903   2.709  10.596  0.0019  0.3148  0.1427
  567loPI   C2A 9064  10.949   2.787  10.077  0.0031 -0.0097  0.0586
  567loPI   C3A 9065  10.788   2.820   9.754 -0.1672 -0.0277  0.4004
  567loPI   C4A 9066  10.871   2.637   9.333  0.2238 -0.1339 -0.2076
  567loPI   C5A 9067  10.919   2.590   8.940 -0.1321 -0.0471  0.0679
  567loPI   C6A 9068  10.717   2.544   8.565 -0.0437  0.1160  0.2085
  567loPI   C1B 9069  11.405   2.681  10.139  0.0539  0.0664 -0.3721
  567loPI   C2B 9070  11.318   2.707   9.706 -0.1564  0.1061  0.0891
  567loPI   C3B 9071  11.395   2.634   9.268 -0.0980  0.1739  0.1656
  567loPI   C4B 9072  11.466   2.679   8.799 -0.2373 -0.4243 -0.1032
  568loPI    C1 9073   1.001  14.683  11.543 -0.1913 -0.0093 -0.0254
  568loPI    C2 9074   0.869  14.438  11.831 -0.0154  0.0131  0.0756
  568loPI    C3 9075   0.929  14.826  11.910 -0.2802  0.0881 -0.0804
  568loPI   PO4 9076   0.809  14.626  11.375  0.1974 -0.0409 -0.1222
  568loPI   GL1 9077   0.732  14.527  11.019 -0.5230 -0.0482  0.0691
  568loPI   GL2 9078   0.605  14.225  10.902  0.2585  0.0917 -0.0020
  568loPI   C1A 9079   0.823  14.535  10.559 -0.4751  0.2640 -0.0949
  568loPI   C2A 9080   0.825  14.423  10.064 -0.0486 -0.0210 -0.0745
  568loPI   C3A 9081   0.831  14.484   9.631  0.4431  0.0760  0.2024
  568loPI   C4A 9082   0.901  14.434   9.239  0.3259 -0.3441 -0.0872
  568loPI   C5A 9083   1.314  14.375   9.107 -0.1658  0.1661  0.1794
  568loPI   C6A 9084   1.576  13.969   9.001  0.0105  0.2094  0.1775
  568loPI   C1B 9085   0.487  14.089  10.500  0.1475  0.0184  0.0043
  568loPI   C2B 9086   0.488  14.012  10.020  0.0092  0.0449 -0.1576
  568loPI   C3B 9087   0.564  14.014   9.619  0.2301 -0.2849  0.2363
  568loPI   C4B 9088   0.563  13.968   9.182 -0.0180 -0.0184  0.1140
  569loPI    C1 9089   2.881  16.301  11.491  0.0177 -0.1957  0.1273
  569loPI    C2 9090   3.107  16.610  11.606 -0.0323 -0.1394  0.0744
  569loPI    C3 9091   2.846  16.448  11.862 -0.2565  0.0882 -0.0060
  569loPI   PO4 9092   2.783  16.374  11.196 -0.0786 -0.0054  0.2436
  569loPI   GL1 9093   2.876  16.396  10.819  0.0216 -0.0222 -0.0009
  569loPI   GL2 9094   3.107  16.145  10.800  0.0997  0.2383 -0.2561
  569loPI   C1A 9095   2.879  16.445  10.356 -0.1778 -0.0142  0.3792
  569loPI   C2A 9096   2.903  16.485   9.915 -0.0050  0.0176 -0.2020
  569loPI   C3A 9097   2.853  16.558   9.499  0.3825 -0.2388  0.0496
  569loPI   C4A 9098   2.959  16.549   9.081  0.2021 -0.1017 -0.0640
  569loPI   C5A 9099   2.916  16.477   8.728 -0.1825 -0.3790  0.1600
  569loPI   C6A 9100   2.917  16.155   8.429  0.1465 -0.1508  0.1857
  569loPI   C1B 9101   3.068  15.989  10.376  0.1927  0.3454  0.2974
  569loPI   C2B 9102   3.142  16.048   9.886 -0.0469 -0.0037 -0.2926
  569loPI   C3B 9103   3.199  16.013   9.489  0.1083 -0.2555 -0.0122
  569loPI   C4B 9104   3.202  16.131   9.144 -0.2343  0.1658 -0.0069
  570loPI    C1 9105  11.601   3.863  11.516  0.0819  0.0781  0.0767
  570loPI    C2 9106  11.954   3.982  11.661  0.1194  0.1185 -0.0464
  570loPI    C3 9107  11.755   3.684  11.838  0.2807  0.0021 -0.0591
  570loPI   PO4 9108  11.707   3.805  11.270  0.1486 -0.0156 -0.1931
  570loPI   GL1 9109  11.625   3.405  10.988 -0.0148 -0.0241 -0.1769
  570loPI   GL2 9110  11.674   3.049  10.869 -0.0247  0.3130 -0.0897
  570loPI   C1A 9111  11.597   3.677  10.542  0.2401  0.3252  0.0822
  570loPI   C2A 9112  11.453   3.536  10.187 -0.0040 -0.3370 -0.0024
  570loPI   C3A 9113  11.526   3.596   9.708  0.2082 -0.2666  0.3280
  570loPI   C4A 9114  11.401   3.462   9.309 -0.0296 -0.1679 -0.0679
  570loPI   C5A 9115  11.372   3.741   8.915  0.1293 -0.0429  0.1089
  570loPI   C6A 9116  11.415   4.111   8.709 -0.1601 -0.2397  0.0944
  570loPI   C1B 9117  11.675   3.058  10.342  0.2108  0.1559 -0.2255
  570loPI   C2B 9118  11.597   3.142   9.975  0.1775 -0.1331  0.1491
  570loPI   C3B 9119  11.674   3.091   9.551 -0.2032  0.2259  0.1374
  570loPI   C4B 9120  11.762   2.999   9.074  0.2323  0.0959  0.1524
  571loPI    C1 9121   4.178   8.201  11.731 -0.0489  0.1894  0.0059
  571loPI    C2 9122   3.849   8.307  11.933 -0.1739 -0.1069 -0.0368
  571loPI    C3 9123   4.030   7.960  12.013  0.1380  0.0584 -0.0060
  571loPI   PO4 9124   4.120   8.250  11.456 -0.3027  0.0034  0.0857
  571loPI   GL1 9125   4.444   8.255  11.090  0.2570  0.0907 -0.2230
  571loPI   GL2 9126   4.431   7.926  11.091  0.1575  0.2314 -0.1223
  571loPI   C1A 9127   4.458   8.167  10.587 -0.1408  0.0989  0.2448
  571loPI   C2A 9128   4.474   7.997  10.162  0.2210  0.1884  0.2094
  571loPI   C3A 9129   4.423   8.021   9.734 -0.0872  0.2319 -0.0292
  571loPI   C4A 9130   4.474   7.925   9.303  0.0863 -0.1370  0.0396
  571loPI   C5A 9131   4.577   7.546   9.050 -0.3809 -0.1784 -0.0005
  571loPI   C6A 9132   4.525   7.581   8.530  0.1560  0.2256 -0.2910
  571loPI   C1B 9133   4.153   7.646  10.835  0.0944  0.1375 -0.0572
  571loPI   C2B 9134   4.150   7.724  10.457  0.4039 -0.1798 -0.1780
  571loPI   C3B 9135   4.132   7.654  10.011 -0.0442 -0.1848  0.1850
  571loPI   C4B 9136   4.123   7.590   9.518 -0.0192 -0.0221 -0.0370
  572loPI    C1 9137  16.397   9.616  11.838  0.1155 -0.2362  0.1625
  572loPI    C2 9138  16.222   9.854  12.107 -0.0846 -0.1727 -0.0208
  572loPI    C3 9139  16.473   9.568  12.227  0.0511  0.0399  0.2114
  572loPI   PO4 9140  16.441   9.742  11.621  0.0825  0.2307 -0.1755
  572loPI   GL1 9141  16.397   9.802  11.119  0.1266  0.2837  0.1206
  572loPI   GL2 9142  16.255   9.899  10.886  0.2658 -0.2369  0.4339
  572loPI   C1A 9143  16.719   9.739  10.737  0.0806  0.0731  0.0756
  572loPI   C2A 9144  16.627   9.631  10.246  0.2892 -0.0435  0.1649
  572loPI   C3A 9145  16.695   9.682   9.818  0.0993 -0.1613 -0.1100
  572loPI   C4A 9146  16.732   9.640   9.409 -0.3583  0.1804  0.3919
  572loPI   C5A 9147  16.641   9.762   8.995  0.2207 -0.1491  0.3083
  572loPI   C6A 9148  16.551  10.036   8.683 -0.3030  0.0403 -0.1056
  572loPI   C1B 9149  16.213   9.779  10.476  0.0997  0.3866  0.1815
  572loPI   C2B 9150  16.163   9.650  10.004 -0.2194  0.1327  0.0425
  572loPI   C3B 9151  16.204   9.739   9.611 -0.0128  0.3277  0.0117
  572loPI   C4B 9152  16.084   9.793   9.163  0.0028  0.4802 -0.2431
  573loPI    C1 9153   6.507  13.267  11.883  0.1867  0.0375  0.0259
  573loPI    C2 9154   6.394  13.352  12.257 -0.0442 -0.1222 -0.0054
  573loPI    C3 9155   6.723  13.134  12.192 -0.1449 -0.3125  0.1145
  573loPI   PO4 9156   6.453  13.439  11.643 -0.1853 -0.0760 -0.0158
  573loPI   GL1 9157   6.416  13.486  11.182 -0.1193 -0.0950  0.3430
  573loPI   GL2 9158   6.631  13.388  11.147 -0.2124 -0.1654 -0.1218
  573loPI   C1A 9159   6.386  13.639  10.789 -0.1310 -0.1937  0.1149
  573loPI   C2A 9160   6.371  13.654  10.272 -0.0776  0.0720 -0.0818
  573loPI   C3A 9161   6.407  13.755   9.892  0.1313  0.1696  0.0231
  573loPI   C4A 9162   6.423  13.714   9.459 -0.1813 -0.1953  0.1218
  573loPI   C5A 9163   6.486  13.596   9.136  0.1170  0.1082 -0.1331
  573loPI   C6A 9164   6.506  13.613   8.728 -0.0888 -0.0377  0.0424
  573loPI   C1B 9165   6.587  13.246  10.636 -0.0973  0.2348  0.0065
  573loPI   C2B 9166   6.662  13.238  10.214  0.2849 -0.1583  0.0850
  573loPI   C3B 9167   6.597  13.295   9.894  0.0766 -0.1056 -0.0945
  573loPI   C4B 9168   6.654  13.266   9.479  0.2635 -0.0753 -0.1917
  574loPI    C1 9169  14.645   9.992  11.540  0.2701 -0.1738  0.1104
  574loPI    C2 9170  14.720  10.247  11.838 -0.1051  0.0585  0.0125
  574loPI    C3 9171  14.372  10.050  11.826  0.0409 -0.1975 -0.0994
  574loPI   PO4 9172  14.700  10.114  11.374  0.1891 -0.3151  0.2453
  574loPI   GL1 9173  14.632  10.094  10.965  0.3204 -0.0024 -0.0831
  574loPI   GL2 9174  14.694   9.992  10.685 -0.2911 -0.1960  0.0220
  574loPI   C1A 9175  14.550  10.447  10.633 -0.0611  0.1402 -0.1590
  574loPI   C2A 9176  14.566  10.392  10.152 -0.0639  0.2499 -0.2593
  574loPI   C3A 9177  14.557  10.434   9.718  0.6101  0.2737 -0.0387
  574loPI   C4A 9178  14.488  10.381   9.376  0.1811  0.4104  0.1573
  574loPI   C5A 9179  14.577  10.332   8.944 -0.3188  0.2930 -0.1686
  574loPI   C6A 9180  14.846  10.244   8.629  0.1088  0.1349 -0.3614
  574loPI   C1B 9181  14.724   9.892  10.275 -0.2240  0.2874 -0.1355
  574loPI   C2B 9182  14.670   9.912   9.733 -0.1560  0.1818 -0.1268
  574loPI   C3B 9183  14.720   9.940   9.339  0.1654 -0.0189 -0.1637
  574loPI   C4B 9184  14.675   9.849   8.923  0.1624  0.1991 -0.2277
  575loPI    C1 9185  10.473   1.554  11.267 -0.0672  0.1863  0.0677
  575loPI    C2 9186  10.561   1.916  11.122 -0.0850  0.2564  0.2300
  575loPI    C3 9187  10.583   1.847  11.516 -0.2258  0.1224  0.2156
  575loPI   PO4 9188  10.198   1.484  11.096 -0.2584  0.2337 -0.0080
  575loPI   GL1 9189   9.893   1.412  10.794  0.2834 -0.0775 -0.0231
  575loPI   GL2 9190   9.689   1.092  10.746 -0.2270  0.1250  0.2517
  575loPI   C1A 9191   9.973   1.400  10.353 -0.1635 -0.0317  0.2456
  575loPI   C2A 9192   9.917   1.495   9.874 -0.2686 -0.1795 -0.4179
  575loPI   C3A 9193   9.950   1.519   9.417 -0.4105  0.3174  0.2157
  575loPI   C4A 9194   9.884   1.438   9.011  0.2455  0.3904  0.1358
  575loPI   C5A 9195  10.030   1.213   8.770 -0.4694 -0.1615 -0.3055
  575loPI   C6A 9196   9.942   1.121   8.315  0.1571 -0.0161  0.0520
  575loPI   C1B 9197   9.591   1.003  10.352 -0.1416  0.1012 -0.0470
  575loPI   C2B 9198   9.639   1.025   9.881  0.0358  0.1343  0.3642
  575loPI   C3B 9199   9.647   1.056   9.429  0.2049  0.0649  0.1595
  575loPI   C4B 9200   9.599   1.052   8.959 -0.1348  0.1171  0.1195
  576loPI    C1 9201   5.157   9.241  11.814 -0.1941 -0.0594 -0.0200
  576loPI    C2 9202   5.496   9.155  12.009 -0.1629  0.1328  0.0125
  576loPI    C3 9203   5.181   8.909  12.036 -0.1110  0.0841  0.1881
  576loPI   PO4 9204   5.214   9.304  11.483 -0.5070  0.1068  0.4221
  576loPI   GL1 9205   5.344   9.522  11.201 -0.1845 -0.1753 -0.2497
  576loPI   GL2 9206   5.156   9.732  11.091  0.3597 -0.2239 -0.1185
  576loPI   C1A 9207   5.430   9.362  10.773 -0.0070  0.0620  0.1481
  576loPI   C2A 9208   5.292   9.316  10.364  0.1887  0.0080 -0.2271
  576loPI   C3A 9209   5.271   9.324   9.939 -0.2811 -0.2146  0.0772
  576loPI   C4A 9210   5.283   9.282   9.494  0.2040  0.0892  0.1316
  576loPI   C5A 9211   5.332   9.140   8.997  0.3002 -0.1109 -0.3082
  576loPI   C6A 9212   5.546   9.048   8.589  0.1577  0.6653  0.0231
  576loPI   C1B 9213   5.168   9.785  10.615  0.0095 -0.1241 -0.4274
  576loPI   C2B 9214   5.135   9.787  10.200  0.0424  0.1445  0.1353
  576loPI   C3B 9215   5.097   9.778   9.805  0.1336 -0.0406  0.2765
  576loPI   C4B 9216   5.144   9.726   9.348  0.1046  0.2205  0.2862
  577loPI    C1 9217  11.951   2.857  11.501 -0.1615  0.0977 -0.0394
  577loPI    C2 9218  11.972   3.130  11.793 -0.1420  0.2071 -0.1422
  577loPI    C3 9219  12.191   2.796  11.815 -0.3140  0.1059  0.0799
  577loPI   PO4 9220  11.921   3.014  11.286 -0.1222 -0.1560 -0.0392
  577loPI   GL1 9221  12.126   3.223  10.994  0.2328 -0.0052 -0.1048
  577loPI   GL2 9222  12.278   2.990  10.860  0.0411  0.0846  0.1055
  577loPI   C1A 9223  11.971   3.351  10.591 -0.0210  0.0872 -0.2289
  577loPI   C2A 9224  11.979   3.570  10.216  0.1557  0.1348  0.0749
  577loPI   C3A 9225  11.960   3.473   9.812 -0.2854  0.0763  0.2323
  577loPI   C4A 9226  11.989   3.491   9.380 -0.1953  0.0345  0.1489
  577loPI   C5A 9227  11.958   3.503   8.906 -0.0616 -0.0245 -0.1508
  577loPI   C6A 9228  11.987   3.285   8.486  0.1466  0.1780  0.2786
  577loPI   C1B 9229  12.255   3.015  10.404  0.1940 -0.1408 -0.2571
  577loPI   C2B 9230  12.177   3.045   9.957 -0.1634  0.2742 -0.3382
  577loPI   C3B 9231  12.236   3.073   9.532  0.2611 -0.2070  0.2435
  577loPI   C4B 9232  12.297   3.132   9.131 -0.0439  0.1338 -0.1843
  578loPI    C1 9233  14.300   4.814  11.588  0.0422  0.0953 -0.0242
  578loPI    C2 9234  14.460   5.159  11.712  0.0559  0.0396  0.1150
  578loPI    C3 9235  14.130   5.016  11.888 -0.0011  0.0258 -0.0016
  578loPI   PO4 9236  14.313   4.919  11.238 -0.2687  0.1454 -0.1076
  578loPI   GL1 9237  14.566   5.092  10.867 -0.2699  0.0783  0.1294
  578loPI   GL2 9238  14.778   4.960  10.785  0.3313  0.1261 -0.0687
  578loPI   C1A 9239  14.244   4.968  10.577  0.3325 -0.0120  0.1042
  578loPI   C2A 9240  14.283   4.939  10.168 -0.1329  0.0980 -0.1023
  578loPI   C3A 9241  14.197   4.847   9.766 -0.0368  0.0241  0.3632
  578loPI   C4A 9242  14.284   4.972   9.361  0.1544  0.2946 -0.1091
  578loPI   C5A 9243  14.263   5.094   8.889  0.4157  0.0309 -0.2509
  578loPI   C6A 9244  14.508   4.987   8.452  0.1068 -0.0285  0.1525
  578loPI   C1B 9245  14.762   4.923  10.332  0.0282 -0.1562  0.1151
  578loPI   C2B 9246  14.703   4.883   9.921 -0.1584 -0.2560 -0.1329
  578loPI   C3B 9247  14.748   4.850   9.402  0.2251  0.1846  0.1148
  578loPI   C4B 9248  14.743   4.898   8.877 -0.0309 -0.0111  0.0389
  579loPI    C1 9249   8.088  14.528  11.450 -0.2576  0.2320  0.0611
  579loPI    C2 9250   8.321  14.834  11.341 -0.0100 -0.0908 -0.3477
  579loPI    C3 9251   8.460  14.558  11.595 -0.1395 -0.0065 -0.1833
  579loPI   PO4 9252   8.002  14.444  11.245 -0.0088 -0.0409  0.0471
  579loPI   GL1 9253   8.112  14.606  10.864 -0.2489  0.0284  0.0263
  579loPI   GL2 9254   7.948  14.883  10.737 -0.4107 -0.1932  0.1455
  579loPI   C1A 9255   8.147  14.369  10.510 -0.0035  0.2070 -0.0039
  579loPI   C2A 9256   8.025  14.414  10.090  0.2476 -0.1300 -0.0132
  579loPI   C3A 9257   8.043  14.411   9.630 -0.1500  0.0545 -0.1346
  579loPI   C4A 9258   8.141  14.339   9.128  0.1979 -0.0004  0.3230
  579loPI   C5A 9259   7.876  13.995   8.897 -0.1478  0.2598 -0.0616
  579loPI   C6A 9260   7.701  13.886   8.422 -0.1372 -0.3686 -0.1796
  579loPI   C1B 9261   7.871  14.955  10.311 -0.2046  0.0812 -0.4053
  579loPI   C2B 9262   7.887  14.834   9.846  0.3690  0.3942  0.0924
  579loPI   C3B 9263   7.840  14.903   9.434 -0.2187 -0.2634  0.0188
  579loPI   C4B 9264   7.836  14.941   8.973  0.2148  0.0486  0.0098
  580loPI    C1 9265   2.151   6.151  11.392  0.1168 -0.0046 -0.0181
  580loPI    C2 9266   2.069   5.853  11.647  0.0252 -0.0920 -0.1488
  580loPI    C3 9267   2.245   6.187  11.780 -0.0919 -0.1053  0.0435
  580loPI   PO4 9268   2.315   6.000  11.226 -0.0119 -0.0274 -0.0117
  580loPI   GL1 9269   2.424   6.279  10.971  0.4599  0.0005  0.2218
  580loPI   GL2 9270   2.605   6.555  10.994 -0.0213 -0.0373  0.1346
  580loPI   C1A 9271   2.405   6.132  10.495 -0.0218  0.0276 -0.2164
  580loPI   C2A 9272   2.402   6.069  10.047 -0.1435  0.1095 -0.2019
  580loPI   C3A 9273   2.294   6.149   9.604 -0.1018 -0.1145 -0.1869
  580loPI   C4A 9274   2.231   6.029   9.195  0.0103 -0.3571  0.0787
  580loPI   C5A 9275   2.468   6.241   8.758 -0.0253 -0.0443  0.0951
  580loPI   C6A 9276   2.705   6.387   8.435 -0.1287  0.0481 -0.2244
  580loPI   C1B 9277   2.731   6.547  10.611 -0.0355 -0.1033 -0.1940
  580loPI   C2B 9278   2.653   6.529  10.240  0.2366 -0.2147  0.2476
  580loPI   C3B 9279   2.528   6.505   9.860  0.1023  0.1414  0.1195
  580loPI   C4B 9280   2.666   6.657   9.439  0.0374  0.2525  0.0293
  581loPI    C1 9281   1.054  11.734  11.639  0.0761 -0.2219  0.0726
  581loPI    C2 9282   1.249  11.599  11.961 -0.0506 -0.1252  0.1909
  581loPI    C3 9283   1.018  11.924  11.989  0.1117  0.0142 -0.0502
  581loPI   PO4 9284   0.926  11.540  11.516  0.1075  0.0372 -0.0378
  581loPI   GL1 9285   0.892  11.474  11.033 -0.1646 -0.1996 -0.0176
  581loPI   GL2 9286   0.710  11.261  10.924  0.1105  0.0160 -0.0099
  581loPI   C1A 9287   0.989  11.761  10.663  0.0131 -0.1102  0.0977
  581loPI   C2A 9288   1.038  11.741  10.234  0.1117  0.1039 -0.0365
  581loPI   C3A 9289   1.113  11.651   9.816  0.1259 -0.1978  0.1357
  581loPI   C4A 9290   1.056  11.640   9.313 -0.2844 -0.1783  0.0053
  581loPI   C5A 9291   0.970  11.654   8.912 -0.1746  0.3008  0.2429
  581loPI   C6A 9292   1.012  11.999   8.670  0.0038 -0.0570  0.0442
  581loPI   C1B 9293   0.703  11.292  10.504 -0.0098 -0.0226 -0.0930
  581loPI   C2B 9294   0.751  11.346  10.122 -0.2891 -0.0326 -0.0103
  581loPI   C3B 9295   0.825  11.297   9.714 -0.0678  0.0042 -0.2947
  581loPI   C4B 9296   0.704  11.284   9.260  0.1620 -0.1333 -0.0745
  582loPI    C1 9297  11.915  12.404  11.336  0.0096 -0.2286 -0.0598
  582loPI    C2 9298  12.262  12.425  11.138  0.1045 -0.2393  0.1036
  582loPI    C3 9299  12.252  12.274  11.509 -0.0041  0.1425  0.2611
  582loPI   PO4 9300  11.746  12.256  11.129 -0.3184 -0.2885 -0.2911
  582loPI   GL1 9301  11.803  12.071  10.847  0.0258 -0.0419 -0.0358
  582loPI   GL2 9302  11.424  11.951  10.958  0.1947 -0.0298  0.0295
  582loPI   C1A 9303  11.880  12.195  10.423 -0.0600  0.2902 -0.0330
  582loPI   C2A 9304  11.950  12.150   9.990 -0.0840  0.1941  0.0093
  582loPI   C3A 9305  11.816  12.067   9.537  0.3089 -0.3753  0.0541
  582loPI   C4A 9306  11.960  12.108   9.129 -0.0645 -0.0509 -0.0795
  582loPI   C5A 9307  11.994  11.832   8.803 -0.1493  0.1392  0.1554
  582loPI   C6A 9308  11.682  11.579   8.725  0.1105  0.0070  0.2216
  582loPI   C1B 9309  11.507  11.718  10.504 -0.1437 -0.2187  0.0009
  582loPI   C2B 9310  11.701  11.721  10.187  0.0032 -0.1530 -0.1655
  582loPI   C3B 9311  11.617  11.678   9.699  0.3131  0.3275  0.0692
  582loPI   C4B 9312  11.529  11.641   9.265  0.0219 -0.1682 -0.1777
  583loPI    C1 9313  11.041   4.728  11.306 -0.0546 -0.1418  0.2048
  583loPI    C2 9314  11.191   5.069  11.450 -0.1177 -0.0856  0.1382
  583loPI    C3 9315  11.024   4.804  11.698 -0.2513  0.0236  0.1659
  583loPI   PO4 9316  11.195   4.656  11.194  0.0656  0.1485 -0.0022
  583loPI   GL1 9317  11.431   4.619  10.906  0.1539 -0.0601  0.2847
  583loPI   GL2 9318  11.233   4.626  10.724  0.0005 -0.0589 -0.0513
  583loPI   C1A 9319  11.645   4.455  10.511  0.0400 -0.2361 -0.0453
  583loPI   C2A 9320  11.604   4.383  10.148  0.0243 -0.1236 -0.0867
  583loPI   C3A 9321  11.682   4.421   9.652 -0.2041 -0.0586 -0.1358
  583loPI   C4A 9322  11.617   4.402   9.201 -0.0246 -0.0628 -0.1096
  583loPI   C5A 9323  11.616   4.592   8.744 -0.1549  0.0681  0.1918
  583loPI   C6A 9324  11.596   4.938   8.328 -0.1038  0.0396  0.0132
  583loPI   C1B 9325  11.156   4.565  10.359  0.0207  0.0122 -0.1785
  583loPI   C2B 9326  11.264   4.561   9.915  0.1540  0.0387 -0.1183
  583loPI   C3B 9327  11.129   4.552   9.459 -0.1340 -0.0141  0.0363
  583loPI   C4B 9328  11.206   4.445   9.010 -0.0651  0.1577  0.1698
  584loPI    C1 9329   0.390  10.506  11.415  0.2737 -0.0657  0.0057
  584loPI    C2 9330   0.511  10.725  11.728  0.1511 -0.1153  0.0886
  584loPI    C3 9331   0.233  10.442  11.778  0.1035 -0.0982 -0.0729
  584loPI   PO4 9332   0.279  10.673  11.222 -0.2348 -0.0890  0.1623
  584loPI   GL1 9333   0.152  10.956  10.996 -0.3904 -0.2177 -0.0078
  584loPI   GL2 9334   0.377  10.896  10.811 -0.0356 -0.0353  0.0928
  584loPI   C1A 9335  -0.140  11.008  10.770  0.2863 -0.2789  0.1683
  584loPI   C2A 9336  -0.136  11.040  10.319 -0.1356 -0.2038  0.0308
  584loPI   C3A 9337  -0.031  10.935   9.817 -0.0034  0.3161  0.1061
  584loPI   C4A 9338  -0.070  10.959   9.374  0.0897 -0.3204  0.0605
  584loPI   C5A 9339  -0.147  10.684   8.962 -0.0415  0.2226 -0.2498
  584loPI   C6A 9340  -0.377  10.619   8.637  0.1287 -0.0381  0.0648
  584loPI   C1B 9341   0.427  10.934  10.280 -0.0298  0.1814 -0.0961
  584loPI   C2B 9342   0.507  10.914   9.890 -0.0448 -0.0577  0.1605
  584loPI   C3B 9343   0.394  10.865   9.448 -0.0191  0.0109  0.0416
  584loPI   C4B 9344   0.296  10.888   9.010 -0.0660  0.0627 -0.0761
  585loPI    C1 9345  13.192   5.778  11.414 -0.3979 -0.1771  0.2031
  585loPI    C2 9346  13.364   6.037  11.665 -0.1686 -0.1734  0.0451
  585loPI    C3 9347  13.074   5.795  11.796 -0.0902 -0.1334  0.2987
  585loPI   PO4 9348  13.189   5.936  11.211  0.0246  0.0876 -0.0144
  585loPI   GL1 9349  12.907   6.002  10.873  0.0880 -0.3538  0.0623
  585loPI   GL2 9350  12.776   6.267  10.897  0.3235 -0.1089  0.0829
  585loPI   C1A 9351  12.910   6.026  10.424  0.0185 -0.1381  0.1329
  585loPI   C2A 9352  12.896   6.027   9.984 -0.2991  0.0640 -0.0556
  585loPI   C3A 9353  12.903   6.129   9.549 -0.2596  0.2316  0.0475
  585loPI   C4A 9354  12.909   6.088   9.104 -0.3794  0.0022  0.2463
  585loPI   C5A 9355  12.999   6.043   8.656 -0.1753  0.0120  0.2574
  585loPI   C6A 9356  13.308   6.057   8.310 -0.0588 -0.0483  0.1220
  585loPI   C1B 9357  12.754   6.529  10.549 -0.0273  0.1721 -0.4389
  585loPI   C2B 9358  12.708   6.599  10.189 -0.1876 -0.0580  0.1621
  585loPI   C3B 9359  12.651   6.572   9.781 -0.2985 -0.1149  0.2591
  585loPI   C4B 9360  12.692   6.600   9.362 -0.2312 -0.0511 -0.1556
  586loPI    C1 9361  14.484   5.479  11.332  0.0310 -0.0372 -0.1888
  586loPI    C2 9362  14.314   5.707  11.612  0.1221 -0.1394 -0.0491
  586loPI    C3 9363  14.176   5.716  11.237 -0.0880 -0.1030  0.0275
  586loPI   PO4 9364  14.692   5.551  11.256 -0.2942 -0.1400  0.2056
  586loPI   GL1 9365  14.569   5.672  10.878  0.0392 -0.1028  0.1406
  586loPI   GL2 9366  14.429   5.973  10.859 -0.0122 -0.1806 -0.3145
  586loPI   C1A 9367  14.596   5.401  10.491 -0.2011 -0.2786 -0.2072
  586loPI   C2A 9368  14.617   5.359  10.005  0.0111 -0.2265 -0.2080
  586loPI   C3A 9369  14.539   5.269   9.625 -0.2051  0.0762 -0.0644
  586loPI   C4A 9370  14.627   5.325   9.159 -0.0276 -0.1377 -0.0859
  586loPI   C5A 9371  14.637   5.426   8.692  0.1802  0.0902 -0.0383
  586loPI   C6A 9372  14.658   5.521   8.245 -0.2722  0.0288  0.2325
  586loPI   C1B 9373  14.402   5.859  10.404 -0.1781  0.2689  0.1073
  586loPI   C2B 9374  14.344   5.859   9.981 -0.0121 -0.2030  0.0514
  586loPI   C3B 9375  14.376   5.831   9.540 -0.0272  0.3099  0.1651
  586loPI   C4B 9376  14.383   5.764   9.107 -0.3633 -0.1400 -0.1533
  587loPI    C1 9377  14.264   3.580  11.379  0.0460  0.1944  0.1204
  587loPI    C2 9378  14.007   3.362  11.593  0.2354 -0.0865  0.0672
  587loPI    C3 9379  14.166   3.694  11.750 -0.0308 -0.0003  0.1611
  587loPI   PO4 9380  14.169   3.626  11.175 -0.1806  0.0402  0.4495
  587loPI   GL1 9381  14.007   3.817  10.882 -0.1349 -0.1937  0.2226
  587loPI   GL2 9382  14.076   4.153  10.620  0.1594  0.1536 -0.0156
  587loPI   C1A 9383  13.848   3.730  10.442 -0.0466 -0.2171 -0.2602
  587loPI   C2A 9384  13.832   3.662  10.026  0.2511 -0.0840  0.2070
  587loPI   C3A 9385  13.835   3.655   9.526  0.0050 -0.2394 -0.2013
  587loPI   C4A 9386  13.911   3.606   9.071 -0.0258 -0.2858  0.0576
  587loPI   C5A 9387  13.817   3.311   8.764 -0.0795  0.2926 -0.4586
  587loPI   C6A 9388  13.653   2.986   8.517 -0.1368  0.1255 -0.0589
  587loPI   C1B 9389  14.095   4.150  10.147  0.0065  0.3464 -0.0497
  587loPI   C2B 9390  14.087   4.081   9.709  0.0414  0.3051 -0.2280
  587loPI   C3B 9391  14.173   3.998   9.365  0.0340  0.0452 -0.0580
  587loPI   C4B 9392  14.355   3.872   8.959  0.1995  0.0199 -0.0607
  588loPI    C1 9393   7.236   9.128  11.749  0.2315 -0.0171 -0.3316
  588loPI    C2 9394   7.343   9.473  11.921 -0.0437 -0.0793 -0.0260
  588loPI    C3 9395   7.315   9.140  12.141 -0.3407 -0.1746 -0.2028
  588loPI   PO4 9396   7.269   9.151  11.521 -0.2357  0.1232 -0.0363
  588loPI   GL1 9397   7.371   9.322  11.177 -0.4506  0.2367  0.2131
  588loPI   GL2 9398   7.420   9.040  10.889  0.1173  0.2010  0.1480
  588loPI   C1A 9399   7.212   9.473  10.809 -0.0521 -0.0466  0.0646
  588loPI   C2A 9400   7.174   9.543  10.361 -0.0976  0.0991  0.1989
  588loPI   C3A 9401   7.192   9.564   9.997  0.0299 -0.0580 -0.3437
  588loPI   C4A 9402   7.143   9.551   9.559  0.0333  0.1361  0.1166
  588loPI   C5A 9403   7.240   9.594   9.137 -0.0722 -0.2490  0.1169
  588loPI   C6A 9404   7.323   9.946   8.837 -0.0245  0.1030 -0.1279
  588loPI   C1B 9405   7.402   9.096  10.461  0.1886 -0.1352 -0.1747
  588loPI   C2B 9406   7.418   9.108  10.049  0.2295  0.0088 -0.1981
  588loPI   C3B 9407   7.381   9.062   9.620  0.0568  0.0928  0.0266
  588loPI   C4B 9408   7.359   9.143   9.172 -0.2269  0.0926 -0.3726
  589loPI    C1 9409   1.999  16.984  11.397  0.1076  0.0742 -0.0554
  589loPI    C2 9410   1.932  17.275  11.131 -0.1617  0.0757  0.0112
  589loPI    C3 9411   1.691  17.234  11.448 -0.0035 -0.0938  0.1117
  589loPI   PO4 9412   2.185  16.839  11.275 -0.0555  0.0119 -0.2924
  589loPI   GL1 9413   2.463  16.638  10.935 -0.1523 -0.0699 -0.2350
  589loPI   GL2 9414   2.198  16.852  10.757 -0.0938 -0.1600  0.0277
  589loPI   C1A 9415   2.378  16.387  10.538  0.0322  0.0464 -0.1059
  589loPI   C2A 9416   2.354  16.498  10.144 -0.0514 -0.2733  0.0848
  589loPI   C3A 9417   2.426  16.554   9.733  0.0013  0.1232 -0.0367
  589loPI   C4A 9418   2.371  16.605   9.254 -0.1323 -0.0878 -0.3165
  589loPI   C5A 9419   2.408  16.658   8.877  0.2435 -0.2505  0.1933
  589loPI   C6A 9420   2.202  16.894   8.432 -0.0018 -0.0090 -0.0793
  589loPI   C1B 9421   2.163  16.943  10.367 -0.0783  0.0518  0.0513
  589loPI   C2B 9422   2.206  17.030   9.851  0.0980  0.3058  0.1919
  589loPI   C3B 9423   2.221  17.062   9.424 -0.3130 -0.1337 -0.0394
  589loPI   C4B 9424   2.204  17.080   8.993  0.0315  0.1587 -0.1840
  590loPI    C1 9425  16.417  17.535  11.720 -0.0125 -0.0536 -0.0574
  590loPI    C2 9426  16.152  17.489  11.424  0.0535 -0.0478 -0.1175
  590loPI    C3 9427  16.028  17.499  11.804 -0.0256 -0.1093 -0.1414
  590loPI   PO4 9428  16.650  17.435  11.556  0.1599  0.0520 -0.0089
  590loPI   GL1 9429  16.594  17.425  11.135  0.3747  0.4028 -0.2240
  590loPI   GL2 9430  16.429  17.618  11.004  0.1530 -0.2766  0.0250
  590loPI   C1A 9431  16.963  17.437  10.742  0.0132 -0.1757 -0.1066
  590loPI   C2A 9432  16.969  17.456  10.405  0.0275  0.2453  0.0619
  590loPI   C3A 9433  16.854  17.380   9.952 -0.1874 -0.1574 -0.0049
  590loPI   C4A 9434  16.847  17.365   9.501 -0.0064 -0.1382 -0.2980
  590loPI   C5A 9435  16.875  17.434   9.074  0.2623 -0.0071 -0.0830
  590loPI   C6A 9436  17.126  17.759   9.073  0.1894  0.1127  0.2218
  590loPI   C1B 9437  16.450  17.500  10.540 -0.2689  0.1010 -0.1288
  590loPI   C2B 9438  16.378  17.498  10.167 -0.0758 -0.3953  0.1178
  590loPI   C3B 9439  16.388  17.493   9.638  0.1294 -0.0412  0.2222
  590loPI   C4B 9440  16.325  17.475   9.138  0.1673 -0.0016 -0.3559
  591loPI    C1 9441  13.321   8.095  11.520 -0.3051  0.2020  0.0806
  591loPI    C2 9442  13.603   8.130  11.801 -0.0464 -0.0854 -0.1365
  591loPI    C3 9443  13.245   8.299  11.856  0.0294 -0.0595  0.3228
  591loPI   PO4 9444  13.343   8.100  11.275 -0.0458  0.1321 -0.1382
  591loPI   GL1 9445  13.044   8.037  10.939 -0.2892  0.1083 -0.0509
  591loPI   GL2 9446  13.064   8.347  10.955  0.1034  0.2691 -0.1350
  591loPI   C1A 9447  13.170   7.861  10.532 -0.4045 -0.2623 -0.0130
  591loPI   C2A 9448  12.983   7.941  10.185  0.3641 -0.6113 -0.1085
  591loPI   C3A 9449  13.081   7.977   9.785 -0.3372  0.0655  0.1587
  591loPI   C4A 9450  13.136   7.879   9.319  0.1433 -0.0161 -0.1560
  591loPI   C5A 9451  13.065   7.802   8.891  0.0426  0.0337  0.0623
  591loPI   C6A 9452  12.915   8.155   8.750  0.2139 -0.1053 -0.3057
  591loPI   C1B 9453  12.928   8.375  10.523  0.0790 -0.0209 -0.2941
  591loPI   C2B 9454  12.903   8.493  10.084  0.1704 -0.0495  0.0159
  591loPI   C3B 9455  12.902   8.464   9.683  0.6091  0.0639  0.2574
  591loPI   C4B 9456  12.853   8.335   9.290 -0.1078  0.0191 -0.1912
  592loPI    C1 9457  15.784  17.069  11.904 -0.0650  0.1634  0.2088
  592loPI    C2 9458  15.724  16.684  11.816 -0.4386  0.2202  0.1989
  592loPI    C3 9459  16.010  16.787  12.075 -0.1849 -0.0440  0.0307
  592loPI   PO4 9460  15.724  17.160  11.660  0.2416 -0.0332 -0.1379
  592loPI   GL1 9461  15.833  17.119  11.214 -0.0304  0.2028 -0.0677
  592loPI   GL2 9462  15.634  17.127  11.144 -0.3648  0.2519  0.1042
  592loPI   C1A 9463  16.177  17.190  10.864  0.2777 -0.2775 -0.3012
  592loPI   C2A 9464  16.159  17.122  10.424  0.1129 -0.0837  0.5338
  592loPI   C3A 9465  16.060  17.154  10.000 -0.0559 -0.1680  0.2265
  592loPI   C4A 9466  16.108  17.011   9.465  0.2551  0.3326 -0.0380
  592loPI   C5A 9467  15.955  17.068   9.057  0.1502 -0.1996  0.1817
  592loPI   C6A 9468  15.564  17.275   8.818  0.3653 -0.3133 -0.3126
  592loPI   C1B 9469  15.663  17.266  10.786  0.0630 -0.0691 -0.0861
  592loPI   C2B 9470  15.639  17.195  10.351 -0.3399  0.0394  0.2455
  592loPI   C3B 9471  15.582  17.062   9.871  0.0975  0.1091 -0.0918
  592loPI   C4B 9472  15.550  17.102   9.337 -0.2137 -0.0013 -0.0181
  593loPI    C1 9473   9.561  15.943  11.514  0.0262  0.0080  0.0612
  593loPI    C2 9474   9.807  16.006  11.823 -0.0244  0.0013  0.1030
  593loPI    C3 9475   9.561  15.691  11.824  0.0473 -0.0557  0.0096
  593loPI   PO4 9476   9.685  16.119  11.361  0.0948  0.0097  0.1340
  593loPI   GL1 9477   9.834  16.292  10.964  0.0632 -0.2209 -0.0910
  593loPI   GL2 9478   9.748  16.075  10.711  0.0614 -0.0016  0.1139
  593loPI   C1A 9479   9.690  16.489  10.531 -0.1176  0.1948  0.1132
  593loPI   C2A 9480   9.674  16.585  10.125  0.0083  0.1635 -0.1265
  593loPI   C3A 9481   9.624  16.589   9.714  0.2203 -0.0441 -0.0870
  593loPI   C4A 9482   9.676  16.524   9.288 -0.2244  0.1608  0.0817
  593loPI   C5A 9483   9.840  16.810   9.032  0.2178 -0.0323  0.0200
  593loPI   C6A 9484  10.142  17.160   8.871  0.0945 -0.2991  0.2478
  593loPI   C1B 9485   9.817  16.008  10.208  0.0912  0.2723 -0.0078
  593loPI   C2B 9486   9.802  15.960   9.828  0.2821 -0.0966  0.0176
  593loPI   C3B 9487   9.976  16.176   9.459 -0.2582  0.3139  0.0775
  593loPI   C4B 9488  10.241  16.370   9.170 -0.4136 -0.2032  0.1908
  594loPI    C1 9489   6.562   8.091  11.589 -0.1299  0.2331  0.0844
  594loPI    C2 9490   6.390   8.355  11.835 -0.2571  0.2511 -0.0221
  594loPI    C3 9491   6.543   8.016  11.982  0.0023  0.4294  0.1296
  594loPI   PO4 9492   6.525   7.999  11.206  0.0302  0.1138 -0.0891
  594loPI   GL1 9493   6.672   7.925  10.776 -0.1180  0.0457  0.0017
  594loPI   GL2 9494   6.513   7.734  10.709  0.0034 -0.2032  0.0564
  594loPI   C1A 9495   6.803   8.121  10.480  0.0002  0.0229 -0.2674
  594loPI   C2A 9496   6.809   8.211  10.100  0.0129 -0.1872 -0.0509
  594loPI   C3A 9497   6.758   8.144   9.694 -0.0997 -0.0494 -0.0449
  594loPI   C4A 9498   6.742   8.263   9.307 -0.1092  0.3423 -0.0808
  594loPI   C5A 9499   6.897   8.302   8.882 -0.2693  0.0614  0.1871
  594loPI   C6A 9500   7.051   8.239   8.459  0.0447  0.1303 -0.1907
  594loPI   C1B 9501   6.484   7.739  10.306  0.2574  0.2838  0.0856
  594loPI   C2B 9502   6.403   7.752   9.866 -0.0065  0.1740  0.0609
  594loPI   C3B 9503   6.406   7.849   9.407 -0.2705  0.1371 -0.2348
  594loPI   C4B 9504   6.350   7.842   9.042  0.0995  0.3783  0.1062
  595loPI    C1 9505  11.446   3.017  11.334  0.2205  0.1645 -0.0947
  595loPI    C2 9506  11.551   3.327  11.564  0.1986  0.0739  0.0385
  595loPI    C3 9507  11.507   2.964  11.726  0.0011  0.0461 -0.0753
  595loPI   PO4 9508  11.264   3.091  11.224  0.1232  0.3580 -0.0870
  595loPI   GL1 9509  11.205   3.212  10.846  0.1300  0.0406 -0.1111
  595loPI   GL2 9510  11.135   3.560  10.734  0.1935 -0.1643  0.3601
  595loPI   C1A 9511  11.182   3.106  10.381 -0.0750 -0.2319  0.2774
  595loPI   C2A 9512  11.117   3.210   9.936 -0.3327  0.0367  0.4014
  595loPI   C3A 9513  11.148   3.107   9.502 -0.0168  0.0788  0.1655
  595loPI   C4A 9514  11.090   3.035   9.107 -0.0005 -0.3747  0.0119
  595loPI   C5A 9515  11.341   3.156   8.817  0.0974 -0.0546 -0.0557
  595loPI   C6A 9516  11.488   3.104   8.469  0.1863 -0.1361 -0.0898
  595loPI   C1B 9517  10.986   3.595  10.255  0.1586 -0.2452  0.0749
  595loPI   C2B 9518  11.033   3.674   9.811 -0.1992 -0.0032 -0.1963
  595loPI   C3B 9519  10.954   3.659   9.478  0.0259 -0.0679  0.2208
  595loPI   C4B 9520  10.869   3.542   8.993 -0.2119  0.0617  0.2723
  596loPI    C1 9521  12.992  12.965  11.341 -0.0257  0.0651  0.0952
  596loPI    C2 9522  12.787  13.308  11.357  0.1219  0.1551  0.0762
  596loPI    C3 9523  13.045  13.215  11.649 -0.0006  0.0066  0.1384
  596loPI   PO4 9524  12.948  12.931  11.045  0.1759  0.0818  0.1789
  596loPI   GL1 9525  13.282  12.860  10.739 -0.0733 -0.0441 -0.2674
  596loPI   GL2 9526  13.221  12.531  10.701  0.2018  0.0910 -0.1160
  596loPI   C1A 9527  13.139  12.990  10.363 -0.3972  0.4158  0.1335
  596loPI   C2A 9528  13.098  12.854  10.007 -0.3299  0.1554 -0.0287
  596loPI   C3A 9529  12.937  12.827   9.662  0.1304  0.1840  0.0815
  596loPI   C4A 9530  13.084  12.905   9.300  0.1061  0.1405  0.3033
  596loPI   C5A 9531  12.977  12.785   8.913  0.0636 -0.0037  0.0256
  596loPI   C6A 9532  12.502  12.933   8.872 -0.0489 -0.2039  0.2223
  596loPI   C1B 9533  13.265  12.478  10.301 -0.1909  0.0133 -0.1009
  596loPI   C2B 9534  13.240  12.372   9.846 -0.2180 -0.2959 -0.0616
  596loPI   C3B 9535  13.201  12.382   9.439  0.1090 -0.0403 -0.0877
  596loPI   C4B 9536  13.360  12.378   8.950 -0.0881  0.1181  0.0160
  597loPI    C1 9537   6.726  16.958  11.822  0.2120 -0.0168  0.1214
  597loPI    C2 9538   6.847  17.273  12.036 -0.0884  0.0880  0.1419
  597loPI    C3 9539   6.600  17.004  12.199 -0.1221  0.0363  0.0061
  597loPI   PO4 9540   6.852  17.090  11.588 -0.1874  0.0350 -0.1951
  597loPI   GL1 9541   6.807  17.279  11.217  0.2782  0.2272 -0.0382
  597loPI   GL2 9542   6.516  17.325  11.144 -0.0804  0.0953  0.1925
  597loPI   C1A 9543   6.840  17.272  10.752 -0.3634 -0.1691 -0.0819
  597loPI   C2A 9544   6.853  17.241  10.246 -0.0889  0.0111  0.3700
  597loPI   C3A 9545   6.862  17.276   9.755  0.0308 -0.0115  0.3406
  597loPI   C4A 9546   6.878  17.349   9.212  0.0600 -0.0164 -0.0743
  597loPI   C5A 9547   6.884  17.486   8.767 -0.0886 -0.2600 -0.0412
  597loPI   C6A 9548   6.708  17.438   8.344  0.0844 -0.0727  0.0381
  597loPI   C1B 9549   6.292  17.314  10.660 -0.0013 -0.0089 -0.0795
  597loPI   C2B 9550   6.318  17.179  10.264  0.2119  0.1632  0.3426
  597loPI   C3B 9551   6.323  17.245   9.782  0.0371  0.0376 -0.1307
  597loPI   C4B 9552   6.423  17.227   9.341  0.0785  0.0496 -0.0280
  598loPI    C1 9553   8.909   0.231  11.445 -0.2201 -0.0455 -0.0420
  598loPI    C2 9554   9.039  -0.142  11.383 -0.1593 -0.0754  0.2504
  598loPI    C3 9555   9.012   0.000  11.755 -0.1173  0.2362  0.1371
  598loPI   PO4 9556   8.730   0.242  11.275  0.1392  0.0468 -0.0335
  598loPI   GL1 9557   8.594  -0.006  11.005 -0.0965  0.1102  0.0724
  598loPI   GL2 9558   8.703  -0.272  10.757 -0.1211  0.0776  0.3704
  598loPI   C1A 9559   8.477   0.192  10.620 -0.3722 -0.0525 -0.1960
  598loPI   C2A 9560   8.495   0.281  10.237  0.0736  0.0946  0.2204
  598loPI   C3A 9561   8.467   0.347   9.850 -0.1408 -0.2030  0.4956
  598loPI   C4A 9562   8.519   0.233   9.460  0.1063  0.0214 -0.0324
  598loPI   C5A 9563   8.320   0.407   9.090 -0.1954  0.2020  0.0663
  598loPI   C6A 9564   8.269   0.289   8.668 -0.3666  0.1605 -0.0181
  598loPI   C1B 9565   8.762  -0.185  10.309 -0.1704  0.3360 -0.1230
  598loPI   C2B 9566   8.689  -0.268   9.910  0.0563 -0.3559  0.0966
  598loPI   C3B 9567   8.719  -0.168   9.513 -0.0575  0.1616 -0.0305
  598loPI   C4B 9568   8.644  -0.099   9.022  0.2596  0.1170 -0.2492
  599loPI    C1 9569   1.506   2.853  11.937  0.2077 -0.0565 -0.0143
  599loPI    C2 9570   1.392   2.631  12.250  0.3679  0.1228  0.1739
  599loPI    C3 9571   1.222   2.987  12.185  0.0283 -0.0992 -0.1945
  599loPI   PO4 9572   1.661   2.655  11.769  0.0286  0.0356 -0.1380
  599loPI   GL1 9573   1.665   2.627  11.293  0.2162 -0.0891  0.2511
  599loPI   GL2 9574   1.368   2.636  11.093 -0.2029 -0.3266  0.0501
  599loPI   C1A 9575   1.862   2.558  10.904 -0.3341  0.2161  0.2445
  599loPI   C2A 9576   1.890   2.484  10.454  0.1785  0.2100  0.1386
  599loPI   C3A 9577   1.953   2.624  10.130 -0.2182  0.0974 -0.2328
  599loPI   C4A 9578   1.852   2.423   9.753 -0.0388  0.0062  0.1263
  599loPI   C5A 9579   1.951   2.536   9.344 -0.3169  0.0737 -0.1406
  599loPI   C6A 9580   2.396   2.496   9.043  0.0122  0.1455 -0.0889
  599loPI   C1B 9581   1.328   2.516  10.627 -0.1606  0.0163  0.0526
  599loPI   C2B 9582   1.424   2.578  10.187 -0.3369  0.0929  0.0843
  599loPI   C3B 9583   1.432   2.641   9.786 -0.0461 -0.4770 -0.1686
  599loPI   C4B 9584   1.395   2.432   9.405 -0.2600  0.0145 -0.1263
  600loPI    C1 9585  12.963   9.492  11.613 -0.0941 -0.0615  0.0463
  600loPI    C2 9586  12.815   9.185  11.823 -0.0188 -0.0448  0.1245
  600loPI    C3 9587  12.959   9.506  12.013  0.0411 -0.0253  0.0467
  600loPI   PO4 9588  12.861   9.394  11.335 -0.0190 -0.1753  0.0646
  600loPI   GL1 9589  12.981   9.096  11.058 -0.1599 -0.1616  0.2011
  600loPI   GL2 9590  13.226   8.853  11.107  0.0147 -0.2414 -0.0888
  600loPI   C1A 9591  13.125   9.277  10.586  0.0231  0.3566 -0.1184
  600loPI   C2A 9592  13.099   9.279  10.124 -0.1947  0.2201 -0.0093
  600loPI   C3A 9593  13.057   9.310   9.710  0.2663  0.1130 -0.0645
  600loPI   C4A 9594  13.077   9.246   9.284  0.0103 -0.2383 -0.0308
  600loPI   C5A 9595  13.148   9.313   8.785  0.1480  0.0706 -0.1396
  600loPI   C6A 9596  12.896   9.668   8.596  0.0768  0.0556 -0.0437
  600loPI   C1B 9597  13.223   8.744  10.672  0.0244  0.0427 -0.1100
  600loPI   C2B 9598  13.273   8.788  10.260  0.2847  0.0766  0.0309
  600loPI   C3B 9599  13.269   8.816   9.757  0.1447  0.0618  0.1046
  600loPI   C4B 9600  13.264   8.696   9.410  0.3246  0.1952  0.3973
  601loPI    C1 9601  12.644  17.661  11.187  0.0704  0.0556  0.2385
  601loPI    C2 9602  12.245  17.682  11.159  0.0904  0.1212 -0.0223
  601loPI    C3 9603  12.425  17.745  11.511 -0.1398 -0.0905  0.1367
  601loPI   PO4 9604  12.680  17.557  10.929  0.1516  0.0348 -0.1223
  601loPI   GL1 9605  12.583  17.459  10.580  0.0660  0.1293  0.0805
  601loPI   GL2 9606  12.226  17.280  10.592  0.2513  0.2551 -0.1065
  601loPI   C1A 9607  12.601  17.640  10.141  0.2576  0.2253 -0.1601
  601loPI   C2A 9608  12.501  17.540   9.683  0.0044 -0.2596  0.0891
  601loPI   C3A 9609  12.497  17.360   9.213  0.1765 -0.1387  0.1915
  601loPI   C4A 9610  12.625  17.396   8.791 -0.3572 -0.1791  0.1064
  601loPI   C5A 9611  12.527  17.231   8.395 -0.0963 -0.1786 -0.2352
  601loPI   C6A 9612  12.404  16.872   8.192 -0.0176  0.1647 -0.1414
  601loPI   C1B 9613  12.281  17.201  10.179 -0.0834 -0.0572  0.2504
  601loPI   C2B 9614  12.222  17.108   9.685  0.3639 -0.0367 -0.1749
  601loPI   C3B 9615  12.236  16.971   9.287 -0.0759 -0.0386 -0.0293
  601loPI   C4B 9616  12.135  17.098   8.862  0.0165 -0.0041  0.1215
  602loPI    C1 9617  10.759  16.357  11.221  0.1245  0.0218 -0.0791
  602loPI    C2 9618  11.115  16.420  11.392  0.2301  0.0394 -0.3016
  602loPI    C3 9619  10.978  16.047  11.348  0.0935  0.0459  0.0342
  602loPI   PO4 9620  10.693  16.534  10.997  0.1304 -0.1570 -0.1893
  602loPI   GL1 9621  10.582  16.374  10.562  0.0411  0.0251 -0.1289
  602loPI   GL2 9622  10.255  16.481  10.584  0.3144 -0.0867  0.1074
  602loPI   C1A 9623  10.552  16.518  10.117 -0.1615 -0.1758 -0.1576
  602loPI   C2A 9624  10.500  16.242   9.664  0.2718 -0.3354  0.4404
  602loPI   C3A 9625  10.436  15.750   9.547 -0.0618 -0.1257  0.0179
  602loPI   C4A 9626  10.465  15.362   9.613 -0.0296  0.1355  0.1552
  602loPI   C5A 9627  10.872  15.131   9.559  0.0143 -0.0146  0.1381
  602loPI   C6A 9628  11.265  14.882   9.678 -0.2161  0.0906 -0.1120
  602loPI   C1B 9629  10.398  16.892  10.378  0.2869 -0.3492 -0.0039
  602loPI   C2B 9630  10.377  16.993   9.992  0.2415 -0.1579 -0.0735
  602loPI   C3B 9631  10.589  16.807   9.646  0.3693  0.0661 -0.1402
  602loPI   C4B 9632  10.890  16.841   9.367  0.1022 -0.1818 -0.0949
  603loPI    C1 9633  17.737  10.982  11.545 -0.2700  0.2635 -0.0814
  603loPI    C2 9634  17.486  10.848  11.264  0.0135 -0.2687 -0.0950
  603loPI    C3 9635  17.423  10.757  11.649 -0.0198 -0.0831 -0.0556
  603loPI   PO4 9636  17.829  11.218  11.411 -0.2529 -0.0256 -0.2773
  603loPI   GL1 9637  17.963  11.451  10.957  0.3088  0.1384 -0.0230
  603loPI   GL2 9638  18.123  11.655  10.895 -0.1266 -0.2278  0.0133
  603loPI   C1A 9639  17.950  11.337  10.538  0.2595 -0.0776  0.0049
  603loPI   C2A 9640  17.947  11.299  10.072 -0.1080 -0.0635  0.0539
  603loPI   C3A 9641  18.027  11.312   9.618  0.1855 -0.0349 -0.0573
  603loPI   C4A 9642  17.909  11.334   9.164  0.1729 -0.1687  0.1040
  603loPI   C5A 9643  17.678  11.195   8.864 -0.1336  0.0616  0.1217
  603loPI   C6A 9644  17.348  11.136   8.663 -0.0354  0.0419 -0.0352
  603loPI   C1B 9645  18.181  11.789  10.466 -0.0041 -0.0913 -0.2093
  603loPI   C2B 9646  18.249  11.756   9.976 -0.2820 -0.2701 -0.2845
  603loPI   C3B 9647  18.246  11.774   9.545  0.1284 -0.3737 -0.0620
  603loPI   C4B 9648  18.204  11.692   9.027 -0.0986  0.1604 -0.2391
  604loPI    C1 9649  14.100  14.548  11.675 -0.1011 -0.0203 -0.2302
  604loPI    C2 9650  14.477  14.528  11.544 -0.0128 -0.1934  0.0402
  604loPI    C3 9651  14.371  14.333  11.877 -0.2995  0.0016  0.0666
  604loPI   PO4 9652  13.961  14.570  11.394  0.2608  0.2385 -0.0156
  604loPI   GL1 9653  14.029  14.578  10.950  0.1337  0.0036  0.2011
  604loPI   GL2 9654  14.315  14.627  10.855  0.1810 -0.2116  0.0943
  604loPI   C1A 9655  13.869  14.284  10.541 -0.2763 -0.1256 -0.0152
  604loPI   C2A 9656  13.968  14.267  10.038  0.1783 -0.0430  0.2986
  604loPI   C3A 9657  13.918  14.126   9.546  0.2783 -0.0263 -0.0902
  604loPI   C4A 9658  13.823  14.094   9.095  0.1639  0.0458 -0.0495
  604loPI   C5A 9659  13.908  14.019   8.661  0.1028 -0.1795  0.0791
  604loPI   C6A 9660  14.177  13.861   8.359  0.0595 -0.2410  0.5923
  604loPI   C1B 9661  14.182  14.752  10.505 -0.0394  0.0985 -0.0935
  604loPI   C2B 9662  14.253  14.685  10.042  0.0135  0.0391  0.0826
  604loPI   C3B 9663  14.189  14.525   9.599 -0.2483  0.1095 -0.2172
  604loPI   C4B 9664  14.244  14.383   9.134 -0.1498 -0.1634 -0.0816
  605loPI    C1 9665  17.474  14.207  11.850  0.3507  0.1214 -0.0169
  605loPI    C2 9666  17.806  14.099  12.044  0.2642  0.2612  0.2127
  605loPI    C3 9667  17.475  14.191  12.249  0.0571  0.0434 -0.0171
  605loPI   PO4 9668  17.527  14.427  11.564 -0.2008  0.1874  0.1703
  605loPI   GL1 9669  17.465  14.354  11.227  0.0064  0.0666 -0.1551
  605loPI   GL2 9670  17.601  14.620  11.023  0.1379 -0.1952  0.0791
  605loPI   C1A 9671  17.226  14.355  10.871  0.0726 -0.1504 -0.0872
  605loPI   C2A 9672  17.247  14.215  10.436  0.0299  0.0997 -0.0065
  605loPI   C3A 9673  17.247  14.190   9.988 -0.1017 -0.2959  0.0720
  605loPI   C4A 9674  17.310  14.089   9.551  0.1872 -0.0724  0.0629
  605loPI   C5A 9675  17.330  14.162   9.068  0.1826 -0.1210 -0.1025
  605loPI   C6A 9676  17.274  14.494   8.780 -0.0507 -0.3548 -0.0879
  605loPI   C1B 9677  17.517  14.682  10.549  0.1228  0.0790  0.2634
  605loPI   C2B 9678  17.597  14.591  10.032  0.1350 -0.0270  0.2631
  605loPI   C3B 9679  17.593  14.548   9.595  0.2512  0.2011  0.0951
  605loPI   C4B 9680  17.692  14.543   9.089  0.2455  0.0576 -0.1616
  606loPI    C1 9681   9.689   5.748  11.436 -0.0904  0.0602  0.1522
  606loPI    C2 9682   9.776   5.403  11.619 -0.0043  0.0314  0.0582
  606loPI    C3 9683   9.641   5.714  11.831 -0.1332 -0.0764  0.1360
  606loPI   PO4 9684   9.499   5.703  11.214 -0.1751  0.1716 -0.0009
  606loPI   GL1 9685   9.431   5.543  10.892  0.0267  0.1058 -0.1051
  606loPI   GL2 9686   9.176   5.631  10.752  0.1319  0.0030 -0.0882
  606loPI   C1A 9687   9.423   5.243  10.592 -0.4120 -0.0530  0.0689
  606loPI   C2A 9688   9.436   5.162  10.127 -0.1071 -0.0657  0.1462
  606loPI   C3A 9689   9.409   5.112   9.657 -0.0327  0.2692  0.1114
  606loPI   C4A 9690   9.382   5.200   9.208 -0.1124 -0.2876  0.2959
  606loPI   C5A 9691   9.421   5.187   8.705 -0.0105  0.4503 -0.2176
  606loPI   C6A 9692   9.384   5.365   8.303  0.3393  0.0847  0.1024
  606loPI   C1B 9693   9.259   5.613  10.289 -0.0745  0.0518 -0.0731
  606loPI   C2B 9694   9.228   5.644   9.883 -0.3369  0.4171  0.0780
  606loPI   C3B 9695   9.172   5.577   9.499 -0.2392  0.2394  0.0572
  606loPI   C4B 9696   9.177   5.621   9.032 -0.2625 -0.0862 -0.1334
  607loPI    C1 9697   6.201   9.495  11.727 -0.0557  0.0967 -0.1583
  607loPI    C2 9698   6.325   9.330  12.070 -0.0149 -0.2377 -0.3294
  607loPI    C3 9699   5.946   9.452  12.032  0.0061 -0.1063 -0.1335
  607loPI   PO4 9700   6.398   9.318  11.552 -0.2004  0.2581  0.0063
  607loPI   GL1 9701   6.521   9.287  11.031 -0.0260 -0.3293  0.1247
  607loPI   GL2 9702   6.503   8.974  11.007  0.0854 -0.0112  0.0272
  607loPI   C1A 9703   6.480   9.299  10.511 -0.1791  0.3395  0.1746
  607loPI   C2A 9704   6.395   9.202  10.075 -0.0785 -0.0786 -0.3180
  607loPI   C3A 9705   6.218   9.216   9.730  0.0006 -0.1428  0.0611
  607loPI   C4A 9706   6.355   9.199   9.273 -0.0174  0.0803  0.2381
  607loPI   C5A 9707   6.320   9.396   8.931  0.0976  0.0150  0.1238
  607loPI   C6A 9708   6.162   9.844   8.721 -0.1807 -0.2800  0.2138
  607loPI   C1B 9709   6.087   8.797  10.646  0.0058  0.2324 -0.0404
  607loPI   C2B 9710   6.022   8.880  10.294  0.1769 -0.0884  0.0043
  607loPI   C3B 9711   5.989   8.751   9.866 -0.3260  0.1888 -0.1032
  607loPI   C4B 9712   6.049   8.836   9.405  0.0766  0.0102 -0.1520
  608loPI    C1 9713   8.862   5.098  11.482  0.4665 -0.0485  0.2156
  608loPI    C2 9714   8.864   5.408  11.735  0.1725  0.0096  0.1507
  608loPI    C3 9715   8.699   5.060  11.845 -0.0069  0.0525  0.0210
  608loPI   PO4 9716   8.828   5.218  11.286 -0.0065 -0.0402 -0.1595
  608loPI   GL1 9717   8.997   5.190  10.926  0.2207  0.2191 -0.0001
  608loPI   GL2 9718   8.686   4.950  10.871 -0.2958 -0.0033  0.1305
  608loPI   C1A 9719   8.935   5.226  10.504  0.0428 -0.0921  0.1240
  608loPI   C2A 9720   8.901   5.153  10.034  0.0146 -0.0570  0.1113
  608loPI   C3A 9721   8.857   5.228   9.543 -0.1219 -0.1937  0.1435
  608loPI   C4A 9722   8.888   5.243   9.212 -0.1133  0.1420  0.0959
  608loPI   C5A 9723   8.923   5.175   8.758 -0.2519  0.1594  0.0406
  608loPI   C6A 9724   8.936   5.105   8.390 -0.2668 -0.0605 -0.0437
  608loPI   C1B 9725   8.662   4.789  10.415  0.4004  0.0884 -0.0713
  608loPI   C2B 9726   8.575   4.695   9.962  0.4279 -0.0701 -0.0542
  608loPI   C3B 9727   8.579   4.779   9.487 -0.1783  0.3875  0.0452
  608loPI   C4B 9728   8.648   4.841   9.035  0.0454 -0.1785 -0.2868
  609loPI    C1 9729   8.984  16.805  11.450 -0.0779 -0.1563  0.1200
  609loPI    C2 9730   9.117  17.163  11.568  0.2308 -0.2517  0.0722
  609loPI    C3 9731   9.144  16.849  11.814  0.0030 -0.2540  0.0967
  609loPI   PO4 9732   9.060  16.760  11.308  0.0394 -0.0401  0.1970
  609loPI   GL1 9733   8.859  16.792  10.890 -0.2095 -0.0323 -0.2698
  609loPI   GL2 9734   9.055  16.643  10.835  0.0762  0.0329 -0.2657
  609loPI   C1A 9735   8.917  17.043  10.604 -0.0703  0.0016 -0.0254
  609loPI   C2A 9736   8.969  17.112  10.158  0.1825 -0.1274  0.0095
  609loPI   C3A 9737   8.824  17.071   9.670  0.0858  0.3181 -0.3880
  609loPI   C4A 9738   8.835  17.133   9.177 -0.0106 -0.0077 -0.0700
  609loPI   C5A 9739   8.900  17.236   8.843  0.1449  0.2201  0.2217
  609loPI   C6A 9740   8.814  17.313   8.462 -0.2731 -0.3032 -0.1961
  609loPI   C1B 9741   9.225  16.631  10.351 -0.1023 -0.0387  0.1002
  609loPI   C2B 9742   9.103  16.660   9.938  0.1646  0.1047 -0.0891
  609loPI   C3B 9743   9.067  16.625   9.514 -0.0483  0.0061 -0.1414
  609loPI   C4B 9744   9.029  16.653   9.102 -0.0798 -0.2718 -0.1357
  610loPI    C1 9745   9.787  13.134  11.672  0.0050  0.0741  0.2310
  610loPI    C2 9746  10.028  12.901  11.889 -0.1090 -0.3001 -0.0331
  610loPI    C3 9747   9.658  12.979  12.018 -0.0173 -0.1298  0.1330
  610loPI   PO4 9748   9.814  13.049  11.408 -0.2464 -0.0411 -0.4325
  610loPI   GL1 9749  10.003  13.238  11.061 -0.1648  0.2654 -0.1824
  610loPI   GL2 9750   9.780  12.987  10.891  0.0062 -0.2286 -0.3680
  610loPI   C1A 9751  10.150  13.261  10.611  0.2265 -0.2711 -0.0480
  610loPI   C2A 9752  10.033  13.245  10.149  0.0309 -0.1119  0.0289
  610loPI   C3A 9753   9.980  13.219   9.701  0.0929 -0.2530 -0.2856
  610loPI   C4A 9754  10.023  13.347   9.214 -0.0900 -0.1673 -0.0671
  610loPI   C5A 9755   9.853  13.419   8.739 -0.0173  0.0345 -0.1728
  610loPI   C6A 9756  10.032  13.604   8.411 -0.2227  0.4184  0.3074
  610loPI   C1B 9757   9.751  12.823  10.539 -0.0880  0.0663 -0.0269
  610loPI   C2B 9758   9.682  12.829  10.084 -0.5369 -0.3904 -0.1997
  610loPI   C3B 9759   9.646  12.864   9.607  0.0381 -0.1446 -0.0694
  610loPI   C4B 9760   9.763  12.974   9.251 -0.0402 -0.1319 -0.0703
  611loPI    C1 9761  12.093   5.634  11.646  0.1784 -0.0026  0.1098
  611loPI    C2 9762  11.774   5.776  11.842  0.1209 -0.1977  0.1599
  611loPI    C3 9763  12.143   5.863  11.970  0.0865 -0.0961  0.1908
  611loPI   PO4 9764  11.985   5.714  11.395  0.2157 -0.0616 -0.1948
  611loPI   GL1 9765  11.917   5.768  10.942  0.0735  0.0471 -0.0361
  611loPI   GL2 9766  11.542   5.913  10.838  0.0016 -0.0179  0.1951
  611loPI   C1A 9767  12.095   5.750  10.461  0.0867 -0.0994  0.0005
  611loPI   C2A 9768  12.064   5.826   9.988  0.0083  0.2622 -0.2299
  611loPI   C3A 9769  12.078   5.652   9.513  0.0473  0.1798 -0.3249
  611loPI   C4A 9770  12.175   5.754   9.109 -0.1542 -0.0525 -0.1388
  611loPI   C5A 9771  12.161   5.792   8.661  0.3222  0.1862 -0.0317
  611loPI   C6A 9772  12.087   5.863   8.197  0.1703 -0.1400  0.0989
  611loPI   C1B 9773  11.617   5.826  10.373 -0.1144 -0.1701 -0.1400
  611loPI   C2B 9774  11.596   5.909  10.034  0.1126  0.2655  0.1593
  611loPI   C3B 9775  11.528   5.858   9.668 -0.1216 -0.0500  0.1348
  611loPI   C4B 9776  11.643   5.841   9.234 -0.0573  0.0731  0.1899
  612loPI    C1 9777  16.861   8.505  11.670  0.2479 -0.0225  0.0856
  612loPI    C2 9778  16.803   8.736  11.991  0.1282 -0.0801  0.1059
  612loPI    C3 9779  16.709   8.347  12.004 -0.2321 -0.0051 -0.1160
  612loPI   PO4 9780  16.725   8.683  11.498 -0.0781  0.1146 -0.1030
  612loPI   GL1 9781  16.664   8.461  11.186 -0.2493  0.0300  0.1060
  612loPI   GL2 9782  16.561   8.712  11.019 -0.0338  0.0370 -0.0521
  612loPI   C1A 9783  16.664   8.240  10.771 -0.1762  0.1015 -0.2095
  612loPI   C2A 9784  16.751   8.304  10.402  0.3324 -0.0499 -0.2328
  612loPI   C3A 9785  16.780   8.352   9.928  0.1856  0.2635 -0.1052
  612loPI   C4A 9786  16.820   8.371   9.515  0.0634  0.0186  0.2217
  612loPI   C5A 9787  16.885   8.350   9.068 -0.1836 -0.0631  0.3027
  612loPI   C6A 9788  17.021   8.403   8.645 -0.2753  0.2091  0.2787
  612loPI   C1B 9789  16.557   8.722  10.558  0.1927  0.0099 -0.1031
  612loPI   C2B 9790  16.534   8.737  10.056  0.1701 -0.1742  0.3358
  612loPI   C3B 9791  16.715   8.856   9.667 -0.0372 -0.0640 -0.1448
  612loPI   C4B 9792  16.610   8.869   9.262 -0.2952  0.4658  0.2676
  613loPI    C1 9793   2.327  11.700  11.719  0.2034 -0.1066  0.0727
  613loPI    C2 9794   2.671  11.847  11.860  0.1380  0.0970  0.0234
  613loPI    C3 9795   2.328  11.922  12.052  0.0885  0.1134 -0.0711
  613loPI   PO4 9796   2.390  11.713  11.440  0.1417 -0.2143 -0.0864
  613loPI   GL1 9797   2.204  11.777  11.058 -0.0392  0.3842 -0.3828
  613loPI   GL2 9798   2.204  12.095  10.947  0.1320  0.1155  0.1267
  613loPI   C1A 9799   1.971  11.596  10.770  0.3298 -0.1977 -0.3868
  613loPI   C2A 9800   1.984  11.572  10.390 -0.1362 -0.0401  0.0714
  613loPI   C3A 9801   2.065  11.506  10.020 -0.0105 -0.3491  0.0256
  613loPI   C4A 9802   2.050  11.580   9.562  0.1529  0.0045 -0.1325
  613loPI   C5A 9803   2.089  11.502   9.077  0.1457  0.1233  0.1374
  613loPI   C6A 9804   1.935  11.492   8.804 -0.1442  0.1227  0.1656
  613loPI   C1B 9805   2.333  11.982  10.553  0.2386 -0.0924  0.1470
  613loPI   C2B 9806   2.351  11.974  10.159 -0.1430 -0.2666 -0.2161
  613loPI   C3B 9807   2.311  11.981   9.752  0.0462  0.1784 -0.3436
  613loPI   C4B 9808   2.303  11.921   9.282 -0.1560 -0.0710 -0.0960
  614loPI    C1 9809  13.559  17.679  11.541 -0.1121 -0.0660  0.0292
  614loPI    C2 9810  13.362  17.590  11.877 -0.0595 -0.0370  0.0678
  614loPI    C3 9811  13.750  17.684  11.892 -0.0700  0.0173  0.0054
  614loPI   PO4 9812  13.363  17.857  11.358  0.2010  0.2549 -0.0807
  614loPI   GL1 9813  13.192  17.835  10.901 -0.0052  0.1264  0.0145
  614loPI   GL2 9814  13.137  17.469  10.907  0.1442 -0.2665  0.0042
  614loPI   C1A 9815  13.447  17.928  10.496 -0.0821 -0.2121 -0.3121
  614loPI   C2A 9816  13.241  17.956  10.117  0.0412  0.2600 -0.2348
  614loPI   C3A 9817  12.947  17.932   9.778 -0.0530 -0.1982  0.2064
  614loPI   C4A 9818  12.810  17.815   9.373 -0.3546 -0.2892 -0.2214
  614loPI   C5A 9819  12.974  17.781   9.022  0.0272  0.1694 -0.0168
  614loPI   C6A 9820  13.353  17.488   8.777  0.2966  0.2177  0.0030
  614loPI   C1B 9821  13.144  17.505  10.411 -0.2200 -0.0137 -0.0797
  614loPI   C2B 9822  12.976  17.416   9.990 -0.1273 -0.1118  0.0971
  614loPI   C3B 9823  12.986  17.403   9.603  0.3156 -0.0055 -0.1417
  614loPI   C4B 9824  13.022  17.301   9.210  0.0782  0.0662  0.0538
  615loPI    C1 9825  10.439   2.326  11.641  0.0404  0.2594  0.1306
  615loPI    C2 9826  10.424   2.571  11.957 -0.2291  0.1949  0.1704
  615loPI    C3 9827  10.216   2.230  11.959  0.0826 -0.0000  0.0842
  615loPI   PO4 9828  10.611   2.411  11.439 -0.0845 -0.0212 -0.0616
  615loPI   GL1 9829  10.677   2.457  10.978  0.0765  0.0498 -0.0678
  615loPI   GL2 9830  10.879   2.279  10.970 -0.2304  0.0984 -0.1104
  615loPI   C1A 9831  10.565   2.278  10.574  0.0577 -0.3716  0.1359
  615loPI   C2A 9832  10.622   2.429  10.218 -0.3163  0.3826 -0.0236
  615loPI   C3A 9833  10.646   2.349   9.831 -0.3973  0.1888  0.0623
  615loPI   C4A 9834  10.521   2.313   9.399  0.1222  0.0240 -0.1139
  615loPI   C5A 9835  10.499   2.234   9.005 -0.1477  0.1551 -0.1212
  615loPI   C6A 9836  10.344   2.142   8.649  0.0725 -0.0180  0.1500
  615loPI   C1B 9837  11.100   2.241  10.568 -0.0603  0.4155  0.1149
  615loPI   C2B 9838  11.080   2.280  10.044  0.0827  0.0848  0.0194
  615loPI   C3B 9839  11.141   2.278   9.543  0.3076 -0.1249  0.2002
  615loPI   C4B 9840  11.072   2.148   9.093 -0.2129 -0.0969 -0.3037
  616loPI    C1 9841   0.399   9.175  11.860 -0.0372  0.1005  0.3526
  616loPI    C2 9842   0.674   9.445  11.968  0.1675  0.0924 -0.1224
  616loPI    C3 9843   0.787   9.076  11.863 -0.0549  0.0015 -0.0474
  616loPI   PO4 9844   0.351   9.258  11.607  0.0670  0.0509  0.2354
  616loPI   GL1 9845   0.354   9.366  11.170  0.0907 -0.0164 -0.1171
  616loPI   GL2 9846   0.340   9.694  11.097 -0.1358 -0.1432  0.3732
  616loPI   C1A 9847   0.663   8.989  10.877  0.2180 -0.1199  0.1685
  616loPI   C2A 9848   0.704   9.048  10.377 -0.1800  0.0033 -0.0804
  616loPI   C3A 9849   0.658   9.053   9.954  0.0283 -0.0627  0.0923
  616loPI   C4A 9850   0.710   8.955   9.571 -0.0261  0.1706  0.1621
  616loPI   C5A 9851   0.695   9.102   9.195 -0.2046 -0.0558 -0.1255
  616loPI   C6A 9852   0.607   9.274   8.883  0.0225  0.1459 -0.0620
  616loPI   C1B 9853   0.429   9.563  10.671  0.0567 -0.2328  0.1279
  616loPI   C2B 9854   0.409   9.494  10.188 -0.1559 -0.4410 -0.1442
  616loPI   C3B 9855   0.467   9.505   9.731 -0.1075  0.2734 -0.0391
  616loPI   C4B 9856   0.509   9.559   9.296  0.3208  0.2619  0.0160
  617loPI    C1 9857  10.906   9.626  11.396 -0.0003 -0.1152  0.0583
  617loPI    C2 9858  11.236   9.726  11.599 -0.0748  0.0506  0.0996
  617loPI    C3 9859  10.914   9.591  11.794 -0.1990  0.3541  0.1100
  617loPI   PO4 9860  10.946   9.688  11.188 -0.0087  0.0476 -0.0584
  617loPI   GL1 9861  11.138   9.913  10.901  0.0776 -0.0649 -0.0355
  617loPI   GL2 9862  11.358   9.879  10.721  0.1550  0.3886  0.1629
  617loPI   C1A 9863  10.863   9.961  10.604  0.1550 -0.0144  0.1732
  617loPI   C2A 9864  10.822   9.964  10.172  0.1569  0.0514 -0.2362
  617loPI   C3A 9865  10.930   9.927   9.708  0.1392  0.1824 -0.1840
  617loPI   C4A 9866  10.853   9.929   9.230  0.1988  0.0874  0.0794
  617loPI   C5A 9867  10.792  10.022   8.797  0.1959  0.0372 -0.0489
  617loPI   C6A 9868  10.930  10.215   8.423  0.2386  0.3054 -0.2368
  617loPI   C1B 9869  11.344   9.857  10.296 -0.0768 -0.0533 -0.1057
  617loPI   C2B 9870  11.349   9.919   9.890 -0.2549  0.1919 -0.2415
  617loPI   C3B 9871  11.376   9.905   9.441 -0.0373  0.1390  0.1388
  617loPI   C4B 9872  11.496   9.912   9.005 -0.0309  0.1854 -0.2009
  618loPI    C1 9873   3.714  16.064  11.700  0.2083 -0.1396 -0.0849
  618loPI    C2 9874   3.329  16.159  11.752  0.2618  0.1056 -0.1232
  618loPI    C3 9875   3.483  15.840  11.937  0.1169  0.1867  0.1423
  618loPI   PO4 9876   3.776  16.079  11.395  0.2842 -0.0532 -0.2733
  618loPI   GL1 9877   3.820  16.191  10.950 -0.0785 -0.2553 -0.2061
  618loPI   GL2 9878   3.541  16.399  10.808 -0.0195 -0.4628 -0.2683
  618loPI   C1A 9879   3.974  16.316  10.475  0.1143  0.2862  0.2105
  618loPI   C2A 9880   3.864  16.261  10.054  0.1117 -0.1346  0.4809
  618loPI   C3A 9881   3.881  16.290   9.623  0.0659 -0.0132 -0.2041
  618loPI   C4A 9882   3.990  16.399   9.220  0.1407  0.2794 -0.2934
  618loPI   C5A 9883   3.837  16.286   8.863  0.0489 -0.0372  0.1608
  618loPI   C6A 9884   3.864  16.147   8.433  0.1474 -0.1786 -0.0456
  618loPI   C1B 9885   3.432  16.307  10.493 -0.0192 -0.0321 -0.1010
  618loPI   C2B 9886   3.430  16.483  10.055  0.1408 -0.1704  0.2820
  618loPI   C3B 9887   3.369  16.433   9.613 -0.0094 -0.0802 -0.0433
  618loPI   C4B 9888   3.489  16.568   9.237 -0.0899  0.1860 -0.0140
  619loPI    C1 9889  13.746   1.964  11.387 -0.2650 -0.0424  0.0002
  619loPI    C2 9890  13.794   1.969  11.784 -0.0667 -0.0805 -0.0218
  619loPI    C3 9891  13.667   1.636  11.602 -0.1458 -0.0668  0.0080
  619loPI   PO4 9892  13.878   2.148  11.252  0.0848  0.2372  0.1047
  619loPI   GL1 9893  14.088   2.091  10.923  0.1722 -0.0924 -0.1000
  619loPI   GL2 9894  14.288   1.875  10.921 -0.2115 -0.0265  0.0403
  619loPI   C1A 9895  14.055   2.345  10.570 -0.4126 -0.1484  0.3140
  619loPI   C2A 9896  13.924   2.326  10.222 -0.2293  0.0705  0.2235
  619loPI   C3A 9897  13.856   2.314   9.804  0.1622 -0.0379  0.4535
  619loPI   C4A 9898  13.888   2.267   9.347 -0.2330  0.1433 -0.5970
  619loPI   C5A 9899  13.953   2.207   8.977 -0.2566 -0.2315 -0.0649
  619loPI   C6A 9900  14.029   2.434   8.522  0.2482 -0.4791 -0.1089
  619loPI   C1B 9901  14.188   1.888  10.481  0.2558  0.0403  0.0334
  619loPI   C2B 9902  14.002   1.881  10.062 -0.0543  0.1263  0.0810
  619loPI   C3B 9903  14.081   1.881   9.641  0.2888  0.1283 -0.2186
  619loPI   C4B 9904  14.022   1.701   9.206 -0.0487  0.2707 -0.0842
  620loPI    C1 9905   1.622   6.018  11.782  0.0280  0.0160  0.1099
  620loPI    C2 9906   1.454   6.305  12.004  0.0691  0.1804 -0.0686
  620loPI    C3 9907   1.834   6.199  12.069  0.0780  0.2214 -0.0540
  620loPI   PO4 9908   1.598   6.077  11.482  0.1249 -0.1309  0.0385
  620loPI   GL1 9909   1.398   6.141  11.090 -0.1780  0.0420  0.1637
  620loPI   GL2 9910   1.769   6.121  10.951 -0.1751  0.0043 -0.1234
  620loPI   C1A 9911   1.369   6.267  10.662 -0.1111 -0.1457  0.3163
  620loPI   C2A 9912   1.332   6.285  10.244 -0.2631 -0.0562  0.4477
  620loPI   C3A 9913   1.226   6.325   9.844 -0.1606 -0.0251 -0.1628
  620loPI   C4A 9914   1.255   6.340   9.448 -0.1038 -0.0735 -0.0434
  620loPI   C5A 9915   1.203   6.371   8.968 -0.3125  0.1903 -0.5022
  620loPI   C6A 9916   1.217   6.727   8.653  0.3814  0.0952  0.1644
  620loPI   C1B 9917   1.913   6.155  10.547  0.5819 -0.2041  0.2830
  620loPI   C2B 9918   1.798   6.171  10.022  0.1085  0.0593 -0.0234
  620loPI   C3B 9919   1.783   6.172   9.583 -0.2610  0.1036  0.1374
  620loPI   C4B 9920   1.760   6.209   9.196  0.1675  0.1130  0.1855
  621loPI    C1 9921  14.713   4.624  11.505 -0.0913 -0.0199 -0.1039
  621loPI    C2 9922  14.856   4.399  11.803 -0.1659  0.0025 -0.0508
  621loPI    C3 9923  14.790   4.790  11.861  0.0294  0.0537 -0.1637
  621loPI   PO4 9924  14.601   4.496  11.300  0.1420 -0.1389 -0.0398
  621loPI   GL1 9925  14.554   4.492  10.854 -0.2279 -0.0215  0.2296
  621loPI   GL2 9926  14.208   4.587  10.907 -0.2377  0.2981 -0.0663
  621loPI   C1A 9927  14.447   4.502  10.394  0.2859  0.1035  0.0378
  621loPI   C2A 9928  14.415   4.436   9.939 -0.1111 -0.0124 -0.0970
  621loPI   C3A 9929  14.492   4.381   9.516 -0.0036  0.1559  0.2976
  621loPI   C4A 9930  14.500   4.411   9.071 -0.2898  0.0927  0.0479
  621loPI   C5A 9931  14.639   4.452   8.630 -0.0274  0.2005  0.2026
  621loPI   C6A 9932  14.982   4.293   8.377 -0.1006  0.0251 -0.1653
  621loPI   C1B 9933  13.950   4.589  10.551  0.1330 -0.0302  0.3325
  621loPI   C2B 9934  13.927   4.633  10.107  0.1804  0.0342  0.1373
  621loPI   C3B 9935  13.869   4.520   9.605 -0.1481 -0.0778 -0.2095
  621loPI   C4B 9936  14.056   4.493   9.262 -0.2226  0.0796  0.0711
  622loPI    C1 9937   3.250   7.861  11.576  0.2557 -0.1716 -0.2817
  622loPI    C2 9938   3.102   7.682  11.901 -0.1880  0.4010 -0.1507
  622loPI    C3 9939   3.432   7.906  11.929  0.1198 -0.0304 -0.2281
  622loPI   PO4 9940   3.234   7.684  11.382 -0.0504  0.2135 -0.1403
  622loPI   GL1 9941   3.170   7.633  10.977 -0.0852 -0.1605  0.0224
  622loPI   GL2 9942   3.278   7.338  10.865  0.1025  0.2450 -0.1018
  622loPI   C1A 9943   3.154   7.776  10.498 -0.0583 -0.1411 -0.3816
  622loPI   C2A 9944   3.084   7.800  10.020  0.3398  0.1240  0.2618
  622loPI   C3A 9945   3.180   7.825   9.583  0.2688 -0.1313  0.1391
  622loPI   C4A 9946   3.236   7.844   9.159 -0.1405  0.0955 -0.0939
  622loPI   C5A 9947   3.155   7.689   8.685 -0.0792 -0.4855  0.0499
  622loPI   C6A 9948   2.903   7.601   8.399 -0.1465  0.0303  0.3933
  622loPI   C1B 9949   3.339   7.314  10.455  0.2975 -0.1178 -0.0192
  622loPI   C2B 9950   3.243   7.234   9.982 -0.3098  0.0868  0.0725
  622loPI   C3B 9951   3.264   7.281   9.592 -0.0830 -0.1538 -0.1418
  622loPI   C4B 9952   3.354   7.398   9.126  0.1545  0.2128 -0.2727
  623loPI    C1 9953  17.278  16.170  11.873 -0.1924  0.2148 -0.1390
  623loPI    C2 9954  17.446  16.527  11.938 -0.3105  0.2674 -0.1196
  623loPI    C3 9955  17.313  16.310  12.246  0.1457  0.0150 -0.0915
  623loPI   PO4 9956  17.189  16.229  11.607  0.3265  0.1601 -0.0019
  623loPI   GL1 9957  16.981  16.491  11.236 -0.2697 -0.1213  0.0634
  623loPI   GL2 9958  17.277  16.411  11.148  0.0632  0.1764  0.1240
  623loPI   C1A 9959  16.845  16.541  10.784 -0.0505  0.3402 -0.2459
  623loPI   C2A 9960  16.829  16.592  10.292  0.0472  0.1124  0.1135
  623loPI   C3A 9961  16.810  16.540   9.841 -0.1804 -0.2819 -0.1724
  623loPI   C4A 9962  16.748  16.622   9.424 -0.0961 -0.1431 -0.1958
  623loPI   C5A 9963  16.750  16.490   8.938  0.0073 -0.2870  0.1625
  623loPI   C6A 9964  16.975  16.592   8.548  0.1210  0.0387 -0.1831
  623loPI   C1B 9965  17.320  16.558  10.775 -0.2398 -0.2492 -0.1498
  623loPI   C2B 9966  17.343  16.571  10.398 -0.0656 -0.1282 -0.0669
  623loPI   C3B 9967  17.327  16.421   9.936  0.1679 -0.0281 -0.0114
  623loPI   C4B 9968  17.258  16.523   9.563  0.2165 -0.0930  0.0609
  624loPI    C1 9969   3.623  11.982  11.819 -0.1380  0.0666  0.0014
  624loPI    C2 9970   3.730  12.301  12.035 -0.1883  0.0811  0.0052
  624loPI    C3 9971   3.629  11.960  12.219  0.1092 -0.0154 -0.0055
  624loPI   PO4 9972   3.314  12.109  11.606  0.2332 -0.3058 -0.0454
  624loPI   GL1 9973   3.193  12.040  11.177 -0.2871  0.0681 -0.0008
  624loPI   GL2 9974   3.240  11.829  10.980 -0.0557  0.2362 -0.0468
  624loPI   C1A 9975   3.063  12.241  10.782  0.2038  0.0424 -0.0698
  624loPI   C2A 9976   3.142  12.275  10.360 -0.0983 -0.2443  0.1017
  624loPI   C3A 9977   3.145  12.283   9.907 -0.1695 -0.0320 -0.0100
  624loPI   C4A 9978   3.105  12.300   9.504  0.0068  0.1789  0.4100
  624loPI   C5A 9979   3.283  12.260   9.152 -0.1543  0.0037 -0.2772
  624loPI   C6A 9980   3.349  12.017   8.851  0.1358 -0.0440 -0.5152
  624loPI   C1B 9981   3.311  11.833  10.589 -0.0523 -0.2798  0.1671
  624loPI   C2B 9982   3.438  11.796  10.199 -0.1772  0.1323  0.0475
  624loPI   C3B 9983   3.416  11.855   9.833  0.1108  0.0006 -0.2913
  624loPI   C4B 9984   3.367  11.875   9.397  0.0590 -0.0849  0.0702
  625loPI    C1 9985   4.190   1.449  11.735  0.0480 -0.1660  0.0419
  625loPI    C2 9986   4.111   1.795  11.919  0.3580 -0.0714  0.0012
  625loPI    C3 9987   3.993   1.451  12.083 -0.1850  0.0634 -0.0870
  625loPI   PO4 9988   4.305   1.509  11.505 -0.0712  0.0749 -0.1935
  625loPI   GL1 9989   4.181   1.579  11.121  0.3002  0.0751  0.0061
  625loPI   GL2 9990   4.489   1.772  11.043 -0.1535  0.0320 -0.0420
  625loPI   C1A 9991   4.070   1.570  10.658 -0.1742 -0.2628  0.0958
  625loPI   C2A 9992   4.065   1.734  10.216 -0.0988  0.2368  0.0260
  625loPI   C3A 9993   4.190   1.796   9.903 -0.1362  0.0315  0.1091
  625loPI   C4A 9994   4.097   1.798   9.437  0.0004  0.1589 -0.0079
  625loPI   C5A 9995   3.893   1.688   9.090 -0.3632  0.2815 -0.1348
  625loPI   C6A 9996   3.579   1.763   8.722  0.1494 -0.0759  0.1545
  625loPI   C1B 9997   4.598   1.615  10.616  0.0806  0.0860 -0.0017
  625loPI   C2B 9998   4.614   1.603  10.137 -0.0371  0.0433  0.1688
  625loPI   C3B 9999   4.653   1.672   9.632  0.1132  0.1201  0.1752
  625loPI   C4B10000   4.556   1.702   9.208 -0.3253 -0.1622  0.2139
  626loPI    C110001   0.622  15.585  11.635 -0.0079  0.0747  0.0739
  626loPI    C210002   0.671  15.237  11.827  0.1015  0.0108 -0.0682
  626loPI    C310003   0.744  15.581  12.016  0.2884 -0.0547 -0.0192
  626loPI   PO410004   0.736  15.569  11.448  0.0756  0.1843  0.0092
  626loPI   GL110005   0.967  15.492  11.071  0.2291 -0.2021  0.1383
  626loPI   GL210006   0.726  15.798  10.988  0.0657  0.2023  0.2088
  626loPI   C1A10007   0.873  15.350  10.705 -0.1794  0.1615  0.5248
  626loPI   C2A10008   0.995  15.349  10.367  0.2147 -0.0000  0.3697
  626loPI   C3A10009   0.928  15.384   9.966 -0.1401 -0.2736  0.0428
  626loPI   C4A10010   0.998  15.350   9.457 -0.0558 -0.0123 -0.0404
  626loPI   C5A10011   0.962  15.376   8.983  0.2075 -0.0569  0.1556
  626loPI   C6A10012   1.262  15.253   8.655  0.0869  0.2315  0.0975
  626loPI   C1B10013   0.769  15.821  10.481  0.1489  0.1544 -0.0199
  626loPI   C2B10014   0.756  15.854  10.089 -0.0550  0.1175 -0.1700
  626loPI   C3B10015   0.744  15.809   9.659  0.1463 -0.2357  0.2128
  626loPI   C4B10016   0.736  15.844   9.171  0.2186  0.0763 -0.1282
  627loPI    C110017  16.527  14.275  11.644  0.0952  0.0480  0.2275
  627loPI    C210018  16.551  14.603  11.416 -0.1037 -0.0857  0.0096
  627loPI    C310019  16.551  14.636  11.815 -0.1939  0.1844 -0.0106
  627loPI   PO410020  16.697  14.049  11.523  0.1768  0.0663 -0.3074
  627loPI   GL110021  16.885  13.970  11.140 -0.2055 -0.1905 -0.1863
  627loPI   GL210022  16.803  14.302  11.086 -0.2047  0.0500 -0.0880
  627loPI   C1A10023  16.974  13.942  10.771 -0.4596  0.0117 -0.2136
  627loPI   C2A10024  16.916  13.855  10.398  0.2031 -0.1357  0.0325
  627loPI   C3A10025  17.064  13.740  10.046 -0.0187 -0.0746  0.1119
  627loPI   C4A10026  17.039  13.703   9.604 -0.1899 -0.2518 -0.1480
  627loPI   C5A10027  17.027  13.715   9.125  0.0159  0.2505 -0.1895
  627loPI   C6A10028  17.129  13.861   8.676 -0.2984 -0.3806 -0.3141
  627loPI   C1B10029  16.756  14.382  10.621  0.2353  0.0136  0.0583
  627loPI   C2B10030  16.817  14.329  10.167 -0.0009  0.0528 -0.1067
  627loPI   C3B10031  16.769  14.251   9.750 -0.1318 -0.1493 -0.2839
  627loPI   C4B10032  16.886  14.196   9.328 -0.0436 -0.1258 -0.1136
  628loPI    C110033   7.397  12.971  11.783 -0.2931 -0.0818 -0.1816
  628loPI    C210034   7.136  12.914  12.082 -0.1032  0.2934  0.0643
  628loPI    C310035   7.517  12.796  12.122 -0.1408  0.0928 -0.1436
  628loPI   PO410036   7.221  12.904  11.565 -0.4744 -0.1952 -0.2674
  628loPI   GL110037   7.161  12.990  11.157  0.1297 -0.2762 -0.0610
  628loPI   GL210038   7.326  12.777  11.039  0.0922  0.4594 -0.1018
  628loPI   C1A10039   7.178  13.173  10.750  0.0009  0.4427  0.2060
  628loPI   C2A10040   7.200  13.139  10.293  0.1969  0.2518  0.0989
  628loPI   C3A10041   7.093  13.169   9.932  0.1755  0.3092 -0.3025
  628loPI   C4A10042   7.164  13.120   9.511 -0.1127  0.0291  0.1702
  628loPI   C5A10043   7.065  13.076   9.105 -0.0290  0.1237 -0.1162
  628loPI   C6A10044   7.271  12.694   8.830 -0.3847  0.1286  0.1598
  628loPI   C1B10045   7.412  12.691  10.590  0.3303  0.0786 -0.1325
  628loPI   C2B10046   7.313  12.619  10.183  0.1004 -0.1470  0.2672
  628loPI   C3B10047   7.364  12.623   9.799  0.1615  0.0269 -0.0269
  628loPI   C4B10048   7.332  12.619   9.307  0.1507  0.1448 -0.1276
  629loPI    C110049   3.630  12.989  11.651 -0.1059  0.2437 -0.0429
  629loPI    C210050   3.406  12.696  11.806 -0.0454  0.0966 -0.2310
  629loPI    C310051   3.707  12.851  12.018  0.0992 -0.1711 -0.2360
  629loPI   PO410052   3.736  12.867  11.390 -0.0305 -0.1560  0.0317
  629loPI   GL110053   3.622  12.807  11.007  0.1204 -0.0158  0.1521
  629loPI   GL210054   3.578  13.121  10.948  0.1810  0.1586 -0.1194
  629loPI   C1A10055   3.432  12.719  10.680 -0.2889  0.1086 -0.2513
  629loPI   C2A10056   3.433  12.730  10.218 -0.3426 -0.2547  0.2906
  629loPI   C3A10057   3.458  12.703   9.811 -0.0762  0.0431 -0.1448
  629loPI   C4A10058   3.454  12.711   9.432 -0.1552  0.0634  0.0423
  629loPI   C5A10059   3.481  12.714   9.031  0.0533  0.4124 -0.1591
  629loPI   C6A10060   3.207  12.835   8.602 -0.3564  0.1580  0.0115
  629loPI   C1B10061   3.719  13.081  10.603  0.2741  0.1524 -0.2421
  629loPI   C2B10062   3.748  13.187  10.187  0.1772 -0.0759 -0.1717
  629loPI   C3B10063   3.768  13.129   9.698 -0.2798 -0.0043 -0.1522
  629loPI   C4B10064   3.765  13.204   9.218  0.0788  0.2081 -0.3933
  630loPI    C110065   7.653   5.622  11.443  0.1093  0.0565 -0.1164
  630loPI    C210066   7.463   5.840  11.720  0.1280 -0.1914  0.0953
  630loPI    C310067   7.518   5.448  11.777  0.1153 -0.2497 -0.2704
  630loPI   PO410068   7.608   5.600  11.201  0.0571  0.0784  0.1274
  630loPI   GL110069   7.483   5.367  10.853 -0.0779  0.1023 -0.1010
  630loPI   GL210070   7.272   5.082  10.838 -0.3154  0.1763  0.2275
  630loPI   C1A10071   7.606   5.717  10.557 -0.0235 -0.3090  0.1961
  630loPI   C2A10072   7.714   5.778  10.145  0.0281 -0.0028 -0.0562
  630loPI   C3A10073   7.745   5.794   9.709 -0.0435 -0.0952  0.0275
  630loPI   C4A10074   7.762   5.804   9.302  0.0592 -0.0714  0.0761
  630loPI   C5A10075   7.745   5.806   8.817 -0.0306 -0.1490 -0.0896
  630loPI   C6A10076   7.747   5.484   8.560  0.0454 -0.2421  0.1081
  630loPI   C1B10077   7.346   5.320  10.386  0.0779  0.2377 -0.0282
  630loPI   C2B10078   7.441   5.437   9.907  0.2427  0.1382 -0.1404
  630loPI   C3B10079   7.389   5.454   9.541 -0.0028 -0.1358 -0.0450
  630loPI   C4B10080   7.421   5.460   9.094 -0.1087  0.1400 -0.0183
  631loPI    C110081   8.976  13.413  11.509 -0.0263  0.0841  0.0662
  631loPI    C210082   9.365  13.404  11.601  0.0315  0.2084 -0.1594
  631loPI    C310083   9.092  13.431  11.892  0.1869  0.0380  0.0052
  631loPI   PO410084   8.949  13.251  11.379 -0.1065  0.3597 -0.2027
  631loPI   GL110085   8.827  13.158  10.991 -0.1326  0.0500 -0.0497
  631loPI   GL210086   8.944  13.436  10.911  0.0945 -0.1123 -0.3121
  631loPI   C1A10087   8.745  13.043  10.555  0.0721  0.0639  0.1421
  631loPI   C2A10088   8.676  13.027  10.185  0.0780 -0.2751  0.0811
  631loPI   C3A10089   8.628  12.931   9.865 -0.1469 -0.1207 -0.0748
  631loPI   C4A10090   8.625  12.875   9.411  0.0073 -0.4467 -0.2946
  631loPI   C5A10091   8.691  12.774   8.934 -0.0135  0.1700 -0.0065
  631loPI   C6A10092   8.953  12.579   8.769 -0.1163  0.3235 -0.0611
  631loPI   C1B10093   9.076  13.395  10.542  0.1044  0.2439  0.0768
  631loPI   C2B10094   8.969  13.383  10.056 -0.0023  0.0592 -0.2083
  631loPI   C3B10095   8.951  13.323   9.630  0.0457  0.1408  0.2005
  631loPI   C4B10096   8.921  13.301   9.186  0.1829 -0.1541  0.1345
  632loPI    C110097   0.353   1.937  11.967 -0.1550 -0.0339  0.0433
  632loPI    C210098   0.080   2.143  11.759 -0.0359  0.0601 -0.0211
  632loPI    C310099   0.100   2.182  12.157 -0.2061 -0.0527 -0.0003
  632loPI   PO410100   0.555   1.889  11.735 -0.2247 -0.1851 -0.3733
  632loPI   GL110101   0.537   1.778  11.247 -0.2575  0.3098  0.1514
  632loPI   GL210102   0.226   1.796  10.873 -0.4342  0.0707  0.0208
  632loPI   C1A10103   0.727   1.721  10.831  0.0149  0.1520  0.1626
  632loPI   C2A10104   0.794   1.685  10.377  0.0397  0.0050  0.2844
  632loPI   C3A10105   0.809   1.780   9.957  0.1589  0.1031  0.3515
  632loPI   C4A10106   0.742   1.632   9.507  0.0341  0.1103 -0.0088
  632loPI   C5A10107   0.664   1.569   9.050 -0.0575 -0.0201  0.2213
  632loPI   C6A10108   0.303   1.395   8.862 -0.0902  0.2350  0.3406
  632loPI   C1B10109   0.237   1.837  10.414 -0.0165 -0.0008  0.3927
  632loPI   C2B10110   0.303   1.858  10.135 -0.3544  0.2492 -0.0031
  632loPI   C3B10111   0.272   1.782   9.709  0.0424 -0.0728  0.1099
  632loPI   C4B10112   0.262   1.679   9.291 -0.0041 -0.2653  0.0427
  633loPI    C110113   6.085  13.054  11.646 -0.0171 -0.0413 -0.0930
  633loPI    C210114   6.282  12.769  11.845 -0.1233 -0.0196  0.0450
  633loPI    C310115   6.050  13.028  12.044  0.1028  0.2683 -0.0593
  633loPI   PO410116   6.209  13.063  11.377  0.1172 -0.0317 -0.4167
  633loPI   GL110117   6.285  12.956  11.013 -0.0558  0.2265 -0.1632
  633loPI   GL210118   6.643  12.863  11.014 -0.1146 -0.1523  0.0520
  633loPI   C1A10119   6.389  12.836  10.570 -0.0733  0.2414  0.1087
  633loPI   C2A10120   6.273  12.936  10.109  0.0603 -0.2848  0.1208
  633loPI   C3A10121   6.350  12.819   9.680  0.4019 -0.2322 -0.3674
  633loPI   C4A10122   6.357  12.820   9.314 -0.1297  0.0431  0.3306
  633loPI   C5A10123   6.381  13.108   8.882  0.1469 -0.1099  0.0222
  633loPI   C6A10124   6.527  13.217   8.399 -0.1602  0.2744  0.0953
  633loPI   C1B10125   6.917  12.757  10.648 -0.0084 -0.1927  0.0250
  633loPI   C2B10126   6.765  12.781  10.220 -0.1347 -0.1397 -0.1653
  633loPI   C3B10127   6.829  12.792   9.772 -0.4419 -0.0449 -0.0604
  633loPI   C4B10128   6.797  12.710   9.408  0.2991  0.0187  0.2420
  634loPI    C110129  17.671   8.051  11.760  0.0850  0.3258 -0.0874
  634loPI    C210130  17.499   7.897  12.087 -0.0285  0.3587 -0.1313
  634loPI    C310131  17.894   7.862  12.034  0.0108  0.4726  0.0762
  634loPI   PO410132  17.528   7.977  11.482 -0.1641 -0.0747 -0.1543
  634loPI   GL110133  17.580   8.113  11.006 -0.0764 -0.0293 -0.0171
  634loPI   GL210134  17.292   8.248  10.800 -0.1074  0.1481 -0.0273
  634loPI   C1A10135  17.765   8.176  10.587 -0.0032 -0.0667  0.0259
  634loPI   C2A10136  17.851   8.256  10.153 -0.0558 -0.0971 -0.2988
  634loPI   C3A10137  17.744   8.154   9.676 -0.1813 -0.2001 -0.3789
  634loPI   C4A10138  17.871   8.177   9.240 -0.1047 -0.1126  0.1250
  634loPI   C5A10139  17.956   8.393   8.799 -0.1293  0.0725  0.1747
  634loPI   C6A10140  18.001   8.518   8.425  0.1018 -0.2055  0.3126
  634loPI   C1B10141  17.319   8.253  10.367  0.0771 -0.0842 -0.2316
  634loPI   C2B10142  17.352   8.299   9.995 -0.0315 -0.3187 -0.0145
  634loPI   C3B10143  17.297   8.345   9.580  0.1295  0.2368 -0.4329
  634loPI   C4B10144  17.336   8.280   9.192 -0.1471 -0.1956 -0.0288
  635loPI    C110145  17.109  15.421  11.344 -0.1477  0.2151 -0.0138
  635loPI    C210146  17.147  15.393  11.742 -0.2779  0.3260  0.0072
  635loPI    C310147  17.457  15.306  11.505 -0.3257 -0.1613  0.1127
  635loPI   PO410148  17.039  15.650  11.265  0.1266  0.2338 -0.3939
  635loPI   GL110149  17.036  15.766  10.910 -0.4755 -0.0300  0.0730
  635loPI   GL210150  17.018  16.060  10.981  0.1784  0.1502  0.1904
  635loPI   C1A10151  17.163  15.653  10.527 -0.0721 -0.1572  0.0822
  635loPI   C2A10152  17.205  15.628  10.091 -0.4266 -0.1800 -0.0470
  635loPI   C3A10153  17.193  15.582   9.689  0.0575 -0.1097 -0.1076
  635loPI   C4A10154  17.097  15.591   9.228 -0.2601 -0.2322 -0.4053
  635loPI   C5A10155  17.009  15.839   8.913 -0.1564 -0.0353 -0.0848
  635loPI   C6A10156  17.060  16.163   8.667  0.0457 -0.0025  0.0170
  635loPI   C1B10157  17.021  16.146  10.547 -0.0599  0.3467  0.0490
  635loPI   C2B10158  16.995  16.093  10.129 -0.0780  0.1602 -0.1128
  635loPI   C3B10159  16.993  16.026   9.730 -0.2018  0.1820  0.2082
  635loPI   C4B10160  16.960  16.126   9.409  0.0809  0.2850 -0.0861
  636loPI    C110161   0.928  13.659  11.704 -0.0573 -0.1645 -0.1902
  636loPI    C210162   1.267  13.582  11.903 -0.0556  0.3866  0.0363
  636loPI    C310163   0.914  13.486  12.065 -0.0297  0.2933  0.0378
  636loPI   PO410164   0.992  13.659  11.482  0.0339 -0.0857 -0.2172
  636loPI   GL110165   1.081  13.606  11.117 -0.0672 -0.1380 -0.2329
  636loPI   GL210166   1.349  13.877  11.224 -0.0807  0.3074 -0.2317
  636loPI   C1A10167   1.166  13.518  10.702 -0.1151  0.4247  0.2324
  636loPI   C2A10168   1.233  13.448  10.324  0.0362  0.1181  0.0557
  636loPI   C3A10169   1.289  13.439   9.914  0.0863  0.0969  0.0748
  636loPI   C4A10170   1.204  13.496   9.556  0.1912  0.1358 -0.3532
  636loPI   C5A10171   1.268  13.444   9.057 -0.1852 -0.2423  0.2510
  636loPI   C6A10172   1.462  13.673   8.629 -0.0792 -0.1152  0.1529
  636loPI   C1B10173   1.528  13.842  10.840 -0.0937 -0.3661 -0.0820
  636loPI   C2B10174   1.541  13.888  10.464  0.0689 -0.0356  0.1314
  636loPI   C3B10175   1.507  13.889  10.025  0.5629  0.0749  0.0574
  636loPI   C4B10176   1.602  13.906   9.615  0.1003  0.1507  0.3285
  637loPI    C110177   4.270  15.254  11.731  0.0171  0.0504 -0.3316
  637loPI    C210178   4.219  14.914  11.935  0.1099  0.2344  0.0077
  637loPI    C310179   4.191  15.265  12.123  0.4906  0.4028 -0.2364
  637loPI   PO410180   4.166  15.240  11.504  0.0536  0.1234 -0.0103
  637loPI   GL110181   4.232  15.258  11.050  0.0562 -0.0597  0.0835
  637loPI   GL210182   4.531  15.315  10.974  0.1232  0.1732  0.5613
  637loPI   C1A10183   4.190  15.231  10.566  0.1582 -0.0570 -0.3931
  637loPI   C2A10184   4.041  14.961  10.232  0.0393 -0.0931 -0.3014
  637loPI   C3A10185   3.966  14.950   9.830 -0.1275 -0.1954  0.3810
  637loPI   C4A10186   4.011  15.047   9.347  0.2154 -0.2916  0.1709
  637loPI   C5A10187   3.669  15.223   9.004  0.2455 -0.1414 -0.2674
  637loPI   C6A10188   3.330  15.145   9.081  0.1090  0.1086  0.2717
  637loPI   C1B10189   4.565  15.591  10.552  0.0308 -0.2647  0.0234
  637loPI   C2B10190   4.632  15.808  10.162 -0.0725 -0.1651 -0.1100
  637loPI   C3B10191   4.663  15.731   9.818 -0.0601  0.0381  0.0912
  637loPI   C4B10192   4.633  15.834   9.349 -0.0425 -0.0614 -0.0388
  638loPI    C110193  12.239   0.881  11.356 -0.0172 -0.1789  0.0203
  638loPI    C210194  12.630   0.814  11.301  0.0244  0.0570  0.0159
  638loPI    C310195  12.441   0.652  11.615  0.1953  0.1918  0.1904
  638loPI   PO410196  12.134   0.855  11.206 -0.2579  0.2412  0.1992
  638loPI   GL110197  12.086   1.006  10.811 -0.0195  0.5417  0.2467
  638loPI   GL210198  12.260   0.724  10.693  0.0554 -0.1668  0.1765
  638loPI   C1A10199  12.062   1.264  10.453 -0.0575  0.1745  0.1176
  638loPI   C2A10200  12.000   1.234  10.027  0.0527 -0.0235 -0.3655
  638loPI   C3A10201  12.022   1.250   9.608  0.4477 -0.0220  0.2959
  638loPI   C4A10202  11.968   1.176   9.163 -0.1685 -0.2104 -0.3117
  638loPI   C5A10203  12.004   1.261   8.801  0.0052 -0.2729  0.0493
  638loPI   C6A10204  11.959   1.383   8.402  0.1558 -0.0641 -0.1646
  638loPI   C1B10205  12.250   0.804  10.302  0.0613 -0.1416 -0.3631
  638loPI   C2B10206  12.177   0.787   9.877  0.0010  0.0133 -0.2645
  638loPI   C3B10207  12.182   0.692   9.448  0.0024  0.1683 -0.2334
  638loPI   C4B10208  12.147   0.484   9.036 -0.2660 -0.1307 -0.1197
  639loPI    C110209  13.239   5.041  11.727 -0.0676  0.1988  0.1641
  639loPI    C210210  13.626   5.042  11.828 -0.0784  0.0190  0.2108
  639loPI    C310211  13.434   5.388  11.769  0.0588  0.1123  0.3034
  639loPI   PO410212  13.242   4.887  11.522 -0.0724  0.3286  0.1887
  639loPI   GL110213  13.112   4.769  11.056 -0.2083  0.3393  0.1167
  639loPI   GL210214  13.029   4.958  11.044 -0.2180  0.3174  0.2958
  639loPI   C1A10215  12.979   4.609  10.705 -0.3875 -0.0016 -0.2336
  639loPI   C2A10216  12.954   4.726  10.319  0.1728  0.2646 -0.0935
  639loPI   C3A10217  12.994   4.724   9.908 -0.1879  0.0966 -0.2470
  639loPI   C4A10218  12.987   4.712   9.520  0.1506  0.0433 -0.1162
  639loPI   C5A10219  12.967   4.727   9.083  0.1753  0.1263  0.2043
  639loPI   C6A10220  13.143   4.677   8.654 -0.2976 -0.1129 -0.0489
  639loPI   C1B10221  13.218   5.038  10.599 -0.1457  0.2039 -0.0714
  639loPI   C2B10222  13.283   5.114  10.220 -0.0717 -0.1200  0.0275
  639loPI   C3B10223  13.268   5.123   9.834 -0.1459  0.1903 -0.1922
  639loPI   C4B10224  13.240   5.152   9.354  0.0949 -0.3350 -0.1734
  640loPI    C110225   2.378  16.432  11.521 -0.0041  0.1050  0.0262
  640loPI    C210226   2.279  16.340  11.897 -0.0976  0.2353  0.0344
  640loPI    C310227   2.205  16.706  11.755  0.1134  0.2467 -0.0508
  640loPI   PO410228   2.241  16.238  11.416  0.3535  0.2371 -0.0339
  640loPI   GL110229   2.360  16.110  11.112 -0.0743  0.2434 -0.2177
  640loPI   GL210230   2.444  15.912  11.027 -0.1747  0.4842  0.1541
  640loPI   C1A10231   2.077  16.074  10.727 -0.0360 -0.0591  0.1645
  640loPI   C2A10232   2.057  16.144  10.296 -0.0504  0.1772 -0.0116
  640loPI   C3A10233   2.041  16.120   9.873 -0.2076  0.0393 -0.0852
  640loPI   C4A10234   2.100  16.159   9.409  0.0201  0.2025 -0.4195
  640loPI   C5A10235   2.183  16.206   9.032  0.1876 -0.0946  0.1667
  640loPI   C6A10236   2.515  16.140   8.707  0.0897  0.2990  0.2090
  640loPI   C1B10237   2.555  15.925  10.603  0.0057 -0.0600  0.2186
  640loPI   C2B10238   2.591  16.091  10.158 -0.1067  0.1650  0.1370
  640loPI   C3B10239   2.574  16.061   9.691  0.1485  0.3578 -0.2584
  640loPI   C4B10240   2.692  16.143   9.261  0.0389 -0.1970 -0.2472
  641loPI    C110241   0.620  -0.133  11.806  0.1050  0.1624  0.0933
  641loPI    C210242   0.824   0.199  11.897 -0.0027  0.2176  0.1349
  641loPI    C310243   0.668  -0.026  12.188  0.2618  0.0077  0.1186
  641loPI   PO410244   0.781  -0.225  11.526  0.3281 -0.0187  0.1371
  641loPI   GL110245   0.634  -0.180  11.099 -0.0152  0.0795  0.0401
  641loPI   GL210246   0.768  -0.371  11.038  0.1268  0.0976  0.0404
  641loPI   C1A10247   0.573   0.025  10.736  0.0704  0.0527  0.0828
  641loPI   C2A10248   0.523   0.016  10.300 -0.1348  0.2370 -0.1697
  641loPI   C3A10249   0.466  -0.037   9.845  0.2812 -0.1674 -0.0781
  641loPI   C4A10250   0.490  -0.121   9.438  0.1360 -0.2946 -0.0568
  641loPI   C5A10251   0.530  -0.047   8.949  0.2599  0.0135 -0.1506
  641loPI   C6A10252   0.802  -0.283   8.661  0.0337  0.0956 -0.1365
  641loPI   C1B10253   0.729  -0.448  10.647 -0.1350  0.2034 -0.0327
  641loPI   C2B10254   0.689  -0.578  10.228  0.2899  0.1018 -0.2129
  641loPI   C3B10255   0.655  -0.517   9.819 -0.1456  0.0121  0.2090
  641loPI   C4B10256   0.694  -0.590   9.406  0.1504 -0.1278 -0.0749
  642loPI    C110257  13.066  10.386  11.615  0.0885 -0.0628 -0.2363
  642loPI    C210258  13.066  10.002  11.727  0.1818 -0.0132 -0.0632
  642loPI    C310259  13.159  10.288  11.991  0.0059  0.1377 -0.1619
  642loPI   PO410260  13.059  10.339  11.308 -0.1639  0.3205 -0.0840
  642loPI   GL110261  13.186  10.221  10.908 -0.2111  0.1999 -0.1451
  642loPI   GL210262  13.407  10.523  10.711 -0.0624 -0.0912  0.1152
  642loPI   C1A10263  13.175  10.137  10.368 -0.1193  0.0823 -0.3053
  642loPI   C2A10264  13.091  10.193   9.906 -0.0859  0.1352 -0.3636
  642loPI   C3A10265  13.140  10.189   9.421 -0.2710 -0.1039 -0.1379
  642loPI   C4A10266  13.280  10.093   9.051 -0.0900 -0.0030 -0.0313
  642loPI   C5A10267  13.160  10.267   8.746 -0.4559 -0.3745 -0.1830
  642loPI   C6A10268  12.984  10.638   8.799  0.0281 -0.1805  0.1738
  642loPI   C1B10269  13.469  10.514  10.346 -0.3940  0.0142 -0.0970
  642loPI   C2B10270  13.409  10.575   9.917 -0.2441 -0.0019  0.0939
  642loPI   C3B10271  13.488  10.586   9.476 -0.0072  0.2234  0.0672
  642loPI   C4B10272  13.566  10.544   9.087  0.1931 -0.1474 -0.2995
  643loPI    C110273  15.519   6.030  11.528 -0.0157  0.0290  0.1038
  643loPI    C210274  15.494   5.662  11.683 -0.0965  0.0521  0.1466
  643loPI    C310275  15.784   5.911  11.803  0.0192 -0.0317  0.0443
  643loPI   PO410276  15.536   6.050  11.289  0.1752  0.0184  0.0412
  643loPI   GL110277  15.768   5.795  11.183 -0.5201 -0.4959  0.0814
  643loPI   GL210278  15.700   5.504  11.231  0.2583 -0.1551  0.0349
  643loPI   C1A10279  15.861   5.784  10.655  0.1723  0.2085 -0.3343
  643loPI   C2A10280  15.880   5.775  10.250 -0.4463  0.0409  0.0943
  643loPI   C3A10281  15.884   5.688   9.809  0.1418 -0.2480  0.0604
  643loPI   C4A10282  15.901   5.700   9.406 -0.2020 -0.2095 -0.0764
  643loPI   C5A10283  15.765   5.697   9.039 -0.2575  0.0502 -0.2823
  643loPI   C6A10284  15.609   5.412   8.744 -0.2123 -0.1775 -0.3746
  643loPI   C1B10285  15.608   5.383  10.804 -0.0754  0.1137  0.2224
  643loPI   C2B10286  15.656   5.287  10.321  0.0978  0.1249  0.0355
  643loPI   C3B10287  15.641   5.234   9.918 -0.4065 -0.1394  0.2036
  643loPI   C4B10288  15.631   5.253   9.416 -0.2992 -0.2255  0.0237
  644loPI    C110289   1.367  16.706  11.531  0.1246  0.0821  0.0592
  644loPI    C210290   1.610  16.814  11.829  0.0747  0.1235  0.0850
  644loPI    C310291   1.216  16.875  11.860  0.0305 -0.1850  0.1554
  644loPI   PO410292   1.441  16.784  11.333  0.2337 -0.1961  0.5242
  644loPI   GL110293   1.730  16.807  11.020 -0.0242  0.1470  0.0757
  644loPI   GL210294   1.883  16.505  10.970 -0.2192 -0.2639 -0.1429
  644loPI   C1A10295   1.741  17.043  10.650 -0.2253  0.0713 -0.0780
  644loPI   C2A10296   1.747  17.116  10.215  0.3347 -0.1711  0.1871
  644loPI   C3A10297   1.756  17.104   9.700  0.0248 -0.0077 -0.2127
  644loPI   C4A10298   1.611  17.123   9.262 -0.2563 -0.0227 -0.0938
  644loPI   C5A10299   1.420  16.951   8.829 -0.4943  0.0275 -0.1434
  644loPI   C6A10300   1.190  17.063   8.476  0.0768  0.0310  0.0831
  644loPI   C1B10301   1.857  16.541  10.556  0.0851 -0.0517  0.0981
  644loPI   C2B10302   1.844  16.637  10.069 -0.0601 -0.1588 -0.2664
  644loPI   C3B10303   1.904  16.603   9.651 -0.1180  0.1630  0.0292
  644loPI   C4B10304   1.896  16.605   9.216  0.1065  0.1160  0.1181
  645loPI    C110305   9.389  11.888  11.277  0.2826  0.0201  0.0309
  645loPI    C210306   9.099  11.861  11.551  0.3239  0.3606  0.1132
  645loPI    C310307   9.474  11.758  11.646  0.2298 -0.1149 -0.0040
  645loPI   PO410308   9.355  11.840  11.064  0.0029 -0.1945  0.0310
  645loPI   GL110309   9.062  11.756  10.706 -0.1756 -0.2191 -0.0311
  645loPI   GL210310   9.074  12.073  10.750 -0.0425 -0.1493 -0.0038
  645loPI   C1A10311   9.154  11.508  10.318 -0.3583 -0.0832  0.2989
  645loPI   C2A10312   9.303  11.526   9.841 -0.2123 -0.3347  0.0905
  645loPI   C3A10313   9.249  11.523   9.434  0.1374 -0.0362  0.2579
  645loPI   C4A10314   9.268  11.602   8.961 -0.2203  0.0150 -0.2210
  645loPI   C5A10315   9.093  11.634   8.579 -0.0411  0.4884  0.0563
  645loPI   C6A10316   9.062  11.334   8.211 -0.1680  0.0335 -0.1975
  645loPI   C1B10317   9.045  12.078  10.312  0.0005 -0.2228 -0.1228
  645loPI   C2B10318   9.038  11.989   9.865  0.2198 -0.1257 -0.2575
  645loPI   C3B10319   9.137  12.056   9.454 -0.0458  0.1245 -0.1084
  645loPI   C4B10320   8.984  12.020   8.990 -0.0503  0.0196 -0.0297
  646loPI    C110321   3.483   1.977  11.546  0.0613 -0.1080 -0.0235
  646loPI    C210322   3.662   1.725  11.801  0.2379  0.0685  0.0294
  646loPI    C310323   3.721   2.119  11.835  0.2423  0.0957 -0.2692
  646loPI   PO410324   3.489   1.861  11.303 -0.1457  0.0301  0.0786
  646loPI   GL110325   3.785   1.846  10.975 -0.2858 -0.1685 -0.1380
  646loPI   GL210326   3.503   1.948  10.863 -0.2302  0.3075  0.1908
  646loPI   C1A10327   3.799   2.193  10.562  0.0033  0.0697  0.3177
  646loPI   C2A10328   3.884   2.218  10.162 -0.1458 -0.0052  0.0658
  646loPI   C3A10329   3.861   2.254   9.677 -0.0136  0.3731 -0.0486
  646loPI   C4A10330   3.741   2.166   9.195  0.1642  0.1741  0.0436
  646loPI   C5A10331   3.632   2.238   8.746 -0.0422 -0.3568  0.0230
  646loPI   C6A10332   3.783   2.192   8.376  0.0582 -0.0891  0.0981
  646loPI   C1B10333   3.548   1.736  10.536  0.0018 -0.2734 -0.1139
  646loPI   C2B10334   3.622   1.796  10.032  0.0271 -0.3132  0.1735
  646loPI   C3B10335   3.533   1.853   9.537 -0.1727 -0.1881  0.5329
  646loPI   C4B10336   3.368   1.883   9.135 -0.0519  0.1907  0.0255
  647loPI    C110337   1.446  14.304  11.519  0.1738  0.1370  0.0063
  647loPI    C210338   1.217  14.057  11.733  0.3237  0.0045  0.0156
  647loPI    C310339   1.584  13.944  11.622  0.3358  0.1641 -0.1109
  647loPI   PO410340   1.291  14.371  11.297 -0.0596 -0.2328 -0.0489
  647loPI   GL110341   1.401  14.362  10.890 -0.0987  0.1545  0.0210
  647loPI   GL210342   1.116  14.153  10.888 -0.0286 -0.1364 -0.1505
  647loPI   C1A10343   1.314  14.366  10.510 -0.0098  0.1222  0.0105
  647loPI   C2A10344   1.394  14.359  10.003  0.0111  0.1690  0.0677
  647loPI   C3A10345   1.498  14.463   9.575 -0.2599 -0.0513  0.1153
  647loPI   C4A10346   1.699  14.632   9.217  0.0114  0.2282 -0.2833
  647loPI   C5A10347   1.654  14.531   8.772  0.1399  0.0392  0.0258
  647loPI   C6A10348   1.467  14.206   8.439  0.0626 -0.1161 -0.0146
  647loPI   C1B10349   1.002  13.951  10.631 -0.1751 -0.2612 -0.0888
  647loPI   C2B10350   1.053  13.986  10.210  0.0181  0.1704  0.2211
  647loPI   C3B10351   1.055  14.057   9.716  0.2491  0.3625  0.2379
  647loPI   C4B10352   1.075  13.901   9.255  0.0779  0.0069  0.0470
  648loPI    C110353   4.963   8.511  11.786  0.3304  0.1056  0.1108
  648loPI    C210354   4.975   8.450  12.181  0.0038  0.1227  0.1253
  648loPI    C310355   4.627   8.427  11.984  0.2015 -0.1442 -0.2047
  648loPI   PO410356   5.183   8.283  11.587 -0.1580 -0.0752 -0.2102
  648loPI   GL110357   5.446   8.332  11.284  0.2171 -0.0001  0.1176
  648loPI   GL210358   5.706   8.373  10.997  0.0669 -0.1332  0.4283
  648loPI   C1A10359   5.271   8.571  10.927  0.2111 -0.0461  0.2462
  648loPI   C2A10360   5.226   8.501  10.497  0.2566  0.0052  0.1653
  648loPI   C3A10361   5.308   8.409  10.070  0.1032 -0.0977 -0.1278
  648loPI   C4A10362   5.200   8.380   9.669  0.0819 -0.1832  0.1897
  648loPI   C5A10363   5.251   8.304   9.218  0.1718 -0.0571  0.1663
  648loPI   C6A10364   5.422   7.971   8.926  0.1371  0.1903  0.1738
  648loPI   C1B10365   5.764   8.413  10.566 -0.0529  0.0885 -0.0232
  648loPI   C2B10366   5.808   8.361  10.096 -0.1298 -0.1273 -0.1652
  648loPI   C3B10367   5.714   8.258   9.654 -0.0913 -0.0172 -0.1357
  648loPI   C4B10368   5.836   8.416   9.200 -0.0735 -0.0055  0.2999
  649loPI    C110369   0.259  12.041  11.557 -0.1456  0.0887  0.0165
  649loPI    C210370   0.588  12.262  11.610 -0.2319  0.1712  0.2202
  649loPI    C310371   0.535  11.928  11.824 -0.1462  0.0006 -0.0197
  649loPI   PO410372   0.199  12.007  11.323 -0.1103 -0.1272 -0.1135
  649loPI   GL110373   0.125  12.063  10.907 -0.2807 -0.0525  0.0288
  649loPI   GL210374   0.248  12.352  10.882  0.3059  0.3020  0.0650
  649loPI   C1A10375  -0.090  11.916  10.620 -0.1453  0.0348 -0.0964
  649loPI   C2A10376  -0.018  11.860  10.192  0.2409 -0.1284  0.0811
  649loPI   C3A10377   0.021  11.815   9.836  0.4064  0.0898 -0.0629
  649loPI   C4A10378   0.002  11.769   9.471 -0.0661  0.2848  0.1499
  649loPI   C5A10379  -0.060  11.813   9.043  0.0486 -0.2273 -0.0952
  649loPI   C6A10380  -0.251  11.943   8.675 -0.0588  0.0340 -0.1383
  649loPI   C1B10381   0.315  12.296  10.443  0.2540  0.1213  0.2263
  649loPI   C2B10382   0.403  12.288   9.997 -0.3352  0.0420 -0.1957
  649loPI   C3B10383   0.272  12.219   9.620  0.0559  0.1253 -0.1178
  649loPI   C4B10384   0.202  12.153   9.248  0.1025 -0.0778 -0.0843
  650loPI    C110385  12.301  16.779  11.458 -0.1510  0.1745 -0.2242
  650loPI    C210386  12.548  16.683  11.158 -0.0580  0.1848 -0.1514
  650loPI    C310387  12.660  16.621  11.537 -0.2489 -0.0011 -0.1231
  650loPI   PO410388  12.079  16.826  11.319  0.1745 -0.2422  0.1705
  650loPI   GL110389  12.073  16.637  10.891  0.0771  0.0311  0.0563
  650loPI   GL210390  12.029  16.908  10.866  0.0381  0.1578 -0.1280
  650loPI   C1A10391  12.408  16.797  10.613  0.0151  0.0562 -0.2645
  650loPI   C2A10392  12.426  16.644  10.155  0.0447 -0.3093  0.1311
  650loPI   C3A10393  12.419  16.565   9.737  0.1403  0.0036  0.0456
  650loPI   C4A10394  12.529  16.503   9.348  0.0851 -0.0334 -0.0964
  650loPI   C5A10395  12.384  16.255   8.904  0.0047  0.0357 -0.1312
  650loPI   C6A10396  12.710  16.079   8.658 -0.2188  0.1811  0.0361
  650loPI   C1B10397  11.883  16.815  10.403  0.3476  0.0670  0.1191
  650loPI   C2B10398  11.914  16.792   9.903 -0.1372 -0.1370  0.0395
  650loPI   C3B10399  11.903  16.661   9.485  0.0535 -0.0188 -0.0972
  650loPI   C4B10400  11.977  16.623   9.095 -0.1276  0.0501 -0.0152
  651loPI    C110401   4.767   2.367  11.479  0.2772 -0.1247 -0.1230
  651loPI    C210402   5.115   2.489  11.634  0.2290 -0.0649 -0.0611
  651loPI    C310403   4.804   2.415  11.874  0.2070 -0.1454 -0.1137
  651loPI   PO410404   4.667   2.581  11.330 -0.1101  0.2537 -0.0087
  651loPI   GL110405   4.918   2.573  11.014 -0.1844 -0.1845  0.0083
  651loPI   GL210406   5.275   2.531  11.139  0.1743  0.0116  0.2197
  651loPI   C1A10407   5.018   2.959  10.746  0.1567  0.0671 -0.0759
  651loPI   C2A10408   4.982   2.917  10.336  0.1454  0.0808 -0.0384
  651loPI   C3A10409   4.970   2.904   9.876 -0.3976 -0.0600  0.2648
  651loPI   C4A10410   5.015   2.942   9.456 -0.0439  0.0821  0.1366
  651loPI   C5A10411   4.876   2.881   8.968 -0.1139 -0.0594 -0.2970
  651loPI   C6A10412   4.620   2.528   8.791  0.2182  0.1468 -0.0541
  651loPI   C1B10413   5.148   2.522  10.626 -0.3841  0.1306  0.0757
  651loPI   C2B10414   5.222   2.523  10.178  0.2044  0.1100  0.0868
  651loPI   C3B10415   5.176   2.474   9.640  0.0377  0.0178  0.1002
  651loPI   C4B10416   5.129   2.488   9.215 -0.0028 -0.2715  0.0950
  652loPI    C110417  11.573   2.215  11.516  0.3175 -0.0633 -0.0971
  652loPI    C210418  11.645   2.105  11.894  0.0844 -0.1474 -0.0753
  652loPI    C310419  11.695   2.486  11.783 -0.0215 -0.0852  0.0867
  652loPI   PO410420  11.703   2.063  11.418  0.0686  0.1518  0.0333
  652loPI   GL110421  11.843   2.176  10.941 -0.5285  0.2269  0.2815
  652loPI   GL210422  12.176   2.138  10.832  0.1576  0.1167 -0.1186
  652loPI   C1A10423  11.600   2.190  10.601 -0.0376 -0.0566 -0.0193
  652loPI   C2A10424  11.541   2.174  10.220 -0.1716  0.2215 -0.1691
  652loPI   C3A10425  11.578   2.273   9.785  0.0855  0.3466  0.0631
  652loPI   C4A10426  11.610   2.193   9.317 -0.0697  0.1953 -0.0576
  652loPI   C5A10427  11.580   2.232   8.977  0.2469  0.5452 -0.2025
  652loPI   C6A10428  11.693   2.187   8.548 -0.1502 -0.2115  0.2522
  652loPI   C1B10429  12.106   2.192  10.426  0.3582  0.0141 -0.1263
  652loPI   C2B10430  12.036   2.146  10.051 -0.2026 -0.0634  0.0095
  652loPI   C3B10431  12.003   2.110   9.592 -0.0135 -0.2349 -0.2147
  652loPI   C4B10432  12.108   2.101   9.118 -0.0331 -0.1338 -0.1443
  653loPI    C110433  11.848  14.740  11.473 -0.2751  0.0266  0.1701
  653loPI    C210434  12.142  14.982  11.594 -0.1284 -0.0651  0.0028
  653loPI    C310435  11.867  14.855  11.856 -0.0210  0.0225  0.1601
  653loPI   PO410436  11.930  14.591  11.194  0.2083 -0.0850 -0.3576
  653loPI   GL110437  12.015  14.610  10.673  0.1571  0.0889  0.0118
  653loPI   GL210438  12.235  14.832  10.705  0.3992  0.1627  0.1081
  653loPI   C1A10439  11.829  14.628  10.171 -0.1991  0.1506  0.0879
  653loPI   C2A10440  11.955  14.403   9.807 -0.0325 -0.1034 -0.1529
  653loPI   C3A10441  11.933  14.389   9.344 -0.0988  0.1732 -0.5361
  653loPI   C4A10442  12.062  14.311   8.973 -0.0067 -0.1257 -0.0409
  653loPI   C5A10443  12.241  14.491   8.554  0.3501 -0.0277  0.0984
  653loPI   C6A10444  12.396  14.625   8.210 -0.1717  0.4136 -0.1262
  653loPI   C1B10445  12.237  14.903  10.255  0.4558 -0.0732  0.0951
  653loPI   C2B10446  12.209  14.795   9.845  0.1877 -0.1366 -0.1707
  653loPI   C3B10447  12.221  14.724   9.542 -0.0506 -0.0656 -0.2864
  653loPI   C4B10448  12.318  14.735   9.033  0.0460 -0.0528  0.0451
  654loPI    C110449  10.401  12.419  11.274  0.1211  0.1830  0.2669
  654loPI    C210450  10.700  12.300  11.511 -0.1521 -0.3484  0.3608
  654loPI    C310451  10.351  12.411  11.671 -0.0690  0.1054  0.2425
  654loPI   PO410452  10.517  12.330  11.047 -0.3039  0.0695  0.2995
  654loPI   GL110453  10.596  12.005  10.722  0.0080  0.1278  0.4405
  654loPI   GL210454  10.353  12.286  10.566  0.2066 -0.1193  0.1695
  654loPI   C1A10455  10.530  11.925  10.258  0.0613  0.3972 -0.1240
  654loPI   C2A10456  10.546  11.860   9.804  0.2468 -0.0539 -0.1901
  654loPI   C3A10457  10.465  11.779   9.360  0.0268  0.1877  0.2775
  654loPI   C4A10458  10.581  11.921   9.036 -0.0736 -0.1219  0.0190
  654loPI   C5A10459  10.737  11.981   8.681 -0.2216 -0.1227  0.1988
  654loPI   C6A10460  10.699  12.361   8.421  0.0507  0.2366  0.1018
  654loPI   C1B10461  10.325  12.315  10.134  0.1524 -0.3720  0.0033
  654loPI   C2B10462  10.335  12.368   9.678  0.1704 -0.0142  0.0281
  654loPI   C3B10463  10.440  12.335   9.282  0.2546 -0.0392 -0.6523
  654loPI   C4B10464  10.436  12.427   8.831  0.0928  0.0501  0.1872
  655loPI    C110465  10.055  14.261  11.156  0.1836 -0.0376  0.1770
  655loPI    C210466  10.156  13.948  11.385  0.2487 -0.1539 -0.0085
  655loPI    C310467   9.801  14.125  11.434  0.2175 -0.2472  0.1077
  655loPI   PO410468  10.299  14.302  10.990  0.0597 -0.0618 -0.1313
  655loPI   GL110469  10.572  14.297  10.655  0.1376 -0.2725  0.2323
  655loPI   GL210470  10.853  14.197  10.714 -0.2074 -0.0972 -0.0963
  655loPI   C1A10471  10.744  14.492  10.306 -0.1764  0.1479 -0.0466
  655loPI   C2A10472  10.906  14.445   9.897  0.0046 -0.0375  0.1487
  655loPI   C3A10473  10.939  14.590   9.467  0.1588  0.3162  0.1035
  655loPI   C4A10474  11.140  14.774   9.154 -0.1856 -0.1870  0.1223
  655loPI   C5A10475  11.267  15.204   9.003  0.0822  0.0142 -0.1905
  655loPI   C6A10476  11.169  15.223   8.498  0.1810  0.0183  0.0354
  655loPI   C1B10477  10.644  13.818  10.469 -0.0377  0.0465  0.0801
  655loPI   C2B10478  10.309  13.670  10.053 -0.2155 -0.2717  0.0728
  655loPI   C3B10479  10.368  13.629   9.613 -0.0055 -0.2240 -0.0054
  655loPI   C4B10480  10.416  13.657   9.233 -0.0326 -0.1592 -0.0793
  656loPI    C110481  12.547  16.135  11.520  0.0143 -0.0704 -0.0275
  656loPI    C210482  12.187  15.995  11.623 -0.0095  0.0478  0.0517
  656loPI    C310483  12.498  15.946  11.869  0.0060  0.0371  0.0299
  656loPI   PO410484  12.620  16.085  11.310 -0.1602  0.0423  0.0720
  656loPI   GL110485  12.635  16.039  10.939 -0.0573  0.1014 -0.3805
  656loPI   GL210486  12.497  16.285  10.856  0.0010 -0.1023  0.3537
  656loPI   C1A10487  12.971  16.145  10.723 -0.1197 -0.0515  0.2609
  656loPI   C2A10488  13.071  16.071  10.395  0.2234 -0.1062 -0.0006
  656loPI   C3A10489  13.151  16.044   9.928  0.1690 -0.0919  0.0522
  656loPI   C4A10490  13.207  16.016   9.446  0.1203 -0.0872  0.3455
  656loPI   C5A10491  13.179  15.988   9.019  0.0757 -0.0103 -0.1358
  656loPI   C6A10492  13.243  15.986   8.558 -0.0996 -0.1253  0.1949
  656loPI   C1B10493  12.608  16.252  10.412 -0.0559 -0.0780 -0.0524
  656loPI   C2B10494  12.617  16.167  10.063 -0.4143 -0.0636  0.2230
  656loPI   C3B10495  12.682  16.055   9.664 -0.1089  0.2029 -0.1230
  656loPI   C4B10496  12.632  16.009   9.313 -0.1681  0.2132  0.0525
  657loPI    C110497  13.934   2.880  11.700  0.0043  0.1279 -0.0263
  657loPI    C210498  14.143   3.052  11.994  0.2013 -0.2093  0.0363
  657loPI    C310499  13.997   2.682  12.042 -0.1887 -0.0791 -0.1074
  657loPI   PO410500  14.033   2.878  11.438 -0.3992 -0.0742  0.4620
  657loPI   GL110501  13.885   3.118  11.075  0.0477 -0.1357  0.0595
  657loPI   GL210502  13.964   3.341  10.836  0.0387 -0.1794  0.1714
  657loPI   C1A10503  13.827   2.745  10.804  0.2602  0.1002  0.3244
  657loPI   C2A10504  13.763   2.685  10.485 -0.0757 -0.4235  0.1858
  657loPI   C3A10505  13.689   2.798  10.078  0.1325 -0.0787 -0.2447
  657loPI   C4A10506  13.662   2.772   9.683  0.1452  0.0333 -0.1381
  657loPI   C5A10507  13.709   2.692   9.275  0.0551 -0.3538  0.0787
  657loPI   C6A10508  13.739   2.665   8.882 -0.0611 -0.0600 -0.3105
  657loPI   C1B10509  14.075   3.269  10.437  0.0258  0.0587 -0.3655
  657loPI   C2B10510  14.119   3.199  10.017  0.2384  0.2269  0.1859
  657loPI   C3B10511  14.026   3.208   9.604  0.1106 -0.0493 -0.0378
  657loPI   C4B10512  14.067   3.138   9.166 -0.2261 -0.1056  0.0926
  658loPI    C110513  15.509  14.661  11.581  0.1541  0.0442  0.0947
  658loPI    C210514  15.410  14.393  11.861  0.2802 -0.0792  0.0228
  658loPI    C310515  15.638  14.708  11.957 -0.0435  0.1196  0.1539
  658loPI   PO410516  15.587  14.582  11.416 -0.2453  0.1838 -0.1722
  658loPI   GL110517  15.773  14.486  11.002  0.0869 -0.2730 -0.4669
  658loPI   GL210518  16.026  14.712  11.162  0.1411  0.0232  0.0219
  658loPI   C1A10519  15.697  14.414  10.539 -0.1510 -0.3738  0.3326
  658loPI   C2A10520  15.785  14.302  10.146  0.2638 -0.1941 -0.0287
  658loPI   C3A10521  15.887  14.382   9.725  0.0978  0.1152 -0.0257
  658loPI   C4A10522  15.839  14.301   9.280 -0.0292 -0.0917  0.1764
  658loPI   C5A10523  16.047  14.232   8.834 -0.1579  0.2504  0.3676
  658loPI   C6A10524  16.307  14.068   8.514  0.0952  0.2089  0.1394
  658loPI   C1B10525  15.964  14.844  10.692  0.0112 -0.1542  0.1188
  658loPI   C2B10526  16.021  14.731  10.229 -0.1717 -0.0826  0.1357
  658loPI   C3B10527  16.141  14.867   9.900 -0.1184  0.2989  0.1592
  658loPI   C4B10528  16.098  14.762   9.496 -0.1236  0.0588 -0.2215
  659loPI    C110529   7.980   5.226  11.489  0.2833 -0.0352 -0.0339
  659loPI    C210530   7.755   4.982  11.712 -0.0190 -0.0986 -0.3993
  659loPI    C310531   8.141   5.034  11.801 -0.1664  0.0004  0.2285
  659loPI   PO410532   7.954   5.225  11.189  0.0874 -0.3042 -0.2764
  659loPI   GL110533   7.936   5.102  10.895 -0.1126  0.0437 -0.0706
  659loPI   GL210534   8.117   4.850  10.917  0.3096  0.0132 -0.0993
  659loPI   C1A10535   7.929   5.218  10.470 -0.0173  0.2444 -0.2005
  659loPI   C2A10536   7.986   5.293  10.001 -0.5776  0.0178 -0.1548
  659loPI   C3A10537   7.878   5.335   9.575  0.2027 -0.0075  0.0772
  659loPI   C4A10538   7.969   5.364   9.104 -0.1630  0.0207 -0.1662
  659loPI   C5A10539   8.415   5.303   8.879 -0.2641 -0.0473 -0.1987
  659loPI   C6A10540   8.402   4.951   8.568 -0.0347 -0.1381  0.0035
  659loPI   C1B10541   8.117   4.778  10.512  0.0023  0.3422  0.1356
  659loPI   C2B10542   8.051   4.800  10.017  0.0418 -0.1278  0.1935
  659loPI   C3B10543   8.128   4.895   9.573 -0.0860  0.0853 -0.1174
  659loPI   C4B10544   8.184   4.908   9.131 -0.1126 -0.1213 -0.0953
  660loPI    C110545  16.064   0.263  11.825  0.1698  0.0392  0.1593
  660loPI    C210546  15.803   0.522  11.981  0.1629  0.1464 -0.0275
  660loPI    C310547  15.900   0.191  12.183 -0.0513  0.1483  0.0815
  660loPI   PO410548  15.873   0.208  11.598 -0.1994 -0.0012  0.1635
  660loPI   GL110549  15.860   0.195  11.208 -0.1060 -0.0225  0.1580
  660loPI   GL210550  15.920  -0.112  11.000  0.1682 -0.0283  0.0539
  660loPI   C1A10551  15.875   0.357  10.765  0.1967  0.3421 -0.2383
  660loPI   C2A10552  15.803   0.317  10.313 -0.2686 -0.0272 -0.2126
  660loPI   C3A10553  15.709   0.341   9.917  0.0132  0.0021  0.1823
  660loPI   C4A10554  15.712   0.209   9.515  0.0975  0.3129  0.3944
  660loPI   C5A10555  15.664   0.174   9.150  0.0971 -0.1079  0.2032
  660loPI   C6A10556  15.826  -0.072   8.774  0.3462 -0.5774  0.2276
  660loPI   C1B10557  15.964  -0.130  10.598 -0.1794  0.3439 -0.2499
  660loPI   C2B10558  15.956  -0.112  10.194 -0.0042  0.0607 -0.0942
  660loPI   C3B10559  15.934  -0.176   9.734  0.1426  0.0075  0.2579
  660loPI   C4B10560  15.871  -0.266   9.261 -0.0674  0.0522  0.0289
  661loPI    C110561   5.602  10.287  11.680  0.2288  0.1598 -0.1198
  661loPI    C210562   5.726  10.351  12.055 -0.0683  0.1850 -0.0227
  661loPI    C310563   5.419  10.104  11.985 -0.1998  0.4010 -0.2236
  661loPI   PO410564   5.785  10.316  11.536  0.1135 -0.1741  0.1006
  661loPI   GL110565   5.880  10.410  11.190 -0.0629 -0.1523 -0.2690
  661loPI   GL210566   5.687  10.524  11.079  0.2013  0.2388  0.1113
  661loPI   C1A10567   6.000  10.153  10.842 -0.0109 -0.3082  0.1520
  661loPI   C2A10568   5.945  10.099  10.453 -0.0409 -0.3214  0.0247
  661loPI   C3A10569   5.909  10.144  10.036 -0.2244 -0.1065 -0.0553
  661loPI   C4A10570   5.919  10.162   9.592  0.3509  0.0553  0.1685
  661loPI   C5A10571   5.885  10.076   9.098 -0.0654 -0.1202  0.0838
  661loPI   C6A10572   5.881  10.267   8.657  0.0529 -0.0256  0.1707
  661loPI   C1B10573   5.756  10.560  10.640  0.0355  0.0561 -0.0949
  661loPI   C2B10574   5.751  10.565  10.191  0.1717 -0.1169 -0.1639
  661loPI   C3B10575   5.773  10.616   9.725 -0.3145 -0.0947  0.2181
  661loPI   C4B10576   5.746  10.570   9.328  0.0889  0.0089 -0.0758
  662loPI    C110577  11.533  11.361  11.790  0.2182 -0.1275 -0.2501
  662loPI    C210578  11.830  11.630  11.779  0.1129  0.0057  0.0567
  662loPI    C310579  11.811  11.365  12.078 -0.0375 -0.0498 -0.0008
  662loPI   PO410580  11.495  11.329  11.424  0.2610  0.0799  0.0467
  662loPI   GL110581  11.540  11.425  11.037 -0.0579  0.1576 -0.1026
  662loPI   GL210582  11.733  11.580  10.892 -0.2247 -0.1714 -0.3400
  662loPI   C1A10583  11.271  11.284  10.693  0.0083 -0.0400 -0.1381
  662loPI   C2A10584  11.291  11.267  10.255  0.0310 -0.1637  0.0118
  662loPI   C3A10585  11.331  11.263   9.787  0.0711  0.0359 -0.0611
  662loPI   C4A10586  11.219  11.256   9.372 -0.1412  0.2311 -0.0803
  662loPI   C5A10587  11.351  11.111   8.955 -0.1271  0.0345 -0.2267
  662loPI   C6A10588  11.383  11.235   8.525 -0.1217  0.1011  0.2082
  662loPI   C1B10589  12.079  11.747  10.541  0.2774 -0.0600  0.0391
  662loPI   C2B10590  12.160  11.619  10.072  0.0426 -0.0376 -0.1372
  662loPI   C3B10591  12.183  11.679   9.771  0.5232 -0.0392 -0.1511
  662loPI   C4B10592  12.066  11.632   9.307 -0.1179 -0.0088 -0.3003
  663loPI    C110593  14.846   8.845  11.765 -0.3124 -0.0529 -0.0665
  663loPI    C210594  14.744   8.803  12.150  0.1109 -0.1903  0.0364
  663loPI    C310595  14.754   8.484  11.910 -0.1559 -0.1043 -0.0937
  663loPI   PO410596  15.028   8.882  11.587  0.1252  0.2452  0.0689
  663loPI   GL110597  14.867   8.831  11.169  0.1836  0.0597  0.1515
  663loPI   GL210598  14.898   9.185  11.086 -0.1526  0.1518 -0.3629
  663loPI   C1A10599  14.782   8.628  10.778 -0.3988 -0.2836 -0.3901
  663loPI   C2A10600  14.806   8.498  10.396  0.1367 -0.2016  0.0230
  663loPI   C3A10601  14.697   8.609   9.992  0.1817 -0.1530  0.3117
  663loPI   C4A10602  14.748   8.565   9.513  0.1154 -0.1465  0.1308
  663loPI   C5A10603  14.737   8.452   9.093  0.4446 -0.0461 -0.0397
  663loPI   C6A10604  14.494   8.600   8.778 -0.0887 -0.1961  0.2938
  663loPI   C1B10605  15.041   9.061  10.662 -0.1248  0.4914  0.4254
  663loPI   C2B10606  15.105   8.949  10.210 -0.3436 -0.1763 -0.1053
  663loPI   C3B10607  14.999   8.898   9.805 -0.0202  0.1163  0.0931
  663loPI   C4B10608  15.094   8.991   9.346  0.0018 -0.1879 -0.0241
  664loPI    C110609   3.807   3.359  11.522 -0.0608  0.2076 -0.0401
  664loPI    C210610   3.651   3.210  11.859  0.0243  0.2798  0.0316
  664loPI    C310611   4.037   3.313  11.846 -0.0046  0.3795 -0.0548
  664loPI   PO410612   3.796   3.246  11.329 -0.2363  0.0099 -0.2165
  664loPI   GL110613   3.947   3.053  10.923 -0.1137 -0.2021 -0.0267
  664loPI   GL210614   4.082   2.817  10.742  0.0304 -0.3140  0.5424
  664loPI   C1A10615   3.975   3.167  10.381 -0.1124  0.0158 -0.1867
  664loPI   C2A10616   4.049   3.201   9.894 -0.0527  0.1087  0.0866
  664loPI   C3A10617   3.979   3.089   9.435  0.0492  0.1566 -0.0898
  664loPI   C4A10618   3.962   3.159   8.974  0.0452  0.0480 -0.0331
  664loPI   C5A10619   3.634   3.195   8.667  0.0072  0.0524  0.3151
  664loPI   C6A10620   3.367   3.045   8.398 -0.0697  0.0823  0.3298
  664loPI   C1B10621   4.232   2.570  10.360  0.1854  0.0683 -0.2887
  664loPI   C2B10622   4.182   2.595   9.892  0.0581 -0.0470  0.0541
  664loPI   C3B10623   4.199   2.593   9.533 -0.1380 -0.0646  0.1296
  664loPI   C4B10624   4.155   2.724   9.207 -0.1390 -0.0850 -0.0543
  665loPI    C110625   4.069  10.635  11.385 -0.1677  0.0979 -0.0140
  665loPI    C210626   4.080  10.857  11.717  0.3588  0.3434 -0.1845
  665loPI    C310627   4.313  10.533  11.685 -0.0481  0.0375 -0.1308
  665loPI   PO410628   3.915  10.843  11.215  0.2494  0.2972 -0.0875
  665loPI   GL110629   3.915  11.129  10.961 -0.3123 -0.0018 -0.2944
  665loPI   GL210630   3.679  10.845  10.746 -0.1659 -0.0122 -0.0147
  665loPI   C1A10631   4.035  11.361  10.643  0.1394  0.2593 -0.1024
  665loPI   C2A10632   4.051  11.310  10.222 -0.0993  0.0402  0.1835
  665loPI   C3A10633   4.086  11.335   9.708  0.2495  0.0151  0.1375
  665loPI   C4A10634   4.141  11.380   9.246 -0.3716 -0.0960 -0.2224
  665loPI   C5A10635   4.166  11.342   8.794  0.0426  0.3293 -0.1380
  665loPI   C6A10636   4.117  10.925   8.578  0.1466 -0.0514 -0.0736
  665loPI   C1B10637   3.761  10.900  10.233 -0.1258  0.0302  0.0347
  665loPI   C2B10638   3.770  10.950   9.782 -0.0633  0.0263  0.0285
  665loPI   C3B10639   3.809  11.007   9.354 -0.0172 -0.0005 -0.0332
  665loPI   C4B10640   3.777  10.979   8.958  0.1891 -0.0168 -0.0598
  666loPI    C110641  14.233   0.757  11.408  0.3940  0.1288  0.1251
  666loPI    C210642  14.305   0.373  11.493 -0.0751  0.0024 -0.0167
  666loPI    C310643  14.203   0.626  11.784 -0.0319 -0.0428  0.0379
  666loPI   PO410644  14.368   0.665  11.109  0.1172 -0.1766 -0.1846
  666loPI   GL110645  14.385   0.642  10.725 -0.2392  0.1052  0.0584
  666loPI   GL210646  14.592   0.907  10.734 -0.0847  0.0003  0.2946
  666loPI   C1A10647  14.313   0.557  10.339  0.1043 -0.3986  0.0198
  666loPI   C2A10648  14.207   0.470   9.925  0.0281 -0.1929 -0.1133
  666loPI   C3A10649  14.123   0.454   9.450 -0.0369  0.1015 -0.1531
  666loPI   C4A10650  14.149   0.373   8.974  0.0736 -0.4254  0.1449
  666loPI   C5A10651  14.405   0.128   8.738 -0.0409 -0.2627 -0.1020
  666loPI   C6A10652  14.825   0.086   8.836 -0.1162  0.2960  0.1164
  666loPI   C1B10653  14.593   1.009  10.334  0.0079 -0.1833 -0.0520
  666loPI   C2B10654  14.553   0.921   9.931  0.0664 -0.0347  0.3718
  666loPI   C3B10655  14.493   0.858   9.469  0.1323  0.2905  0.2931
  666loPI   C4B10656  14.417   0.811   9.045  0.1363 -0.0615  0.2323
  667loPI    C110657  15.139   3.733  11.485  0.0407  0.2611  0.0098
  667loPI    C210658  15.357   3.653  11.811 -0.1403  0.0537  0.0827
  667loPI    C310659  15.079   3.940  11.823 -0.1567  0.0364  0.1148
  667loPI   PO410660  15.292   3.781  11.263 -0.1953 -0.0627 -0.0483
  667loPI   GL110661  15.384   4.090  10.936 -0.2296 -0.0842  0.2939
  667loPI   GL210662  15.568   3.748  10.854  0.1205  0.0771 -0.0516
  667loPI   C1A10663  15.236   4.035  10.494  0.0421 -0.0400 -0.1477
  667loPI   C2A10664  15.219   3.902  10.116  0.0799 -0.0025  0.2584
  667loPI   C3A10665  15.179   3.841   9.659  0.2991  0.3147  0.2661
  667loPI   C4A10666  15.211   3.819   9.258 -0.0391 -0.0565 -0.3054
  667loPI   C5A10667  15.249   3.642   8.877  0.0214 -0.0591 -0.1507
  667loPI   C6A10668  15.282   3.725   8.437 -0.0593  0.1220 -0.0846
  667loPI   C1B10669  15.444   3.410  10.566 -0.0157  0.0448 -0.2215
  667loPI   C2B10670  15.644   3.026  10.371 -0.0787  0.0103 -0.0471
  667loPI   C3B10671  15.595   2.972   9.885  0.1499 -0.1661 -0.1824
  667loPI   C4B10672  15.604   2.895   9.428 -0.1920  0.1081 -0.1317
  668loPI    C110673   2.045  15.315  11.615 -0.1055  0.0099  0.0385
  668loPI    C210674   2.051  15.227  12.006  0.1523  0.3736  0.1213
  668loPI    C310675   2.373  15.154  11.779 -0.0183  0.1068 -0.0398
  668loPI   PO410676   1.821  15.152  11.444 -0.2936  0.3448 -0.0478
  668loPI   GL110677   1.930  15.143  11.025  0.2018 -0.0783 -0.1287
  668loPI   GL210678   2.140  15.378  11.083 -0.0589  0.2288 -0.0459
  668loPI   C1A10679   1.923  15.259  10.611  0.0884  0.0262  0.0416
  668loPI   C2A10680   1.960  15.290  10.175  0.0747 -0.0494 -0.0982
  668loPI   C3A10681   2.027  15.263   9.697 -0.0662  0.2852  0.0220
  668loPI   C4A10682   2.015  15.280   9.274 -0.2264 -0.1173  0.3685
  668loPI   C5A10683   1.815  15.042   8.995  0.1224  0.3082 -0.0350
  668loPI   C6A10684   1.669  14.971   8.564 -0.2756 -0.0893 -0.4113
  668loPI   C1B10685   2.230  15.609  10.701 -0.1552  0.0774 -0.4732
  668loPI   C2B10686   2.340  15.620  10.269  0.0015  0.4235 -0.2150
  668loPI   C3B10687   2.317  15.717   9.933  0.1783 -0.0152  0.2569
  668loPI   C4B10688   2.288  15.649   9.482  0.2144 -0.2681  0.1579
  669loPI    C110689   6.471   4.336  11.496 -0.0708  0.2206 -0.1410
  669loPI    C210690   6.204   4.572  11.678 -0.0406  0.0675  0.1067
  669loPI    C310691   6.577   4.548  11.819 -0.0088 -0.0314  0.0067
  669loPI   PO410692   6.369   4.302  11.292  0.0655  0.1671 -0.4885
  669loPI   GL110693   6.353   4.490  10.935 -0.2783 -0.0598  0.3315
  669loPI   GL210694   6.170   4.593  10.855 -0.3061  0.1579  0.3155
  669loPI   C1A10695   6.677   4.486  10.534 -0.2678 -0.0209  0.0292
  669loPI   C2A10696   6.772   4.509  10.166 -0.1753  0.1164  0.2219
  669loPI   C3A10697   6.842   4.556   9.694  0.0323  0.1346 -0.0184
  669loPI   C4A10698   6.717   4.568   9.314 -0.0430  0.3922  0.0956
  669loPI   C5A10699   6.751   4.521   8.851  0.0887 -0.1293 -0.2345
  669loPI   C6A10700   7.072   4.404   8.508 -0.1608 -0.2153  0.0223
  669loPI   C1B10701   6.201   4.593  10.501  0.1384 -0.3436  0.2866
  669loPI   C2B10702   6.319   4.575  10.007  0.0985  0.1609  0.1170
  669loPI   C3B10703   6.237   4.697   9.522 -0.1330 -0.1128  0.0358
  669loPI   C4B10704   6.229   4.643   9.114 -0.1822  0.1345  0.1338
  670loPI    C110705   5.072   1.920  11.942  0.1901 -0.0948 -0.0324
  670loPI    C210706   5.467   1.982  11.929  0.1716  0.0617  0.1194
  670loPI    C310707   5.228   2.252  12.101 -0.0317  0.0986 -0.2125
  670loPI   PO410708   4.991   1.944  11.625 -0.1000  0.1604  0.0629
  670loPI   GL110709   4.937   1.981  11.149 -0.0556  0.1492 -0.3169
  670loPI   GL210710   5.233   2.066  11.023 -0.1497 -0.0407  0.1445
  670loPI   C1A10711   4.769   2.072  10.732 -0.1461  0.1159 -0.2798
  670loPI   C2A10712   4.902   2.065  10.335  0.0394 -0.0688 -0.0752
  670loPI   C3A10713   4.876   1.978   9.937  0.1192 -0.3794 -0.1113
  670loPI   C4A10714   4.948   2.051   9.537 -0.1560 -0.2817  0.2721
  670loPI   C5A10715   4.814   2.118   9.128 -0.0195 -0.1667 -0.1561
  670loPI   C6A10716   4.576   2.011   8.805 -0.0535  0.1482  0.2609
  670loPI   C1B10717   5.326   2.015  10.633  0.2098  0.0236  0.1919
  670loPI   C2B10718   5.376   1.936  10.186 -0.2155 -0.0565 -0.0745
  670loPI   C3B10719   5.443   2.039   9.570  0.2673  0.1198 -0.2606
  670loPI   C4B10720   5.465   2.103   9.164  0.0120  0.2736 -0.0198
  671loPI    C110721   1.508   0.415  11.496  0.0299 -0.0967 -0.0134
  671loPI    C210722   1.705   0.481  11.838 -0.1776  0.4038  0.0176
  671loPI    C310723   1.335   0.329  11.846 -0.0376  0.0526 -0.0094
  671loPI   PO410724   1.471   0.676  11.409  0.1651  0.0463 -0.0982
  671loPI   GL110725   1.614   0.776  11.035 -0.2081  0.1026 -0.2138
  671loPI   GL210726   1.359   1.064  11.025  0.1212  0.2680  0.3574
  671loPI   C1A10727   1.703   0.655  10.702 -0.0410  0.4083  0.0857
  671loPI   C2A10728   1.689   0.636  10.258 -0.1851  0.2313 -0.0531
  671loPI   C3A10729   1.711   0.695   9.807 -0.0154 -0.0820  0.2388
  671loPI   C4A10730   1.658   0.658   9.440  0.3306  0.2375  0.0801
  671loPI   C5A10731   1.746   0.745   9.043 -0.1243 -0.2021 -0.1754
  671loPI   C6A10732   1.811   1.177   8.920  0.0004  0.0018 -0.2367
  671loPI   C1B10733   1.427   1.214  10.550 -0.2232 -0.2054  0.1553
  671loPI   C2B10734   1.544   1.260  10.164  0.1945 -0.0462  0.1104
  671loPI   C3B10735   1.497   1.155   9.755 -0.0146 -0.0169 -0.0832
  671loPI   C4B10736   1.471   1.148   9.372 -0.1032 -0.1221 -0.0280
  672loPI    C110737   3.742   7.708  11.666 -0.1120  0.0461 -0.2692
  672loPI    C210738   3.893   7.338  11.690  0.0019  0.0948 -0.2311
  672loPI    C310739   3.503   7.399  11.754 -0.0056 -0.0100 -0.1751
  672loPI   PO410740   3.803   7.759  11.506  0.1735 -0.5993 -0.0708
  672loPI   GL110741   3.698   7.778  11.102  0.0331 -0.2925 -0.0732
  672loPI   GL210742   3.944   8.124  11.028 -0.0807  0.2666  0.0554
  672loPI   C1A10743   3.680   7.688  10.685  0.0703  0.0684  0.2011
  672loPI   C2A10744   3.624   7.697  10.292  0.0557 -0.2786  0.1941
  672loPI   C3A10745   3.588   7.718   9.884 -0.0921 -0.1961  0.1227
  672loPI   C4A10746   3.635   7.711   9.398  0.0470 -0.3219 -0.0078
  672loPI   C5A10747   3.936   7.603   9.074  0.2041  0.1044  0.1674
  672loPI   C6A10748   3.966   7.351   8.751 -0.2742 -0.0448  0.2318
  672loPI   C1B10749   3.890   8.130  10.629 -0.1431 -0.0039  0.0840
  672loPI   C2B10750   3.916   8.111  10.266  0.0346  0.0228  0.5346
  672loPI   C3B10751   3.910   8.107   9.775 -0.2779  0.2181  0.1346
  672loPI   C4B10752   3.936   8.101   9.262 -0.2298  0.1390 -0.0535
  673loPI    C110753   4.607  15.538  11.414  0.1593  0.4181 -0.2529
  673loPI    C210754   4.902  15.690  11.636  0.2435  0.2046 -0.2165
  673loPI    C310755   4.988  15.462  11.319  0.1178  0.0012 -0.1065
  673loPI   PO410756   4.420  15.668  11.270  0.0153 -0.0940  0.0776
  673loPI   GL110757   4.253  15.780  10.890  0.0589 -0.3288 -0.2052
  673loPI   GL210758   4.101  15.667  10.749 -0.3354 -0.2505  0.1715
  673loPI   C1A10759   4.444  16.104  10.618  0.2825  0.0269  0.2216
  673loPI   C2A10760   4.446  16.275  10.248  0.1736 -0.0886 -0.2024
  673loPI   C3A10761   4.437  16.195   9.837  0.2570 -0.1937  0.0894
  673loPI   C4A10762   4.478  16.309   9.480 -0.1351 -0.2295  0.1711
  673loPI   C5A10763   4.464  16.412   9.021 -0.0749 -0.1306 -0.1180
  673loPI   C6A10764   4.285  16.319   8.581 -0.0034  0.0960  0.0061
  673loPI   C1B10765   4.175  15.837  10.322 -0.2321 -0.1018  0.1441
  673loPI   C2B10766   4.084  15.851   9.859  0.0399  0.2066 -0.0513
  673loPI   C3B10767   4.145  15.825   9.449  0.0268 -0.0713 -0.1992
  673loPI   C4B10768   4.186  15.973   9.009  0.1074 -0.0864 -0.2032
  674loPI    C110769   7.575   0.841  11.739  0.0836 -0.1446 -0.1306
  674loPI    C210770   7.455   0.543  11.501 -0.0160 -0.1710 -0.0484
  674loPI    C310771   7.372   0.532  11.892  0.2233 -0.1709  0.0040
  674loPI   PO410772   7.533   1.098  11.586  0.0832  0.1946 -0.1061
  674loPI   GL110773   7.564   1.113  11.107  0.3685  0.0986  0.0549
  674loPI   GL210774   7.264   0.918  11.181 -0.1194 -0.0492 -0.1452
  674loPI   C1A10775   7.564   1.227  10.750 -0.3227 -0.0211  0.2138
  674loPI   C2A10776   7.600   1.329  10.343  0.3278 -0.0545 -0.2532
  674loPI   C3A10777   7.612   1.318   9.845  0.3468 -0.0630  0.0273
  674loPI   C4A10778   7.634   1.294   9.348 -0.0089  0.1221  0.0210
  674loPI   C5A10779   7.710   1.294   8.946  0.0089  0.0302  0.2356
  674loPI   C6A10780   7.788   1.044   8.524  0.1887 -0.0038  0.1316
  674loPI   C1B10781   7.313   0.770  10.668 -0.2695  0.0733 -0.1001
  674loPI   C2B10782   7.330   0.783  10.252  0.2351  0.0396  0.1481
  674loPI   C3B10783   7.372   0.881   9.908  0.1497  0.1408 -0.0054
  674loPI   C4B10784   7.321   0.853   9.504 -0.0514 -0.1127 -0.3830
  675loPI    C110785   3.654   9.600  11.540 -0.0033  0.0718 -0.0199
  675loPI    C210786   4.045   9.518  11.514  0.0323  0.2210  0.0301
  675loPI    C310787   3.836   9.398  11.834 -0.0025 -0.0116 -0.0776
  675loPI   PO410788   3.600   9.484  11.265 -0.0855  0.0785 -0.2025
  675loPI   GL110789   3.544   9.548  10.856 -0.0438  0.0654 -0.0493
  675loPI   GL210790   3.249   9.727  10.799  0.1257  0.1511  0.2288
  675loPI   C1A10791   3.827   9.517  10.522  0.1593 -0.1297  0.1237
  675loPI   C2A10792   3.803   9.588  10.017  0.1243  0.2037  0.2528
  675loPI   C3A10793   3.856   9.476   9.578 -0.2425  0.1559 -0.1983
  675loPI   C4A10794   3.868   9.480   9.192 -0.2285 -0.0021 -0.0948
  675loPI   C5A10795   3.773   9.393   8.717 -0.0890 -0.0673 -0.0962
  675loPI   C6A10796   3.368   9.169   8.524  0.0855 -0.0548  0.0290
  675loPI   C1B10797   3.333   9.531  10.371 -0.0368  0.2727  0.1268
  675loPI   C2B10798   3.330   9.476   9.878 -0.0441  0.4410 -0.1838
  675loPI   C3B10799   3.349   9.580   9.363 -0.1846  0.1025 -0.1120
  675loPI   C4B10800   3.401   9.638   8.926  0.0177  0.0392  0.1010
  676loPI    C110801   0.552  16.212  11.524 -0.0813 -0.0468 -0.0666
  676loPI    C210802   0.377  15.988  11.804  0.0139 -0.0622 -0.0192
  676loPI    C310803   0.319  16.384  11.800 -0.0848 -0.0768 -0.0509
  676loPI   PO410804   0.483  16.117  11.279 -0.0121  0.2376 -0.0954
  676loPI   GL110805   0.193  16.137  11.072 -0.2196  0.1149 -0.1506
  676loPI   GL210806   0.303  15.899  10.804 -0.0493 -0.1026 -0.0199
  676loPI   C1A10807   0.058  16.435  10.680 -0.0476  0.0039 -0.1892
  676loPI   C2A10808   0.067  16.401  10.178 -0.0614 -0.1880  0.0947
  676loPI   C3A10809   0.024  16.413   9.744  0.0056  0.1581 -0.3115
  676loPI   C4A10810   0.014  16.328   9.343 -0.1869 -0.1755 -0.1525
  676loPI   C5A10811   0.098  16.371   8.868  0.0121 -0.0057  0.0127
  676loPI   C6A10812   0.389  16.616   8.660  0.0068  0.0279 -0.1808
  676loPI   C1B10813   0.277  15.876  10.344  0.2160 -0.1607  0.2340
  676loPI   C2B10814   0.293  15.973   9.876  0.0479 -0.2149 -0.0199
  676loPI   C3B10815   0.280  15.865   9.497  0.3390  0.2504 -0.3702
  676loPI   C4B10816   0.086  15.885   9.125 -0.0620  0.0918  0.1859
  677loPI    C110817  16.932   4.467   5.650  0.2306  0.0616  0.0437
  677loPI    C210818  16.990   4.833   5.499  0.0704  0.0638 -0.0139
  677loPI    C310819  17.217   4.528   5.376  0.2904  0.1678  0.1286
  677loPI   PO410820  16.893   4.478   5.887 -0.1911  0.0245  0.0773
  677loPI   GL110821  16.649   4.220   6.150 -0.0655  0.1219 -0.3812
  677loPI   GL210822  16.581   4.589   6.210  0.2702 -0.0096 -0.2214
  677loPI   C1A10823  16.585   4.192   6.588  0.0640  0.0440  0.0245
  677loPI   C2A10824  16.550   4.241   6.980 -0.2992  0.1841  0.1418
  677loPI   C3A10825  16.624   4.292   7.418  0.2349  0.0074  0.2269
  677loPI   C4A10826  16.606   4.363   7.798 -0.0215 -0.0112 -0.1759
  677loPI   C5A10827  16.562   4.341   8.230 -0.3761 -0.0168 -0.0497
  677loPI   C6A10828  16.870   4.607   8.283  0.2244  0.0203  0.0755
  677loPI   C1B10829  16.555   4.668   6.683  0.2093  0.2381  0.0719
  677loPI   C2B10830  16.481   4.685   7.087  0.1584  0.0628 -0.2125
  677loPI   C3B10831  16.440   4.791   7.488 -0.1808  0.0078  0.0295
  677loPI   C4B10832  16.496   4.841   7.943  0.3351  0.2528 -0.0192
  678loPI    C110833   2.537   6.342   5.717 -0.0190  0.1796  0.0197
  678loPI    C210834   2.354   6.695   5.679 -0.1339  0.1120 -0.0613
  678loPI    C310835   2.300   6.411   5.402  0.1241  0.1044 -0.1062
  678loPI   PO410836   2.589   6.327   6.029 -0.0100 -0.1536  0.0224
  678loPI   GL110837   2.440   6.323   6.365  0.1240  0.2279  0.1200
  678loPI   GL210838   2.156   6.286   6.575  0.1057 -0.2341 -0.2132
  678loPI   C1A10839   2.590   6.261   6.744  0.0632 -0.4001 -0.0452
  678loPI   C2A10840   2.563   6.168   7.190 -0.1766  0.0354  0.0064
  678loPI   C3A10841   2.570   6.168   7.640  0.1422 -0.0465 -0.0664
  678loPI   C4A10842   2.617   6.075   8.101 -0.0794  0.1607 -0.0692
  678loPI   C5A10843   2.707   5.869   8.559  0.1115  0.3486  0.0471
  678loPI   C6A10844   2.817   5.934   8.858  0.0097  0.0015 -0.1774
  678loPI   C1B10845   2.094   6.430   7.098  0.0335 -0.0962  0.5811
  678loPI   C2B10846   2.073   6.250   7.514  0.2076 -0.1375 -0.2720
  678loPI   C3B10847   2.087   6.134   8.007 -0.4237  0.1554  0.5432
  678loPI   C4B10848   2.219   6.027   8.455  0.1456  0.1689  0.1151
  679loPI    C110849   1.880   5.054   5.458 -0.1278  0.0421  0.1361
  679loPI    C210850   1.791   5.165   5.083 -0.0614  0.2537  0.1815
  679loPI    C310851   1.834   4.777   5.173 -0.3562  0.1842  0.0320
  679loPI   PO410852   1.744   5.199   5.705  0.0776 -0.2157  0.1405
  679loPI   GL110853   1.620   5.115   6.170 -0.0315  0.0094  0.2045
  679loPI   GL210854   1.329   5.224   6.145  0.0443  0.0637  0.2100
  679loPI   C1A10855   1.840   5.016   6.448  0.2935  0.1170 -0.0774
  679loPI   C2A10856   1.858   5.067   6.863 -0.2079  0.4364 -0.1376
  679loPI   C3A10857   1.865   5.033   7.292  0.0350 -0.0775  0.0023
  679loPI   C4A10858   1.959   5.062   7.832  0.2423 -0.0263  0.3916
  679loPI   C5A10859   1.698   5.133   8.173  0.0417 -0.0492 -0.0708
  679loPI   C6A10860   1.709   5.483   8.480 -0.0613 -0.0767  0.0478
  679loPI   C1B10861   1.430   5.201   6.603 -0.0903 -0.4314 -0.2471
  679loPI   C2B10862   1.360   5.161   6.983  0.0711 -0.2411 -0.1679
  679loPI   C3B10863   1.387   5.190   7.446  0.0241 -0.3465 -0.1689
  679loPI   C4B10864   1.331   5.336   7.923  0.0491 -0.0927 -0.0017
  680loPI    C110865   6.768  15.801   5.487  0.0238 -0.1487 -0.0139
  680loPI    C210866   7.007  15.597   5.240 -0.0252  0.1496 -0.3138
  680loPI    C310867   6.624  15.661   5.141 -0.1247  0.0202 -0.0224
  680loPI   PO410868   6.957  15.773   5.724 -0.1118 -0.0684 -0.1792
  680loPI   GL110869   6.960  15.601   6.056 -0.0428  0.1614 -0.0044
  680loPI   GL210870   6.759  15.348   6.220 -0.1722  0.0090 -0.1803
  680loPI   C1A10871   7.088  15.651   6.452  0.0963 -0.0144  0.1702
  680loPI   C2A10872   7.197  15.547   6.797 -0.2916 -0.1283 -0.4105
  680loPI   C3A10873   7.154  15.548   7.220 -0.1505 -0.0150 -0.0713
  680loPI   C4A10874   7.048  15.531   7.665 -0.0627 -0.2127  0.0686
  680loPI   C5A10875   7.052  15.657   8.092  0.0531 -0.1463  0.1288
  680loPI   C6A10876   6.900  15.512   8.432  0.1812  0.0905 -0.0311
  680loPI   C1B10877   6.758  15.338   6.708 -0.1480  0.0238  0.0179
  680loPI   C2B10878   6.737  15.204   7.127  0.1128 -0.0689 -0.3109
  680loPI   C3B10879   6.674  15.223   7.621 -0.0103 -0.0775  0.0156
  680loPI   C4B10880   6.659  15.241   8.058  0.5432  0.0670 -0.0160
  681loPI    C110881  14.256  12.377   5.453 -0.0663 -0.0610 -0.1046
  681loPI    C210882  14.594  12.554   5.333 -0.2227  0.2454 -0.1023
  681loPI    C310883  14.278  12.541   5.089 -0.1968 -0.0817 -0.1222
  681loPI   PO410884  14.226  12.475   5.705  0.1662  0.1415 -0.1599
  681loPI   GL110885  14.356  12.371   6.044  0.2627 -0.1518  0.3900
  681loPI   GL210886  14.193  12.081   6.108  0.0115 -0.3163  0.1513
  681loPI   C1A10887  14.410  12.697   6.502 -0.0642 -0.3201 -0.1353
  681loPI   C2A10888  14.404  12.778   7.001 -0.0861  0.0201  0.0674
  681loPI   C3A10889  14.414  12.753   7.500 -0.0619 -0.2852  0.3332
  681loPI   C4A10890  14.343  12.725   7.879 -0.2789 -0.1614  0.0778
  681loPI   C5A10891  14.293  12.526   8.222 -0.1753 -0.0984 -0.1238
  681loPI   C6A10892  14.323  12.403   8.581 -0.2675 -0.1724  0.1531
  681loPI   C1B10893  14.113  11.955   6.536 -0.2588  0.4988  0.0668
  681loPI   C2B10894  14.082  11.888   6.975  0.0932 -0.0228  0.1328
  681loPI   C3B10895  14.054  11.922   7.412 -0.0285 -0.2561  0.2915
  681loPI   C4B10896  13.900  11.817   7.865 -0.1381 -0.1227  0.0076
  682loPI    C110897   1.174  17.560   5.493 -0.0451 -0.1416 -0.0928
  682loPI    C210898   1.219  17.952   5.425  0.1874 -0.1363  0.0814
  682loPI    C310899   1.463  17.689   5.248  0.1002 -0.1952  0.0484
  682loPI   PO410900   1.221  17.554   5.760  0.3587  0.0636  0.0366
  682loPI   GL110901   1.335  17.425   6.144 -0.0404 -0.1050  0.0728
  682loPI   GL210902   1.556  17.210   6.289  0.1068 -0.2030  0.0465
  682loPI   C1A10903   1.335  17.723   6.526 -0.1557  0.1313 -0.2275
  682loPI   C2A10904   1.280  17.714   6.970 -0.1066  0.0068  0.1100
  682loPI   C3A10905   1.307  17.755   7.414 -0.1048  0.1124 -0.0477
  682loPI   C4A10906   1.187  17.819   7.823  0.1126  0.1782  0.0508
  682loPI   C5A10907   0.985  17.711   8.232 -0.2232 -0.0527  0.1183
  682loPI   C6A10908   0.801  17.961   8.512  0.0697  0.0941  0.1206
  682loPI   C1B10909   1.344  17.142   6.706  0.1856 -0.0435  0.0484
  682loPI   C2B10910   1.368  17.233   7.144 -0.0691 -0.2819 -0.1463
  682loPI   C3B10911   1.330  17.250   7.538 -0.0005 -0.2001  0.0103
  682loPI   C4B10912   1.344  17.163   8.009 -0.0281 -0.1499 -0.0134
  683loPI    C110913  10.157  13.558   5.665  0.1632  0.1190 -0.0482
  683loPI    C210914  10.483  13.745   5.529  0.1319  0.1968 -0.0166
  683loPI    C310915  10.183  13.658   5.278  0.2339  0.0045 -0.0736
  683loPI   PO410916  10.213  13.422   5.804  0.4601 -0.2249  0.0960
  683loPI   GL110917   9.964  13.292   6.163 -0.0232 -0.3143 -0.2413
  683loPI   GL210918   9.528  13.399   6.290 -0.0668 -0.1672  0.2003
  683loPI   C1A10919   9.716  12.977   6.464  0.0419  0.0638  0.4024
  683loPI   C2A10920   9.892  13.026   6.882  0.0818 -0.0776 -0.2355
  683loPI   C3A10921   9.747  13.004   7.312  0.2482  0.0145 -0.0878
  683loPI   C4A10922   9.701  13.106   7.753  0.0289  0.5161 -0.0713
  683loPI   C5A10923   9.760  13.169   8.175  0.1171  0.1347 -0.2062
  683loPI   C6A10924   9.870  12.946   8.583 -0.2166 -0.0607 -0.2573
  683loPI   C1B10925   9.314  13.161   6.677  0.0025  0.0951  0.0356
  683loPI   C2B10926   9.303  13.249   7.182 -0.2245  0.2489  0.0896
  683loPI   C3B10927   9.264  13.274   7.668  0.2448  0.1404  0.4843
  683loPI   C4B10928   9.177  13.238   8.144  0.1487 -0.0028 -0.2886
  684loPI    C110929   0.788  12.161   5.526 -0.2083  0.0594  0.0173
  684loPI    C210930   0.595  11.926   5.267 -0.1745  0.1269 -0.0697
  684loPI    C310931   0.467  12.299   5.332 -0.0764  0.1701 -0.1239
  684loPI   PO410932   0.808  12.076   5.706 -0.1041 -0.2285  0.4212
  684loPI   GL110933   0.753  12.172   6.120  0.0248  0.2767  0.1346
  684loPI   GL210934   0.471  12.259   6.168 -0.2379 -0.0046  0.1379
  684loPI   C1A10935   0.832  12.092   6.570 -0.0599 -0.0687  0.0400
  684loPI   C2A10936   0.847  12.163   6.982  0.0183 -0.0354 -0.2616
  684loPI   C3A10937   0.835  12.137   7.485  0.0316 -0.0237  0.1028
  684loPI   C4A10938   0.457  12.006   7.593  0.1282 -0.0379  0.1151
  684loPI   C5A10939   0.423  11.791   7.258  0.0150  0.1224 -0.3006
  684loPI   C6A10940   0.416  11.844   6.828 -0.1875 -0.0354  0.2995
  684loPI   C1B10941   0.367  12.313   6.515  0.2668 -0.1139  0.1115
  684loPI   C2B10942   0.333  12.378   6.983 -0.0419 -0.1226 -0.0394
  684loPI   C3B10943   0.327  12.472   7.521 -0.1168 -0.3435  0.0355
  684loPI   C4B10944   0.349  12.311   7.913  0.0732  0.0722 -0.3276
  685loPI    C110945   9.021   1.411   5.385  0.0143  0.0869 -0.0535
  685loPI    C210946   8.869   1.188   5.089  0.0924  0.1322 -0.1282
  685loPI    C310947   9.098   1.505   5.004  0.3116  0.0066 -0.0158
  685loPI   PO410948   9.084   1.250   5.620  0.0452 -0.1477 -0.0914
  685loPI   GL110949   9.104   1.178   5.977  0.0376  0.1110 -0.2677
  685loPI   GL210950   9.198   1.274   6.228  0.2610 -0.3690  0.4244
  685loPI   C1A10951   8.956   0.891   6.277  0.0370 -0.1106 -0.2163
  685loPI   C2A10952   8.898   0.870   6.779  0.1868 -0.1292  0.2090
  685loPI   C3A10953   8.965   0.961   7.194  0.0359  0.0838  0.0593
  685loPI   C4A10954   8.944   1.038   7.648  0.0119 -0.2968  0.2023
  685loPI   C5A10955   8.677   1.045   8.113  0.1615  0.3521  0.2897
  685loPI   C6A10956   8.271   1.063   8.278  0.0371 -0.1028 -0.1625
  685loPI   C1B10957   9.219   1.191   6.604 -0.1559 -0.0381  0.0291
  685loPI   C2B10958   9.279   1.300   6.990  0.1807 -0.0611  0.2617
  685loPI   C3B10959   9.361   1.217   7.389  0.0537 -0.1926  0.2971
  685loPI   C4B10960   9.294   1.281   7.854  0.1254  0.1132  0.0276
  686loPI    C110961   1.082   4.757   5.390 -0.0724  0.1000  0.1050
  686loPI    C210962   1.464   4.646   5.434 -0.0454  0.1130 -0.0904
  686loPI    C310963   1.372   5.032   5.381 -0.0902  0.1156  0.0036
  686loPI   PO410964   0.998   4.648   5.643  0.1379  0.0138  0.0943
  686loPI   GL110965   1.019   4.669   6.116 -0.3074 -0.0642  0.1991
  686loPI   GL210966   1.020   4.387   6.246 -0.1306  0.0109  0.1322
  686loPI   C1A10967   1.108   4.857   6.491 -0.0211  0.3747  0.0696
  686loPI   C2A10968   0.940   4.890   6.865  0.0256  0.1505 -0.0494
  686loPI   C3A10969   1.015   4.879   7.317  0.2305 -0.1488  0.2580
  686loPI   C4A10970   0.913   4.911   7.770 -0.2123 -0.2326 -0.4918
  686loPI   C5A10971   0.955   5.051   8.059  0.0138 -0.1487  0.4258
  686loPI   C6A10972   1.264   5.173   8.417  0.2709  0.1469 -0.0171
  686loPI   C1B10973   1.085   4.358   6.666  0.0544 -0.1416  0.0742
  686loPI   C2B10974   1.078   4.435   7.094  0.0121 -0.1385  0.3105
  686loPI   C3B10975   1.116   4.420   7.519 -0.3411 -0.2442 -0.1788
  686loPI   C4B10976   0.996   4.447   7.948  0.1015 -0.2097  0.0795
  687loPI    C110977  15.419  11.541   5.572 -0.0157 -0.1273 -0.0489
  687loPI    C210978  15.248  11.825   5.348  0.2168  0.0615  0.0093
  687loPI    C310979  15.307  11.459   5.196 -0.1298  0.0264 -0.0492
  687loPI   PO410980  15.379  11.656   5.843 -0.1751  0.1517  0.0841
  687loPI   GL110981  15.565  11.912   6.115  0.1687  0.1646  0.0948
  687loPI   GL210982  15.586  12.216   6.154  0.1569 -0.1951  0.0019
  687loPI   C1A10983  15.535  11.868   6.487 -0.0461  0.1782  0.2902
  687loPI   C2A10984  15.538  11.953   6.897  0.3929  0.2892  0.0833
  687loPI   C3A10985  15.385  11.895   7.248 -0.2166  0.0137 -0.2130
  687loPI   C4A10986  15.433  11.962   7.692  0.1437 -0.0624 -0.0965
  687loPI   C5A10987  15.322  12.050   8.144  0.3402 -0.2725 -0.0310
  687loPI   C6A10988  15.576  12.310   8.460 -0.0387  0.1690  0.1370
  687loPI   C1B10989  15.473  12.391   6.575 -0.2088  0.0412 -0.2176
  687loPI   C2B10990  15.319  12.378   7.040 -0.0665 -0.0197  0.2091
  687loPI   C3B10991  15.419  12.452   7.403 -0.0859  0.1159  0.0368
  687loPI   C4B10992  15.345  12.472   7.787 -0.3076  0.3002 -0.1427
  688loPI    C110993  13.695   2.808   5.603  0.2544 -0.1770 -0.1473
  688loPI    C210994  13.916   3.138   5.658  0.0048 -0.0721  0.2735
  688loPI    C310995  13.672   3.110   5.342  0.2538  0.0144  0.0705
  688loPI   PO410996  13.670   2.766   5.882  0.1080  0.2574 -0.1751
  688loPI   GL110997  13.530   3.000   6.211  0.0315  0.2854 -0.1337
  688loPI   GL210998  13.166   3.178   6.364 -0.1482  0.2009 -0.0547
  688loPI   C1A10999  13.618   2.999   6.613  0.1490 -0.1293  0.3301
  688loPI   C2A11000  13.611   2.965   7.061  0.0985 -0.2340  0.0550
  688loPI   C3A11001  13.622   3.005   7.622  0.0987  0.0655 -0.1075
  688loPI   C4A11002  13.768   2.934   8.008 -0.0134  0.1854  0.0166
  688loPI   C5A11003  14.088   2.762   8.159 -0.1682  0.0332 -0.2779
  688loPI   C6A11004  14.531   2.645   8.328 -0.1642 -0.0447 -0.2470
  688loPI   C1B11005  13.165   3.175   6.820  0.1735  0.0460  0.1355
  688loPI   C2B11006  13.093   3.099   7.232 -0.0429  0.1110  0.0548
  688loPI   C3B11007  13.170   3.173   7.691  0.2912 -0.0078 -0.0518
  688loPI   C4B11008  13.333   3.117   8.166 -0.1861  0.0400 -0.0560
  689loPI    C111009  15.267  17.077   5.174 -0.1170  0.0479 -0.1904
  689loPI    C211010  15.369  16.743   4.980  0.1311 -0.1245  0.2260
  689loPI    C311011  15.406  17.097   4.799  0.1675 -0.2952 -0.1086
  689loPI   PO411012  15.311  16.999   5.424 -0.3371 -0.0706 -0.0538
  689loPI   GL111013  15.412  16.960   5.841  0.0592  0.1389  0.1462
  689loPI   GL211014  15.515  17.180   6.062  0.0263 -0.3566  0.1218
  689loPI   C1A11015  15.118  16.908   6.309  0.0333 -0.2696 -0.1449
  689loPI   C2A11016  15.076  16.848   6.706 -0.0707 -0.0364  0.0317
  689loPI   C3A11017  15.110  16.776   7.168  0.0851 -0.0915  0.1907
  689loPI   C4A11018  15.131  16.817   7.604  0.0416 -0.0504  0.1096
  689loPI   C5A11019  15.188  16.861   8.032  0.3655 -0.2675  0.2264
  689loPI   C6A11020  15.285  17.064   8.474  0.1587 -0.4200 -0.2528
  689loPI   C1B11021  15.497  17.218   6.507  0.0875 -0.0883 -0.0078
  689loPI   C2B11022  15.452  17.095   6.959 -0.0038  0.2837  0.0488
  689loPI   C3B11023  15.543  17.089   7.320 -0.0753 -0.0204 -0.3348
  689loPI   C4B11024  15.577  17.066   7.715  0.3074 -0.0182  0.1664
  690loPI    C111025   3.601  10.149   5.571  0.2456  0.0615  0.0955
  690loPI    C211026   3.478   9.818   5.383  0.3682  0.0185  0.0902
  690loPI    C311027   3.861   9.932   5.359  0.3831  0.0189  0.3038
  690loPI   PO411028   3.526  10.104   5.790  0.1876 -0.0233 -0.1143
  690loPI   GL111029   3.289  10.220   6.091 -0.4568  0.0827 -0.0235
  690loPI   GL211030   3.111  10.037   6.227  0.1870  0.0942  0.1287
  690loPI   C1A11031   3.460  10.300   6.536 -0.0182  0.1291  0.3768
  690loPI   C2A11032   3.422  10.222   6.997 -0.0199 -0.1544  0.2648
  690loPI   C3A11033   3.384  10.201   7.401 -0.0124  0.1874 -0.1183
  690loPI   C4A11034   3.263  10.103   7.757  0.1368  0.1260 -0.0769
  690loPI   C5A11035   3.333  10.152   8.168  0.2452 -0.2246  0.0696
  690loPI   C6A11036   3.784   9.977   8.176  0.0718  0.2889  0.0706
  690loPI   C1B11037   3.103   9.935   6.687 -0.0742 -0.0379 -0.1159
  690loPI   C2B11038   3.043   9.909   7.099  0.1947  0.0320 -0.2203
  690loPI   C3B11039   2.882   9.890   7.484  0.2672  0.4038 -0.1422
  690loPI   C4B11040   2.738   9.888   7.797  0.0724 -0.2532  0.0908
  691loPI    C111041  11.692   1.453   5.600  0.1004  0.1372 -0.0229
  691loPI    C211042  11.737   1.097   5.778 -0.1518  0.0368 -0.1546
  691loPI    C311043  11.896   1.162   5.417  0.1417  0.1561 -0.0071
  691loPI   PO411044  11.703   1.619   5.783  0.2050 -0.0693  0.1406
  691loPI   GL111045  11.836   1.638   6.127  0.2327 -0.0324  0.2957
  691loPI   GL211046  12.031   1.713   6.254 -0.2858  0.2644  0.0315
  691loPI   C1A11047  11.609   1.383   6.457  0.1222  0.1375 -0.1938
  691loPI   C2A11048  11.630   1.254   6.881  0.1333  0.1615  0.1274
  691loPI   C3A11049  11.566   1.363   7.291 -0.1846  0.3204  0.0277
  691loPI   C4A11050  11.621   1.336   7.754  0.0143  0.3050 -0.1994
  691loPI   C5A11051  11.507   1.185   8.105 -0.0600 -0.2843  0.2599
  691loPI   C6A11052  11.304   1.231   8.511  0.1702  0.0126 -0.1636
  691loPI   C1B11053  11.999   1.630   6.683 -0.2039  0.2208  0.3108
  691loPI   C2B11054  11.988   1.671   7.116 -0.1299  0.0749  0.0285
  691loPI   C3B11055  11.930   1.640   7.498 -0.0461 -0.1362 -0.0890
  691loPI   C4B11056  11.981   1.627   7.927  0.3342 -0.1872 -0.2722
  692loPI    C111057  15.519  12.547   5.536 -0.0179 -0.0624 -0.0868
  692loPI    C211058  15.152  12.486   5.388 -0.1414  0.0624  0.1620
  692loPI    C311059  15.453  12.246   5.281 -0.3081 -0.0795  0.0040
  692loPI   PO411060  15.548  12.512   5.776  0.0111 -0.0376  0.2776
  692loPI   GL111061  15.383  12.687   6.136  0.0933 -0.1419 -0.0217
  692loPI   GL211062  15.105  12.607   5.983 -0.0746 -0.2013  0.1450
  692loPI   C1A11063  15.322  12.929   6.460  0.3435  0.3671  0.1577
  692loPI   C2A11064  15.308  12.890   6.859  0.1505  0.3360 -0.1920
  692loPI   C3A11065  15.278  12.973   7.273  0.1242  0.1096  0.0433
  692loPI   C4A11066  15.248  12.990   7.617  0.0361 -0.0764 -0.1987
  692loPI   C5A11067  15.324  12.978   8.008  0.1948 -0.0265 -0.1843
  692loPI   C6A11068  15.337  12.888   8.464  0.1717  0.3495  0.1621
  692loPI   C1B11069  14.867  12.595   6.356 -0.0519  0.0712 -0.4380
  692loPI   C2B11070  14.900  12.639   6.768 -0.0911 -0.1948 -0.4458
  692loPI   C3B11071  14.952  12.607   7.207 -0.2380  0.4297 -0.0266
  692loPI   C4B11072  14.870  12.610   7.619  0.2170  0.0140 -0.0042
  693loPI    C111073   0.776   6.638   5.680  0.1661  0.2953 -0.0663
  693loPI    C211074   0.674   6.722   5.302 -0.0913 -0.3602 -0.1549
  693loPI    C311075   1.041   6.586   5.385  0.1364  0.2632 -0.0873
  693loPI   PO411076   0.610   6.833   5.876  0.2012  0.0256 -0.1597
  693loPI   GL111077   0.457   6.870   6.267 -0.1484 -0.0223 -0.1158
  693loPI   GL211078   0.226   6.595   6.232  0.1952  0.0574 -0.2634
  693loPI   C1A11079   0.738   6.968   6.586 -0.2817  0.1472  0.2591
  693loPI   C2A11080   0.760   6.906   6.921  0.0596 -0.0437  0.0399
  693loPI   C3A11081   0.591   6.895   7.348 -0.2798 -0.2669  0.1354
  693loPI   C4A11082   0.525   6.943   7.743 -0.1106 -0.2156  0.3809
  693loPI   C5A11083   0.718   7.074   8.107 -0.2681  0.2495  0.0688
  693loPI   C6A11084   0.607   7.471   8.338 -0.1831  0.2163  0.1553
  693loPI   C1B11085   0.319   6.593   6.700  0.1589 -0.1731 -0.0725
  693loPI   C2B11086   0.313   6.577   7.055 -0.0589 -0.1301 -0.0395
  693loPI   C3B11087   0.210   6.622   7.547  0.1747  0.2980 -0.1035
  693loPI   C4B11088   0.151   6.652   7.986 -0.1578 -0.2149 -0.0321
  694loPI    C111089  11.533   0.699   5.584 -0.0561  0.0920 -0.0331
  694loPI    C211090  11.896   0.647   5.426 -0.1287 -0.1804 -0.1154
  694loPI    C311091  11.606   0.814   5.207 -0.0237  0.1479 -0.0099
  694loPI   PO411092  11.426   0.541   5.669 -0.0307  0.2180 -0.0157
  694loPI   GL111093  11.256   0.420   6.077 -0.3844  0.1535 -0.1807
  694loPI   GL211094  11.146   0.667   6.137  0.1935  0.3150  0.3333
  694loPI   C1A11095  11.675   0.302   6.339 -0.2789  0.1864 -0.2707
  694loPI   C2A11096  11.707   0.253   6.742  0.1897 -0.0744 -0.2174
  694loPI   C3A11097  11.814   0.337   7.162 -0.0459  0.2622 -0.0631
  694loPI   C4A11098  11.743   0.352   7.576  0.0968 -0.3413 -0.1011
  694loPI   C5A11099  11.822   0.279   8.013 -0.4125  0.1429  0.2723
  694loPI   C6A11100  11.836  -0.047   8.323  0.2064  0.4153 -0.2157
  694loPI   C1B11101  11.289   0.567   6.557  0.0541 -0.0936 -0.1269
  694loPI   C2B11102  11.291   0.485   7.005  0.1725  0.1109  0.0497
  694loPI   C3B11103  11.269   0.488   7.468 -0.0603 -0.0456  0.1020
  694loPI   C4B11104  11.217   0.532   7.874  0.1295  0.0261 -0.1278
  695loPI    C111105   6.629   8.751   5.764 -0.0268 -0.1531  0.0455
  695loPI    C211106   6.399   8.923   5.486  0.0085 -0.1274  0.0323
  695loPI    C311107   6.662   8.641   5.381  0.2156  0.0753 -0.0021
  695loPI   PO411108   6.522   8.740   5.992  0.1292  0.1419 -0.0291
  695loPI   GL111109   6.433   8.730   6.380  0.1106 -0.1703  0.0833
  695loPI   GL211110   6.441   9.066   6.375 -0.0208 -0.2674 -0.1565
  695loPI   C1A11111   6.396   8.704   6.870 -0.1515  0.3562  0.1127
  695loPI   C2A11112   6.352   8.594   7.307 -0.1063  0.1148  0.2336
  695loPI   C3A11113   6.350   8.591   7.722  0.3550  0.1244  0.0284
  695loPI   C4A11114   6.161   8.516   8.138 -0.0482  0.1998 -0.0985
  695loPI   C5A11115   6.141   8.421   8.589  0.0442  0.2234 -0.3011
  695loPI   C6A11116   5.940   8.836   8.891 -0.3281 -0.0794  0.2302
  695loPI   C1B11117   6.302   9.154   6.805  0.1263  0.1352  0.1547
  695loPI   C2B11118   6.257   9.069   7.185 -0.1342  0.0193 -0.2042
  695loPI   C3B11119   6.218   9.097   7.586  0.0840 -0.0792 -0.1703
  695loPI   C4B11120   6.286   9.016   8.009 -0.0227 -0.2035 -0.3160
  696loPI    C111121  10.760   1.899   5.550 -0.0826 -0.0473 -0.0364
  696loPI    C211122  10.915   2.164   5.294  0.0131 -0.0557  0.0122
  696loPI    C311123  10.737   1.833   5.156 -0.1396  0.0513 -0.0498
  696loPI   PO411124  10.572   2.067   5.642 -0.1506 -0.0907 -0.1413
  696loPI   GL111125  10.382   2.275   6.003 -0.0251  0.3093  0.1519
  696loPI   GL211126  10.544   2.180   6.265  0.0650  0.0709  0.1272
  696loPI   C1A11127   9.991   2.414   6.304  0.0382  0.2913 -0.2479
  696loPI   C2A11128   9.937   2.453   6.774 -0.0481  0.1720  0.2646
  696loPI   C3A11129  10.004   2.469   7.134  0.1208 -0.1498  0.0859
  696loPI   C4A11130  10.015   2.409   7.537 -0.0723 -0.1028 -0.0293
  696loPI   C5A11131   9.953   2.304   8.002 -0.1203 -0.4236  0.2082
  696loPI   C6A11132   9.902   2.376   8.470  0.0388 -0.2522  0.0879
  696loPI   C1B11133  10.403   2.301   6.597  0.0321  0.0264 -0.0407
  696loPI   C2B11134  10.453   2.224   7.027 -0.0657 -0.2082  0.0561
  696loPI   C3B11135  10.479   2.245   7.484  0.1630  0.0855  0.0342
  696loPI   C4B11136  10.448   2.208   7.857  0.0936  0.0428  0.0716
  697loPI    C111137  15.022  13.439   5.647 -0.0777 -0.2139 -0.0442
  697loPI    C211138  15.160  13.380   5.276 -0.0353  0.0544 -0.0727
  697loPI    C311139  14.782  13.500   5.332 -0.0390  0.0225 -0.0292
  697loPI   PO411140  15.176  13.535   5.767  0.0442 -0.0893  0.0821
  697loPI   GL111141  15.286  13.366   6.197 -0.2143  0.2637  0.1560
  697loPI   GL211142  15.138  13.696   6.300  0.1280  0.2003  0.2003
  697loPI   C1A11143  15.264  13.374   6.607  0.0252 -0.2719 -0.1080
  697loPI   C2A11144  15.216  13.458   6.951 -0.1936 -0.3810  0.0090
  697loPI   C3A11145  15.135  13.432   7.410  0.1174  0.2286  0.0172
  697loPI   C4A11146  15.175  13.445   7.788 -0.1817 -0.0669  0.0598
  697loPI   C5A11147  14.991  13.374   8.184  0.3242  0.2099  0.1215
  697loPI   C6A11148  14.744  13.252   8.565 -0.3060 -0.1069 -0.0198
  697loPI   C1B11149  15.059  13.872   6.694 -0.2298 -0.0783 -0.0373
  697loPI   C2B11150  15.096  14.014   7.197 -0.1069 -0.1113 -0.0927
  697loPI   C3B11151  15.069  13.942   7.645 -0.1036 -0.1091 -0.0505
  697loPI   C4B11152  15.107  13.905   8.118  0.0480  0.4516 -0.0270
  698loPI    C111153   5.502  10.507   5.880 -0.1985  0.0365  0.0082
  698loPI    C211154   5.624  10.501   5.499  0.1667  0.1015  0.1197
  698loPI    C311155   5.523  10.160   5.682 -0.1043  0.0813 -0.0616
  698loPI   PO411156   5.594  10.773   5.955 -0.0943  0.1993 -0.1907
  698loPI   GL111157   5.650  10.953   6.249  0.3463 -0.1104  0.0519
  698loPI   GL211158   5.932  10.757   6.346 -0.1663 -0.1672 -0.1507
  698loPI   C1A11159   5.593  10.840   6.669  0.2973  0.2092  0.0680
  698loPI   C2A11160   5.568  10.878   7.125  0.3525  0.1889 -0.0176
  698loPI   C3A11161   5.520  10.885   7.623  0.4544  0.3884 -0.3664
  698loPI   C4A11162   5.468  10.782   8.008 -0.1652 -0.2501 -0.0641
  698loPI   C5A11163   5.548  10.717   8.441 -0.1520  0.2048 -0.2708
  698loPI   C6A11164   5.789  10.758   8.811 -0.0357  0.0165 -0.1719
  698loPI   C1B11165   6.186  10.611   6.741  0.0178 -0.1920 -0.1479
  698loPI   C2B11166   6.184  10.577   7.256  0.2053  0.1413  0.1522
  698loPI   C3B11167   6.000  10.678   7.713 -0.2071 -0.1409 -0.2392
  698loPI   C4B11168   5.910  10.562   8.178 -0.2225  0.1352  0.2976
  699loPI    C111169  15.640   1.522   5.213  0.0353 -0.1402  0.0428
  699loPI    C211170  15.329   1.494   4.963  0.0522 -0.1072  0.0181
  699loPI    C311171  15.698   1.549   4.818  0.0444  0.0503  0.0561
  699loPI   PO411172  15.569   1.345   5.454 -0.0505 -0.0609  0.0645
  699loPI   GL111173  15.539   1.235   5.902  0.2959 -0.0193 -0.2860
  699loPI   GL211174  15.605   0.981   5.977 -0.2900 -0.0020  0.1149
  699loPI   C1A11175  15.685   1.308   6.306 -0.0119 -0.3813 -0.1257
  699loPI   C2A11176  15.617   1.250   6.743  0.4020 -0.1198  0.4349
  699loPI   C3A11177  15.653   1.167   7.166 -0.0399 -0.0754 -0.0095
  699loPI   C4A11178  15.743   1.206   7.527 -0.2636 -0.0074  0.0006
  699loPI   C5A11179  15.776   1.185   7.909 -0.2443 -0.3135 -0.3341
  699loPI   C6A11180  15.708   1.207   8.406  0.0132  0.1103 -0.3882
  699loPI   C1B11181  15.726   0.745   6.446  0.1426 -0.1016  0.1339
  699loPI   C2B11182  15.655   0.709   6.910  0.2661  0.2513 -0.2534
  699loPI   C3B11183  15.665   0.680   7.294  0.1813 -0.2346  0.2443
  699loPI   C4B11184  15.783   0.707   7.734 -0.1004  0.0640 -0.0271
  700loPI    C111185   8.588  10.983   5.708  0.1021 -0.0990  0.0589
  700loPI    C211186   8.327  10.919   5.411 -0.0356  0.1703  0.1191
  700loPI    C311187   8.576  11.232   5.394 -0.1066  0.2399  0.3286
  700loPI   PO411188   8.848  10.730   5.728  0.1503  0.0102  0.0128
  700loPI   GL111189   8.744  10.561   6.124 -0.0290  0.1011  0.3321
  700loPI   GL211190   8.604  10.745   6.161  0.0060 -0.1256 -0.1850
  700loPI   C1A11191   8.851  10.550   6.617 -0.0182  0.0762 -0.0043
  700loPI   C2A11192   8.808  10.541   7.111  0.0207  0.3933  0.1196
  700loPI   C3A11193   8.677  10.423   7.487 -0.0331 -0.0577  0.1603
  700loPI   C4A11194   8.421  10.174   7.669  0.3991 -0.2196  0.0477
  700loPI   C5A11195   8.368  10.170   8.034  0.4391  0.1654  0.0741
  700loPI   C6A11196   8.565  10.056   8.421  0.0247  0.2164  0.2197
  700loPI   C1B11197   8.353  10.728   6.618  0.2329 -0.0360 -0.1001
  700loPI   C2B11198   8.311  10.750   7.028 -0.0941  0.2178  0.0173
  700loPI   C3B11199   8.286  10.743   7.492  0.1088  0.1841  0.1776
  700loPI   C4B11200   8.424  10.642   7.929  0.2722  0.1141  0.2067
  701loPI    C111201   8.168  12.641   5.691  0.0623  0.0362  0.0964
  701loPI    C211202   8.299  12.660   5.313 -0.0865 -0.0595  0.0390
  701loPI    C311203   8.560  12.625   5.614  0.0213 -0.2355 -0.0731
  701loPI   PO411204   8.046  12.778   5.726 -0.1948 -0.0195  0.2928
  701loPI   GL111205   8.113  12.992   6.145 -0.2048  0.1427  0.1658
  701loPI   GL211206   8.411  12.819   6.113 -0.1912  0.0505 -0.1892
  701loPI   C1A11207   7.990  13.168   6.488 -0.0707  0.0752  0.0697
  701loPI   C2A11208   7.944  13.238   6.911 -0.2477  0.2065  0.3100
  701loPI   C3A11209   7.785  13.310   7.407 -0.1565  0.1045  0.0096
  701loPI   C4A11210   7.802  13.317   7.814  0.3567  0.1637  0.2378
  701loPI   C5A11211   8.160  13.213   8.136  0.1035 -0.2789  0.0309
  701loPI   C6A11212   8.346  13.268   8.471  0.0030 -0.1010  0.0162
  701loPI   C1B11213   8.531  13.025   6.502  0.2387  0.0854  0.1870
  701loPI   C2B11214   8.454  12.988   6.889 -0.1335 -0.2247  0.2632
  701loPI   C3B11215   8.375  13.092   7.255 -0.2698  0.0440 -0.0920
  701loPI   C4B11216   8.354  13.105   7.692  0.1817 -0.0410 -0.0792
  702loPI    C111217   2.885   0.789   5.554  0.0770  0.0290  0.0142
  702loPI    C211218   2.863   0.450   5.343  0.3248  0.0262 -0.0094
  702loPI    C311219   2.605   0.747   5.271  0.0281 -0.2011  0.0944
  702loPI   PO411220   2.872   0.738   5.792  0.5031 -0.1371 -0.0722
  702loPI   GL111221   2.676   0.573   6.176 -0.1523 -0.1961 -0.1174
  702loPI   GL211222   2.554   0.196   6.205 -0.2081 -0.2190  0.0585
  702loPI   C1A11223   2.221   0.643   6.420  0.0691  0.2737 -0.3749
  702loPI   C2A11224   2.135   0.652   6.838  0.1658 -0.1865 -0.2722
  702loPI   C3A11225   2.065   0.686   7.239  0.0100 -0.0175 -0.1788
  702loPI   C4A11226   2.056   0.685   7.643  0.0719  0.0857  0.0238
  702loPI   C5A11227   1.940   0.627   8.119  0.0639 -0.1234  0.0260
  702loPI   C6A11228   1.797   0.587   8.515  0.0767 -0.1188 -0.2910
  702loPI   C1B11229   2.644   0.436   6.651  0.0440  0.1236 -0.0107
  702loPI   C2B11230   2.574   0.494   7.064 -0.0341 -0.1722 -0.0234
  702loPI   C3B11231   2.537   0.511   7.570 -0.3536 -0.2089  0.1732
  702loPI   C4B11232   2.412   0.525   8.027 -0.0638  0.1591 -0.2223
  703loPI    C111233   6.020   6.373   5.300  0.2775  0.0069 -0.1159
  703loPI    C211234   5.730   6.141   5.152  0.1845  0.0666 -0.0291
  703loPI    C311235   6.068   6.197   4.944  0.2327 -0.1937 -0.0239
  703loPI   PO411236   6.035   6.277   5.572  0.0929 -0.0222  0.1194
  703loPI   GL111237   6.030   6.285   5.973 -0.0971 -0.0581  0.0614
  703loPI   GL211238   6.210   6.206   6.157 -0.3154 -0.2042  0.1764
  703loPI   C1A11239   5.839   6.553   6.408  0.1448  0.1211 -0.1400
  703loPI   C2A11240   5.758   6.448   6.765  0.0329  0.3721  0.1365
  703loPI   C3A11241   5.781   6.509   7.165 -0.0142  0.2550 -0.1177
  703loPI   C4A11242   5.697   6.516   7.614 -0.0958  0.0100 -0.0736
  703loPI   C5A11243   5.711   6.473   8.009 -0.1915  0.1504 -0.1514
  703loPI   C6A11244   5.762   6.470   8.434 -0.2528 -0.0289  0.0256
  703loPI   C1B11245   6.259   6.305   6.615  0.1098  0.3059 -0.0394
  703loPI   C2B11246   6.222   6.286   7.065  0.1140  0.0592  0.0945
  703loPI   C3B11247   6.208   6.303   7.558 -0.0131  0.1517 -0.1452
  703loPI   C4B11248   6.201   6.297   7.992 -0.1660 -0.1768 -0.1153
  704loPI    C111249   7.519   7.543   5.254  0.1165 -0.2546 -0.1368
  704loPI    C211250   7.490   7.907   5.090  0.2088 -0.1094  0.1615
  704loPI    C311251   7.361   7.586   4.889  0.2136  0.0753 -0.1433
  704loPI   PO411252   7.430   7.591   5.558 -0.0716 -0.1627 -0.1688
  704loPI   GL111253   7.532   7.685   6.035  0.0530 -0.0843 -0.0447
  704loPI   GL211254   7.197   7.581   6.082 -0.1285 -0.1305  0.1323
  704loPI   C1A11255   7.463   7.817   6.398 -0.2937  0.0355 -0.1169
  704loPI   C2A11256   7.448   7.760   6.788 -0.0491 -0.0034  0.1188
  704loPI   C3A11257   7.424   7.702   7.234  0.3649  0.0501 -0.1239
  704loPI   C4A11258   7.322   7.669   7.600  0.0358 -0.0051 -0.0463
  704loPI   C5A11259   7.294   7.757   8.123  0.1117  0.1579  0.1056
  704loPI   C6A11260   7.290   7.838   8.538 -0.1010  0.0240 -0.3592
  704loPI   C1B11261   7.059   7.561   6.533 -0.0102 -0.1590 -0.3397
  704loPI   C2B11262   6.998   7.448   6.941  0.1592  0.2097 -0.1831
  704loPI   C3B11263   6.952   7.427   7.395  0.0022  0.2168  0.0727
  704loPI   C4B11264   6.893   7.448   7.826  0.0413 -0.2496  0.1105
  705loPI    C111265  10.140   9.843   5.538 -0.0318  0.0852 -0.0314
  705loPI    C211266   9.949  10.101   5.300 -0.0543  0.0530 -0.0483
  705loPI    C311267  10.105   9.765   5.148 -0.0548  0.0402 -0.0205
  705loPI   PO411268  10.246   9.961   5.744  0.2368 -0.0779  0.3040
  705loPI   GL111269  10.257   9.988   6.104 -0.1767  0.0661 -0.0473
  705loPI   GL211270  10.566  10.138   6.094  0.1133  0.1745  0.0201
  705loPI   C1A11271  10.247   9.935   6.641 -0.0075  0.0953  0.1488
  705loPI   C2A11272  10.177   9.970   7.069 -0.0249 -0.1243  0.0746
  705loPI   C3A11273  10.179   9.970   7.507 -0.0619  0.3867  0.0394
  705loPI   C4A11274  10.245   9.924   7.832  0.2437 -0.1029  0.1924
  705loPI   C5A11275  10.490   9.883   8.203 -0.0392 -0.1830 -0.0026
  705loPI   C6A11276  10.820   9.713   8.250  0.1605 -0.1031  0.4430
  705loPI   C1B11277  10.675  10.260   6.486  0.1505  0.2694 -0.2176
  705loPI   C2B11278  10.661  10.293   7.038 -0.1190  0.1280 -0.0057
  705loPI   C3B11279  10.599  10.278   7.520  0.1594  0.1524 -0.2824
  705loPI   C4B11280  10.670  10.239   7.902  0.0167  0.2150 -0.0741
  706loPI    C111281   5.291   6.815   5.405  0.1457  0.2228  0.0554
  706loPI    C211282   5.662   6.775   5.260  0.1062  0.1138 -0.0172
  706loPI    C311283   5.362   6.562   5.103  0.0471  0.0567  0.1696
  706loPI   PO411284   5.317   6.895   5.602 -0.0971  0.1756 -0.0754
  706loPI   GL111285   5.416   6.970   5.971 -0.1141  0.0168  0.0214
  706loPI   GL211286   5.332   6.675   6.144 -0.1816  0.2020 -0.0863
  706loPI   C1A11287   5.256   7.206   6.246 -0.1384 -0.0247 -0.0564
  706loPI   C2A11288   5.201   7.147   6.720 -0.1369  0.2722  0.1206
  706loPI   C3A11289   5.104   7.096   7.017  0.0376 -0.4493 -0.2601
  706loPI   C4A11290   5.166   7.124   7.520 -0.3270  0.3012 -0.1409
  706loPI   C5A11291   5.364   7.101   7.988  0.2647  0.0839 -0.1345
  706loPI   C6A11292   5.658   6.951   8.275 -0.2203 -0.0018  0.1409
  706loPI   C1B11293   5.194   6.718   6.475  0.2727 -0.0899  0.1189
  706loPI   C2B11294   5.272   6.677   6.901  0.2838  0.1641  0.0317
  706loPI   C3B11295   5.238   6.652   7.316 -0.1682  0.3564  0.2418
  706loPI   C4B11296   5.248   6.652   7.749 -0.3579 -0.1431  0.2695
  707loPI    C111297   2.124  10.147   5.654  0.1427 -0.1754 -0.0177
  707loPI    C211298   2.134  10.125   5.255  0.0268 -0.1492 -0.0226
  707loPI    C311299   2.242  10.463   5.439  0.1579 -0.1879 -0.0276
  707loPI   PO411300   2.305   9.983   5.857  0.0776  0.1601 -0.1541
  707loPI   GL111301   2.436  10.054   6.319  0.2955  0.2943 -0.2665
  707loPI   GL211302   2.634   9.774   6.167  0.3119  0.1943 -0.0349
  707loPI   C1A11303   2.524  10.111   6.718 -0.3307  0.2088 -0.1246
  707loPI   C2A11304   2.463  10.106   7.111 -0.0840  0.1368 -0.1095
  707loPI   C3A11305   2.365  10.067   7.523 -0.2053 -0.1585 -0.1101
  707loPI   C4A11306   2.347  10.136   7.942  0.1141 -0.0753 -0.1075
  707loPI   C5A11307   2.483   9.826   8.251 -0.1825  0.1033 -0.0034
  707loPI   C6A11308   2.542   9.745   8.706 -0.2515  0.2891  0.0289
  707loPI   C1B11309   2.559   9.561   6.558  0.2686  0.1231  0.0445
  707loPI   C2B11310   2.638   9.619   7.042  0.1051 -0.0239  0.1060
  707loPI   C3B11311   2.542   9.549   7.457 -0.1409  0.0690  0.1356
  707loPI   C4B11312   2.437   9.461   7.932 -0.1635  0.0132  0.2109
  708loPI    C111313   2.490   1.265   5.361 -0.2574  0.0174  0.1670
  708loPI    C211314   2.763   1.333   5.077 -0.0440 -0.4887  0.2400
  708loPI    C311315   2.375   1.399   5.002  0.0292 -0.4235 -0.0977
  708loPI   PO411316   2.621   1.289   5.587 -0.1336 -0.1131  0.1054
  708loPI   GL111317   2.706   1.216   6.015  0.1670  0.2475  0.0132
  708loPI   GL211318   2.871   1.415   6.264  0.2623 -0.2462  0.0631
  708loPI   C1A11319   2.579   1.004   6.423  0.1494  0.2681 -0.1353
  708loPI   C2A11320   2.576   0.974   6.793 -0.1559 -0.2666  0.0560
  708loPI   C3A11321   2.504   0.979   7.200 -0.0238  0.1738  0.2471
  708loPI   C4A11322   2.423   0.993   7.726  0.0849  0.1143 -0.0202
  708loPI   C5A11323   2.336   1.018   8.127  0.1052 -0.0712  0.0405
  708loPI   C6A11324   2.068   0.995   8.504 -0.2292 -0.0171  0.0137
  708loPI   C1B11325   2.958   1.286   6.576  0.1048 -0.0081 -0.1211
  708loPI   C2B11326   2.971   1.193   7.081  0.0880  0.1434 -0.0106
  708loPI   C3B11327   2.860   1.281   7.502  0.0036 -0.1029 -0.0900
  708loPI   C4B11328   2.822   1.344   7.961  0.0775  0.0390  0.1091
  709loPI    C111329  10.703  14.227   5.635  0.1031 -0.0624 -0.1092
  709loPI    C211330  10.367  14.306   5.433 -0.1236 -0.0841  0.2501
  709loPI    C311331  10.678  14.137   5.246 -0.2884 -0.0084 -0.1005
  709loPI   PO411332  10.669  14.127   5.902 -0.2528  0.0604 -0.0516
  709loPI   GL111333  10.735  14.198   6.339 -0.0391 -0.0714  0.1862
  709loPI   GL211334  10.938  14.465   6.375 -0.2001  0.1381 -0.0302
  709loPI   C1A11335  10.609  14.187   6.822  0.2203 -0.0382 -0.4027
  709loPI   C2A11336  10.555  14.088   7.312 -0.1251 -0.0076  0.1326
  709loPI   C3A11337  10.453  14.224   7.698 -0.1346 -0.0583  0.2352
  709loPI   C4A11338  10.510  14.173   8.141  0.1768  0.1289 -0.1161
  709loPI   C5A11339  10.482  14.536   8.377  0.0737  0.5712  0.2416
  709loPI   C6A11340  10.271  14.883   8.389  0.3575  0.3636  0.1105
  709loPI   C1B11341  11.009  14.608   6.824  0.1493 -0.1722  0.0173
  709loPI   C2B11342  10.898  14.637   7.210  0.0006  0.0711  0.1043
  709loPI   C3B11343  10.832  14.563   7.553 -0.2414 -0.2151  0.1210
  709loPI   C4B11344  10.810  14.480   8.017  0.1324  0.3215 -0.1264
  710loPI    C111345  10.972  14.642   5.617  0.1195  0.0224 -0.0983
  710loPI    C211346  11.365  14.580   5.651  0.0908 -0.0225  0.1751
  710loPI    C311347  11.153  14.377   5.379  0.2165 -0.1731  0.1879
  710loPI   PO411348  10.864  14.669   5.879  0.0775  0.1278 -0.2145
  710loPI   GL111349  10.971  14.920   6.171  0.0926 -0.0370 -0.0371
  710loPI   GL211350  11.308  14.849   6.170  0.1038  0.1627 -0.3915
  710loPI   C1A11351  10.837  14.983   6.555 -0.0278 -0.1298 -0.0908
  710loPI   C2A11352  10.790  15.052   6.979 -0.0127  0.0157  0.2078
  710loPI   C3A11353  10.802  15.091   7.436  0.0681 -0.0511 -0.0319
  710loPI   C4A11354  10.773  15.134   7.882  0.2267 -0.2795 -0.1559
  710loPI   C5A11355  10.638  15.408   8.287 -0.1396  0.2141  0.1037
  710loPI   C6A11356  10.378  15.648   8.573 -0.0437  0.0970  0.2997
  710loPI   C1B11357  11.385  14.874   6.584 -0.1591  0.0809 -0.3975
  710loPI   C2B11358  11.299  14.878   7.095 -0.1541 -0.0646  0.1656
  710loPI   C3B11359  11.291  14.920   7.492  0.0282 -0.0078 -0.3060
  710loPI   C4B11360  11.200  14.909   7.950 -0.1461 -0.0492  0.2875
  711loPI    C111361   1.869   9.271   5.345  0.0382 -0.2006  0.1416
  711loPI    C211362   1.651   9.097   5.059  0.0724 -0.1964  0.1130
  711loPI    C311363   2.048   9.055   5.060  0.0965  0.0165  0.0113
  711loPI   PO411364   1.859   9.165   5.574 -0.4682 -0.0028 -0.3248
  711loPI   GL111365   1.711   9.262   5.973 -0.0800 -0.3319 -0.1965
  711loPI   GL211366   1.633   8.930   6.056  0.1509 -0.0214  0.1167
  711loPI   C1A11367   1.632   9.401   6.345  0.3404 -0.1775  0.1638
  711loPI   C2A11368   1.717   9.482   6.656  0.0203  0.0963 -0.0380
  711loPI   C3A11369   1.720   9.428   7.091  0.0358  0.2648 -0.2313
  711loPI   C4A11370   1.619   9.424   7.558 -0.1499 -0.0993 -0.1305
  711loPI   C5A11371   1.638   9.308   7.893  0.0874 -0.2353  0.0055
  711loPI   C6A11372   1.621   8.875   8.187  0.0877  0.2537  0.0313
  711loPI   C1B11373   1.687   8.940   6.501  0.1971  0.2685  0.1323
  711loPI   C2B11374   1.729   8.960   6.848 -0.1415 -0.1262 -0.1395
  711loPI   C3B11375   1.710   8.931   7.255 -0.0920 -0.0816  0.0777
  711loPI   C4B11376   1.658   8.828   7.688 -0.0423 -0.0909  0.1219
  712loPI    C111377  10.545  10.632   5.679  0.1468  0.0500  0.1634
  712loPI    C211378  10.261  10.421   5.865  0.1657 -0.1470 -0.0273
  712loPI    C311379  10.297  10.401   5.467  0.3153  0.0385 -0.0248
  712loPI   PO411380  10.712  10.653   5.944 -0.1583 -0.1287  0.2859
  712loPI   GL111381  10.781  10.711   6.405 -0.1893 -0.0288  0.1234
  712loPI   GL211382  10.379  10.617   6.351  0.0652  0.3721 -0.1626
  712loPI   C1A11383  10.739  10.739   6.785 -0.0821 -0.2520 -0.0356
  712loPI   C2A11384  10.667  10.812   7.234  0.2652  0.1219 -0.0576
  712loPI   C3A11385  10.538  10.827   7.579  0.1540  0.0051 -0.2527
  712loPI   C4A11386  10.579  10.823   7.966  0.1955  0.2331 -0.2512
  712loPI   C5A11387  10.358  10.929   8.294 -0.0848 -0.0393  0.0452
  712loPI   C6A11388  10.065  10.730   8.573 -0.0388  0.0385  0.2955
  712loPI   C1B11389  10.226  10.433   6.740 -0.4787  0.0643  0.1297
  712loPI   C2B11390  10.195  10.480   7.159  0.2538  0.1316 -0.2338
  712loPI   C3B11391  10.138  10.489   7.623  0.1220  0.0980  0.0827
  712loPI   C4B11392  10.149  10.562   8.003 -0.0915  0.3700 -0.1875
  713loPI    C111393  15.690  14.139   5.522  0.2802  0.1891  0.0534
  713loPI    C211394  15.711  14.384   5.207 -0.1684 -0.0857 -0.2005
  713loPI    C311395  15.943  14.058   5.223  0.1350  0.1331 -0.0556
  713loPI   PO411396  15.661  14.352   5.718 -0.1077 -0.1715  0.0444
  713loPI   GL111397  15.636  14.358   6.211 -0.1443  0.1312 -0.1050
  713loPI   GL211398  15.539  14.583   6.322 -0.1890 -0.1794 -0.1295
  713loPI   C1A11399  15.452  14.248   6.677 -0.1608 -0.0622 -0.0580
  713loPI   C2A11400  15.578  14.277   7.076 -0.0501  0.0570 -0.0103
  713loPI   C3A11401  15.488  14.232   7.415  0.2716 -0.3964  0.2221
  713loPI   C4A11402  15.498  14.179   7.890 -0.1759 -0.0041 -0.1154
  713loPI   C5A11403  15.498  14.300   8.334 -0.1957 -0.3250  0.0826
  713loPI   C6A11404  15.517  14.387   8.794  0.1607 -0.0279 -0.1357
  713loPI   C1B11405  15.457  14.779   6.762  0.2804 -0.0202 -0.0997
  713loPI   C2B11406  15.521  14.793   7.151  0.0915 -0.0193  0.1310
  713loPI   C3B11407  15.477  14.697   7.599 -0.1350 -0.2229 -0.0361
  713loPI   C4B11408  15.418  14.715   8.025  0.1064  0.1961  0.0713
  714loPI    C111409   3.106   2.202   5.562 -0.1125 -0.5088  0.0345
  714loPI    C211410   3.205   2.041   5.209  0.0417 -0.2357 -0.0499
  714loPI    C311411   3.442   2.316   5.377 -0.2641 -0.0246  0.0440
  714loPI   PO411412   2.990   2.060   5.775 -0.1808  0.1763  0.0309
  714loPI   GL111413   3.105   2.057   6.195  0.2872 -0.1830  0.1915
  714loPI   GL211414   3.380   2.066   6.327 -0.1027 -0.1148  0.1244
  714loPI   C1A11415   2.903   1.819   6.525  0.0191  0.2084 -0.1326
  714loPI   C2A11416   2.829   1.739   6.957  0.0083  0.0275 -0.0791
  714loPI   C3A11417   2.862   1.781   7.388 -0.1114  0.1877  0.2462
  714loPI   C4A11418   2.784   1.793   7.806  0.3986 -0.0325 -0.0360
  714loPI   C5A11419   2.786   1.735   8.271 -0.0114 -0.2088 -0.0108
  714loPI   C6A11420   2.549   1.684   8.782 -0.2575 -0.2321 -0.0933
  714loPI   C1B11421   3.316   2.075   6.774 -0.1281  0.1411  0.1091
  714loPI   C2B11422   3.220   2.119   7.201 -0.0090  0.1789 -0.0531
  714loPI   C3B11423   3.191   2.179   7.671  0.2810  0.1549  0.0518
  714loPI   C4B11424   3.164   2.056   8.067 -0.0642 -0.0358  0.0131
  715loPI    C111425   9.923   3.102   4.930 -0.0531  0.1130  0.1771
  715loPI    C211426   9.912   3.249   4.558 -0.1399 -0.0658  0.1077
  715loPI    C311427  10.188   2.977   4.658 -0.1997 -0.1162  0.1366
  715loPI   PO411428   9.929   3.266   5.130  0.0744 -0.0132  0.1383
  715loPI   GL111429   9.799   3.649   5.448  0.0264 -0.1363 -0.0013
  715loPI   GL211430   9.491   3.733   5.606 -0.0129  0.2178 -0.0446
  715loPI   C1A11431   9.767   3.401   5.861 -0.1976 -0.0998 -0.1074
  715loPI   C2A11432   9.916   3.422   6.346 -0.0053  0.1798  0.1965
  715loPI   C3A11433   9.856   3.451   6.728  0.0623  0.0089 -0.0626
  715loPI   C4A11434   9.802   3.413   7.206  0.0323 -0.2313  0.1444
  715loPI   C5A11435   9.968   3.475   7.626 -0.1403 -0.0564  0.1965
  715loPI   C6A11436   9.884   3.331   7.952 -0.1343  0.0429  0.1243
  715loPI   C1B11437   9.390   3.640   6.095  0.1779  0.1276 -0.0308
  715loPI   C2B11438   9.358   3.597   6.522 -0.0269  0.0184 -0.0524
  715loPI   C3B11439   9.346   3.608   6.979 -0.1868 -0.0615  0.1282
  715loPI   C4B11440   9.284   3.578   7.382 -0.1297 -0.2159 -0.2509
  716loPI    C111441  16.998  15.300   5.783 -0.0716 -0.0591 -0.1481
  716loPI    C211442  17.156  15.271   5.416  0.1170  0.2270 -0.0923
  716loPI    C311443  16.892  15.561   5.498  0.0565  0.1485 -0.0082
  716loPI   PO411444  17.146  15.374   5.942 -0.1527 -0.1616 -0.0323
  716loPI   GL111445  17.159  15.340   6.364 -0.1012 -0.0916 -0.1732
  716loPI   GL211446  17.153  15.666   6.395  0.1439 -0.0886 -0.0370
  716loPI   C1A11447  17.102  15.150   6.749 -0.0243  0.3433 -0.0917
  716loPI   C2A11448  17.235  15.035   7.093 -0.1903  0.0152  0.4255
  716loPI   C3A11449  17.262  15.007   7.555  0.1212 -0.2369 -0.0740
  716loPI   C4A11450  17.238  15.049   7.932  0.0877 -0.4653 -0.0484
  716loPI   C5A11451  17.362  15.200   8.323  0.2145  0.0980 -0.5346
  716loPI   C6A11452  17.235  15.635   8.496 -0.0844  0.0297 -0.3307
  716loPI   C1B11453  17.122  15.693   6.735  0.2443  0.0085  0.1281
  716loPI   C2B11454  17.095  15.534   7.156  0.2599 -0.2108  0.0182
  716loPI   C3B11455  17.196  15.470   7.559 -0.0374 -0.1257  0.0912
  716loPI   C4B11456  17.110  15.523   8.020  0.0716 -0.0053  0.1818
  717loPI    C111457  15.981   2.816   5.364 -0.0169 -0.1108 -0.0527
  717loPI    C211458  15.813   3.105   5.145  0.1148  0.1714  0.2116
  717loPI    C311459  16.052   2.835   4.971 -0.1531  0.1082 -0.0682
  717loPI   PO411460  16.080   2.875   5.540 -0.0770  0.0143  0.2737
  717loPI   GL111461  16.099   2.873   5.900 -0.1004  0.4119  0.1301
  717loPI   GL211462  16.059   2.577   6.058 -0.0245 -0.0099  0.0553
  717loPI   C1A11463  15.873   3.030   6.226  0.1495  0.1722 -0.4182
  717loPI   C2A11464  15.826   3.075   6.698  0.1063 -0.1288 -0.0722
  717loPI   C3A11465  15.848   3.053   7.046 -0.0073 -0.0811 -0.1006
  717loPI   C4A11466  15.837   3.109   7.459  0.1747 -0.1460  0.0792
  717loPI   C5A11467  15.764   3.168   7.942 -0.0401  0.1093  0.0595
  717loPI   C6A11468  16.083   3.304   8.309  0.2244  0.0373  0.5591
  717loPI   C1B11469  15.943   2.588   6.544 -0.0313  0.1461  0.0609
  717loPI   C2B11470  15.901   2.542   7.032 -0.0621  0.0346  0.0502
  717loPI   C3B11471  15.904   2.614   7.457  0.2252  0.3160  0.2350
  717loPI   C4B11472  15.860   2.648   7.897  0.0479  0.0830  0.0346
  718loPI    C111473  14.381   0.534   5.354 -0.0460  0.1188  0.0543
  718loPI    C211474  14.320   0.177   5.184  0.1771  0.0956  0.0192
  718loPI    C311475  14.301   0.510   4.963 -0.5704  0.1596  0.1517
  718loPI   PO411476  14.546   0.466   5.507  0.0107  0.5004 -0.1507
  718loPI   GL111477  14.535   0.273   5.899  0.1862  0.2697  0.2860
  718loPI   GL211478  14.743   0.580   6.059 -0.0821 -0.1372 -0.0735
  718loPI   C1A11479  14.448   0.272   6.290  0.0281 -0.0825 -0.1972
  718loPI   C2A11480  14.476   0.257   6.794 -0.0198  0.1355 -0.0137
  718loPI   C3A11481  14.547   0.243   7.177  0.1981  0.0256  0.0392
  718loPI   C4A11482  14.402   0.314   7.605 -0.1313 -0.1876  0.2502
  718loPI   C5A11483  14.628   0.302   8.004 -0.1338 -0.2780  0.0481
  718loPI   C6A11484  14.911   0.355   8.362 -0.2565 -0.0003  0.1580
  718loPI   C1B11485  14.839   0.663   6.406 -0.1956 -0.0205  0.1737
  718loPI   C2B11486  14.826   0.628   6.912 -0.3152 -0.2241  0.0906
  718loPI   C3B11487  14.809   0.595   7.333  0.2000 -0.2636 -0.3464
  718loPI   C4B11488  14.932   0.594   7.710  0.0157  0.2968 -0.0888
  719loPI    C111489   3.445  12.858   5.475  0.0404 -0.2641  0.1117
  719loPI    C211490   3.110  12.983   5.297 -0.0402 -0.0575  0.4015
  719loPI    C311491   3.464  13.047   5.123 -0.1328 -0.0636  0.2079
  719loPI   PO411492   3.421  12.921   5.756  0.0431  0.1033 -0.0497
  719loPI   GL111493   3.313  12.649   6.111  0.1546 -0.1807  0.0910
  719loPI   GL211494   3.139  12.855   6.325  0.0332  0.1579  0.1525
  719loPI   C1A11495   3.478  12.617   6.549  0.1267 -0.1185 -0.0089
  719loPI   C2A11496   3.508  12.684   7.009 -0.2952  0.5657  0.2306
  719loPI   C3A11497   3.521  12.548   7.335  0.0173  0.4355 -0.0707
  719loPI   C4A11498   3.440  12.550   7.779  0.1287 -0.1121 -0.2479
  719loPI   C5A11499   3.513  12.437   8.154  0.1794  0.0422 -0.0927
  719loPI   C6A11500   3.408  12.325   8.451 -0.1884 -0.0807 -0.1349
  719loPI   C1B11501   3.018  12.812   6.774  0.1384 -0.0401 -0.1209
  719loPI   C2B11502   3.054  12.713   7.276  0.0346  0.0816 -0.1634
  719loPI   C3B11503   2.987  12.651   7.688 -0.1037  0.0150 -0.2564
  719loPI   C4B11504   3.057  12.695   8.167 -0.0048  0.1015 -0.0021
  720loPI    C111505  11.122  16.111   5.265  0.0568 -0.1670  0.0573
  720loPI    C211506  11.303  16.107   4.909  0.0247 -0.1622  0.0409
  720loPI    C311507  10.987  16.344   4.970  0.1825  0.0238  0.1481
  720loPI   PO411508  11.319  16.099   5.398 -0.1445 -0.4025 -0.1063
  720loPI   GL111509  11.411  16.019   5.873 -0.1181 -0.1129 -0.4149
  720loPI   GL211510  11.496  16.286   6.125 -0.3579  0.1729  0.0138
  720loPI   C1A11511  11.544  15.770   6.247 -0.1438  0.1970  0.1583
  720loPI   C2A11512  11.572  15.694   6.737  0.1066  0.1250  0.0640
  720loPI   C3A11513  11.699  15.586   7.119  0.0743 -0.0163  0.0317
  720loPI   C4A11514  11.540  15.676   7.475  0.1929  0.0511  0.2615
  720loPI   C5A11515  11.612  15.676   7.860  0.0259  0.0557 -0.1110
  720loPI   C6A11516  11.707  16.006   8.240  0.1836 -0.0119  0.0006
  720loPI   C1B11517  11.476  16.184   6.503 -0.0447  0.1765 -0.1000
  720loPI   C2B11518  11.519  16.140   6.995 -0.0205 -0.0265 -0.1651
  720loPI   C3B11519  11.398  16.286   7.372  0.1243  0.3171  0.0950
  720loPI   C4B11520  11.547  16.263   7.818 -0.0792  0.1164  0.1143
  721loPI    C111521   2.481   5.167   5.407  0.2768 -0.0649  0.0028
  721loPI    C211522   2.749   4.986   5.171  0.2173  0.0496 -0.1544
  721loPI    C311523   2.410   5.130   5.015  0.1114 -0.0015  0.0261
  721loPI   PO411524   2.477   5.092   5.691  0.2835  0.3601 -0.2157
  721loPI   GL111525   2.586   5.190   6.143  0.2307 -0.0433 -0.3042
  721loPI   GL211526   2.737   4.961   6.191 -0.0222 -0.1610  0.1070
  721loPI   C1A11527   2.300   5.244   6.545  0.0944 -0.2558 -0.0276
  721loPI   C2A11528   2.275   5.383   6.851  0.1799  0.1598 -0.2400
  721loPI   C3A11529   2.276   5.311   7.296 -0.1955  0.1416 -0.0980
  721loPI   C4A11530   2.322   5.326   7.754  0.2343  0.1601 -0.1705
  721loPI   C5A11531   2.319   5.424   8.251  0.2094 -0.1029  0.3576
  721loPI   C6A11532   2.176   5.551   8.602  0.1166  0.0783 -0.1154
  721loPI   C1B11533   2.840   5.014   6.578  0.2327 -0.2365  0.1067
  721loPI   C2B11534   2.744   5.185   7.007  0.1111 -0.0282 -0.0711
  721loPI   C3B11535   2.707   5.074   7.478 -0.1913 -0.0619 -0.1014
  721loPI   C4B11536   2.757   5.136   7.885 -0.0578  0.1472 -0.0099
  722loPI    C111537   5.585  15.253   5.581  0.0932  0.1934 -0.1449
  722loPI    C211538   5.252  15.472   5.555  0.1187  0.2279 -0.1799
  722loPI    C311539   5.377  15.259   5.240 -0.0086  0.0138 -0.0877
  722loPI   PO411540   5.589  15.140   5.794  0.3383  0.1562  0.1833
  722loPI   GL111541   5.672  15.158   6.152  0.3691  0.0582  0.1956
  722loPI   GL211542   5.425  15.164   6.390 -0.1340  0.1751  0.2179
  722loPI   C1A11543   5.843  15.032   6.598 -0.0706  0.2889 -0.1760
  722loPI   C2A11544   5.885  15.051   7.046 -0.0043  0.4413 -0.1840
  722loPI   C3A11545   5.803  15.002   7.478 -0.2959 -0.1491 -0.6710
  722loPI   C4A11546   5.725  15.106   7.921 -0.0104  0.4858 -0.0481
  722loPI   C5A11547   5.525  15.094   8.341  0.1940  0.1904 -0.1413
  722loPI   C6A11548   5.291  15.008   8.641 -0.0642 -0.2747 -0.3556
  722loPI   C1B11549   5.391  15.245   6.744 -0.0956 -0.0233  0.0060
  722loPI   C2B11550   5.450  15.197   7.163 -0.3660 -0.1155 -0.1267
  722loPI   C3B11551   5.261  15.281   7.578 -0.1578 -0.1345  0.1590
  722loPI   C4B11552   5.293  15.433   8.036  0.1166 -0.0380  0.0921
  723loPI    C111553  16.275  12.840   5.500 -0.0664  0.0067 -0.0711
  723loPI    C211554  16.604  12.799   5.275 -0.0172  0.1445 -0.0258
  723loPI    C311555  16.244  12.716   5.121  0.0466 -0.1113 -0.0426
  723loPI   PO411556  16.354  12.837   5.700  0.0664  0.0456  0.1382
  723loPI   GL111557  16.462  12.771   6.064  0.1482 -0.1031  0.1701
  723loPI   GL211558  16.455  12.527   6.246 -0.1353  0.0640 -0.0358
  723loPI   C1A11559  16.775  12.933   6.492 -0.2644  0.3087 -0.0178
  723loPI   C2A11560  16.691  12.920   6.937 -0.0469  0.0247  0.2152
  723loPI   C3A11561  16.630  12.894   7.496 -0.1711  0.3145  0.1606
  723loPI   C4A11562  16.657  12.916   8.001 -0.0341 -0.0249 -0.2600
  723loPI   C5A11563  16.677  12.970   8.442  0.1356 -0.0558  0.0519
  723loPI   C6A11564  16.512  12.706   8.788 -0.2991  0.0840 -0.2170
  723loPI   C1B11565  16.299  12.620   6.712  0.0154  0.2832 -0.1454
  723loPI   C2B11566  16.279  12.625   7.132  0.0317  0.2047  0.2825
  723loPI   C3B11567  16.309  12.491   7.554 -0.0267  0.1692  0.0430
  723loPI   C4B11568  16.263  12.535   7.954  0.0623  0.1624 -0.2208
  724loPI    C111569  10.579   6.816   5.585  0.1813 -0.2532 -0.0204
  724loPI    C211570  10.216   6.872   5.426  0.1184 -0.2673  0.1169
  724loPI    C311571  10.515   6.735   5.198  0.0807 -0.0971 -0.0372
  724loPI   PO411572  10.460   6.783   5.823 -0.2361 -0.0248 -0.1458
  724loPI   GL111573  10.446   6.575   6.219 -0.0767  0.1840 -0.0900
  724loPI   GL211574  10.810   6.590   6.389 -0.0854  0.3825  0.2466
  724loPI   C1A11575  10.304   6.616   6.645  0.2150 -0.0482 -0.1080
  724loPI   C2A11576  10.380   6.545   7.065  0.0793  0.1084 -0.3533
  724loPI   C3A11577  10.308   6.597   7.370 -0.3512 -0.1658  0.1542
  724loPI   C4A11578  10.264   6.632   7.846 -0.0561 -0.2431 -0.0937
  724loPI   C5A11579  10.605   6.760   8.177  0.3068 -0.1541  0.0811
  724loPI   C6A11580  10.838   6.538   8.452 -0.2555  0.0884 -0.2090
  724loPI   C1B11581  10.798   6.415   6.719 -0.1195  0.2400  0.3520
  724loPI   C2B11582  10.872   6.375   7.087 -0.0160  0.0069  0.0983
  724loPI   C3B11583  10.762   6.382   7.531  0.4139 -0.1462  0.0963
  724loPI   C4B11584  10.753   6.377   7.887 -0.0665 -0.3027  0.0030
  725loPI    C111585  16.602  16.371   5.572  0.0382  0.2699  0.1028
  725loPI    C211586  16.922  16.552   5.415  0.1633  0.0107  0.0523
  725loPI    C311587  16.653  16.378   5.175  0.2576 -0.2241  0.1137
  725loPI   PO411588  16.749  16.228   5.851  0.4666  0.1122  0.1792
  725loPI   GL111589  16.874  16.148   6.329  0.2478 -0.2020 -0.0934
  725loPI   GL211590  17.231  16.178   6.399 -0.1231 -0.1178  0.1302
  725loPI   C1A11591  16.598  15.885   6.656  0.4348  0.4476  0.0898
  725loPI   C2A11592  16.599  15.715   6.992  0.1991 -0.0631 -0.0175
  725loPI   C3A11593  16.674  15.742   7.399  0.0339  0.1834 -0.3942
  725loPI   C4A11594  16.548  15.669   7.661  0.2347  0.1524  0.0590
  725loPI   C5A11595  16.584  15.718   8.081  0.1464 -0.3411 -0.1895
  725loPI   C6A11596  16.736  15.769   8.420  0.0344 -0.0839  0.0081
  725loPI   C1B11597  17.020  16.175   6.875 -0.1401  0.0728 -0.3008
  725loPI   C2B11598  17.033  16.114   7.214 -0.1682 -0.1737 -0.0060
  725loPI   C3B11599  17.083  15.958   7.661 -0.2849  0.2048 -0.0703
  725loPI   C4B11600  17.093  16.004   8.158  0.0347 -0.0239 -0.1102
  726loPI    C111601   8.330   3.648   5.375  0.0609 -0.0073  0.2109
  726loPI    C211602   8.340   3.649   4.975  0.1103  0.1453  0.2119
  726loPI    C311603   8.593   3.418   5.181 -0.0301 -0.0631  0.1534
  726loPI   PO411604   8.459   3.832   5.559  0.1574  0.3221 -0.0170
  726loPI   GL111605   8.630   3.927   5.881 -0.2737 -0.2691  0.1218
  726loPI   GL211606   8.934   3.814   5.981  0.1326 -0.4267 -0.1442
  726loPI   C1A11607   8.398   3.977   6.235 -0.1680 -0.1010  0.1566
  726loPI   C2A11608   8.310   3.940   6.688 -0.0547 -0.0572 -0.1042
  726loPI   C3A11609   8.322   3.974   7.191 -0.0152  0.1017  0.0293
  726loPI   C4A11610   8.356   3.995   7.608  0.0276 -0.0530  0.0296
  726loPI   C5A11611   8.429   3.937   7.960  0.1750 -0.1067  0.0627
  726loPI   C6A11612   8.616   3.723   8.229 -0.1359 -0.0924 -0.2601
  726loPI   C1B11613   8.851   3.804   6.451  0.2338 -0.2013  0.0581
  726loPI   C2B11614   8.831   3.848   6.856  0.1193  0.1725  0.1006
  726loPI   C3B11615   8.837   3.755   7.274 -0.0066  0.0852  0.0015
  726loPI   C4B11616   8.788   3.716   7.741 -0.0422  0.1051  0.2791
  727loPI    C111617   5.681   9.656   5.425  0.2725 -0.2780 -0.2226
  727loPI    C211618   5.547   9.957   5.199  0.2020 -0.1504 -0.0142
  727loPI    C311619   5.529   9.582   5.063 -0.3488 -0.1363 -0.0039
  727loPI   PO411620   5.562   9.652   5.626 -0.1056  0.1548 -0.0618
  727loPI   GL111621   5.626   9.586   6.091  0.1832 -0.2424 -0.0952
  727loPI   GL211622   5.310   9.493   6.192  0.0882 -0.3511 -0.0673
  727loPI   C1A11623   5.766   9.779   6.412  0.2487 -0.0465 -0.2512
  727loPI   C2A11624   5.753   9.812   6.823  0.1674 -0.0470  0.0333
  727loPI   C3A11625   5.711   9.780   7.294 -0.0092 -0.2116 -0.2056
  727loPI   C4A11626   5.603   9.783   7.627  0.1405 -0.2159 -0.0958
  727loPI   C5A11627   5.667   9.847   8.044 -0.1475 -0.3214 -0.1379
  727loPI   C6A11628   5.721   9.598   8.477 -0.2415 -0.2160 -0.1850
  727loPI   C1B11629   5.328   9.518   6.573  0.0741 -0.2218 -0.1005
  727loPI   C2B11630   5.284   9.438   7.014 -0.0593  0.2720 -0.3548
  727loPI   C3B11631   5.333   9.382   7.342 -0.0013 -0.1037 -0.0853
  727loPI   C4B11632   5.222   9.525   7.762 -0.1530  0.5147  0.2183
  728loPI    C111633  10.994   6.411   5.679  0.0156  0.0565 -0.0524
  728loPI    C211634  10.721   6.282   5.415 -0.0118  0.0510 -0.0213
  728loPI    C311635  11.024   6.514   5.293 -0.0111  0.0285 -0.0620
  728loPI   PO411636  10.855   6.376   5.906  0.1898 -0.2321 -0.0344
  728loPI   GL111637  10.789   6.068   6.244  0.0070  0.0326 -0.1259
  728loPI   GL211638  10.527   6.062   6.288  0.3070  0.0830  0.0698
  728loPI   C1A11639  10.978   5.977   6.615  0.0789 -0.0887  0.0139
  728loPI   C2A11640  10.902   5.884   6.991 -0.0384  0.3102  0.1455
  728loPI   C3A11641  10.940   5.898   7.365 -0.0257 -0.0656  0.1852
  728loPI   C4A11642  10.795   5.889   7.780 -0.2226 -0.1249 -0.2799
  728loPI   C5A11643  10.557   5.843   8.145  0.0389 -0.0439  0.1794
  728loPI   C6A11644  10.389   5.725   8.540 -0.2773  0.1754 -0.1140
  728loPI   C1B11645  10.452   5.996   6.653 -0.1089 -0.1061 -0.1881
  728loPI   C2B11646  10.318   5.962   6.986  0.1715  0.1370  0.0386
  728loPI   C3B11647  10.423   6.076   7.375 -0.0121 -0.0696  0.1999
  728loPI   C4B11648  10.305   6.139   7.795  0.2265 -0.1570  0.0801
  729loPI    C111649   4.144  11.517   5.445 -0.0061 -0.1261 -0.1423
  729loPI    C211650   4.320  11.731   5.157 -0.0361 -0.0089 -0.0744
  729loPI    C311651   4.040  11.462   5.063 -0.0305  0.0136 -0.1564
  729loPI   PO411652   4.088  11.685   5.686 -0.0057 -0.1665  0.1437
  729loPI   GL111653   4.088  11.558   6.106 -0.1100 -0.1564  0.1634
  729loPI   GL211654   4.116  11.374   6.239 -0.1697  0.2114  0.1226
  729loPI   C1A11655   4.415  11.731   6.409  0.1971 -0.1884 -0.1945
  729loPI   C2A11656   4.534  11.696   6.861  0.0006 -0.1978  0.0390
  729loPI   C3A11657   4.577  11.755   7.230  0.0111  0.0034 -0.1237
  729loPI   C4A11658   4.506  11.618   7.629  0.3735  0.1220 -0.1803
  729loPI   C5A11659   4.548  11.586   8.087 -0.0110  0.0877 -0.2840
  729loPI   C6A11660   4.252  11.583   8.398 -0.0421 -0.0873  0.4142
  729loPI   C1B11661   4.183  11.426   6.728 -0.0465  0.1672  0.3286
  729loPI   C2B11662   4.147  11.473   7.228  0.0167 -0.1405  0.0486
  729loPI   C3B11663   4.053  11.286   7.652 -0.0016 -0.0049 -0.2842
  729loPI   C4B11664   3.974  11.181   8.103  0.0146 -0.0027  0.2241
  730loPI    C111665   5.495  16.680   5.708  0.1968 -0.0179 -0.1050
  730loPI    C211666   5.269  16.907   5.948 -0.0112 -0.2820 -0.0457
  730loPI    C311667   5.303  16.998   5.559  0.1784  0.0403  0.0422
  730loPI   PO411668   5.734  16.677   5.844 -0.1556 -0.1036  0.2825
  730loPI   GL111669   5.833  16.379   6.130  0.1295 -0.1810 -0.0708
  730loPI   GL211670   5.681  16.128   6.164 -0.1458  0.0882 -0.0833
  730loPI   C1A11671   6.020  16.401   6.489  0.1877 -0.2032  0.2521
  730loPI   C2A11672   6.077  16.382   6.972  0.2722  0.1490  0.1549
  730loPI   C3A11673   6.092  16.374   7.391  0.2943  0.0236 -0.0473
  730loPI   C4A11674   6.097  16.431   7.775  0.1281 -0.1603  0.0031
  730loPI   C5A11675   6.073  16.496   8.177  0.0599  0.0812  0.2157
  730loPI   C6A11676   5.798  16.278   8.540 -0.0997  0.0201 -0.1748
  730loPI   C1B11677   5.679  16.094   6.683  0.2381  0.0088 -0.0747
  730loPI   C2B11678   5.648  16.060   7.239  0.2003  0.1494 -0.1458
  730loPI   C3B11679   5.593  16.103   7.680 -0.0500 -0.0730  0.2346
  730loPI   C4B11680   5.686  16.098   8.061  0.1905  0.0512 -0.1604
  731loPI    C111681   2.842   4.176   5.707 -0.3154 -0.0546 -0.1255
  731loPI    C211682   3.056   3.902   5.510 -0.2165  0.0202 -0.1229
  731loPI    C311683   3.235   4.230   5.654 -0.2441 -0.1359  0.2817
  731loPI   PO411684   2.710   4.029   5.921  0.2676 -0.0220 -0.1996
  731loPI   GL111685   2.425   4.198   6.205  0.1203 -0.0662  0.0187
  731loPI   GL211686   2.089   4.112   6.399 -0.3219 -0.1912 -0.1886
  731loPI   C1A11687   2.401   4.289   6.705 -0.1593 -0.3333 -0.1397
  731loPI   C2A11688   2.439   4.276   7.102 -0.0027 -0.1480  0.1131
  731loPI   C3A11689   2.407   4.231   7.591  0.2114  0.1316 -0.0269
  731loPI   C4A11690   2.407   4.285   8.091 -0.2719  0.2016  0.1148
  731loPI   C5A11691   2.381   3.966   8.391 -0.0079  0.1105 -0.0771
  731loPI   C6A11692   2.523   3.740   8.668 -0.2918 -0.0615  0.1732
  731loPI   C1B11693   2.011   4.026   6.863  0.1336 -0.0924  0.3584
  731loPI   C2B11694   2.013   4.053   7.330 -0.2679 -0.2717  0.1719
  731loPI   C3B11695   1.952   3.965   7.748 -0.2995  0.1083 -0.1206
  731loPI   C4B11696   1.914   4.041   8.156  0.1162 -0.1206  0.1286
  732loPI    C111697  -0.061   4.592   5.469 -0.1297  0.1286  0.1042
  732loPI    C211698   0.072   4.948   5.344 -0.2750  0.2599  0.3159
  732loPI    C311699   0.030   4.647   5.083 -0.0587  0.3674  0.1533
  732loPI   PO411700   0.133   4.466   5.686  0.2311  0.1794  0.3317
  732loPI   GL111701   0.239   4.509   6.138  0.3016 -0.4468  0.0424
  732loPI   GL211702  -0.058   4.530   6.214  0.0141 -0.0865 -0.1757
  732loPI   C1A11703   0.200   4.178   6.606  0.0532 -0.1005 -0.3222
  732loPI   C2A11704   0.129   4.203   7.025  0.1027 -0.4339  0.0555
  732loPI   C3A11705   0.144   4.215   7.425  0.3580  0.0081  0.0357
  732loPI   C4A11706   0.172   4.254   7.837  0.1145 -0.2129  0.1209
  732loPI   C5A11707   0.125   4.388   8.286  0.2641  0.2939 -0.4509
  732loPI   C6A11708  -0.036   4.316   8.712  0.0700  0.0532 -0.0783
  732loPI   C1B11709   0.083   4.703   6.674 -0.1859  0.0422  0.2182
  732loPI   C2B11710   0.104   4.686   7.111 -0.0601  0.0109  0.2252
  732loPI   C3B11711   0.145   4.694   7.556  0.2383  0.0226 -0.1719
  732loPI   C4B11712   0.073   4.774   7.996 -0.2987  0.0659  0.2102
  733loPI    C111713   4.232  13.715   5.428 -0.1534 -0.0898  0.0656
  733loPI    C211714   4.140  13.471   5.125  0.1877 -0.0664 -0.0608
  733loPI    C311715   3.951  13.821   5.164 -0.1113 -0.2278 -0.0356
  733loPI   PO411716   4.162  13.558   5.675 -0.1470  0.1820  0.1753
  733loPI   GL111717   4.254  13.512   6.014 -0.0989  0.0477 -0.2217
  733loPI   GL211718   4.352  13.304   6.253 -0.0543  0.2699 -0.0342
  733loPI   C1A11719   4.333  13.812   6.433  0.2347  0.1465  0.0138
  733loPI   C2A11720   4.331  13.866   6.874  0.1422  0.1118 -0.1825
  733loPI   C3A11721   4.207  13.791   7.219  0.2093 -0.0747 -0.1437
  733loPI   C4A11722   4.219  13.712   7.666 -0.0575  0.2487 -0.2068
  733loPI   C5A11723   4.165  13.745   8.110  0.0044 -0.0596 -0.0846
  733loPI   C6A11724   4.250  13.745   8.544  0.2483  0.1386 -0.0103
  733loPI   C1B11725   4.339  13.341   6.650 -0.0721  0.0132 -0.1632
  733loPI   C2B11726   4.301  13.279   7.074 -0.1514 -0.1581  0.1951
  733loPI   C3B11727   4.237  13.225   7.479  0.0400  0.0577 -0.0034
  733loPI   C4B11728   4.243  13.252   7.938  0.0951  0.1284  0.0692
  734loPI    C111729  13.370  15.838   5.429  0.2351 -0.0529  0.0492
  734loPI    C211730  13.432  15.457   5.325  0.1467 -0.1680  0.4056
  734loPI    C311731  13.647  15.748   5.155 -0.0658 -0.3340 -0.1711
  734loPI   PO411732  13.381  15.751   5.715  0.2760  0.0037  0.0605
  734loPI   GL111733  13.286  15.796   6.058 -0.5098 -0.1880  0.2398
  734loPI   GL211734  13.255  15.568   6.209  0.1046 -0.3484  0.1325
  734loPI   C1A11735  13.387  15.975   6.494 -0.1859 -0.0693 -0.1748
  734loPI   C2A11736  13.419  15.954   6.865  0.1010 -0.1976  0.0712
  734loPI   C3A11737  13.322  16.017   7.279 -0.0757 -0.1381  0.2339
  734loPI   C4A11738  13.437  16.003   7.700 -0.0055  0.3184  0.3559
  734loPI   C5A11739  13.513  15.916   8.108 -0.1566 -0.2861  0.1375
  734loPI   C6A11740  13.542  15.593   8.435  0.2468  0.0789  0.0380
  734loPI   C1B11741  13.390  15.412   6.689 -0.0038  0.2318  0.4479
  734loPI   C2B11742  13.355  15.460   7.051  0.0331 -0.1124 -0.0945
  734loPI   C3B11743  13.484  15.384   7.427 -0.1614 -0.0106  0.0288
  734loPI   C4B11744  13.543  15.509   7.833 -0.0140  0.1141  0.0835
  735loPI    C111745  11.690  15.046   5.732 -0.0459  0.1837  0.0715
  735loPI    C211746  11.600  15.420   5.841 -0.0824  0.2216 -0.0871
  735loPI    C311747  11.536  15.300   5.465 -0.1004  0.0462 -0.0288
  735loPI   PO411748  11.824  14.910   5.959  0.1162  0.0090 -0.1239
  735loPI   GL111749  11.809  14.666   6.205  0.2787 -0.0947 -0.2466
  735loPI   GL211750  11.589  14.430   6.140  0.0372  0.1397 -0.1662
  735loPI   C1A11751  11.851  14.549   6.665 -0.3323 -0.0333  0.2354
  735loPI   C2A11752  11.861  14.682   7.123 -0.1233 -0.0736  0.3745
  735loPI   C3A11753  11.799  14.672   7.513  0.2342 -0.3133  0.3131
  735loPI   C4A11754  11.707  14.674   7.927  0.1307 -0.0778 -0.0979
  735loPI   C5A11755  11.532  14.736   8.368 -0.1473  0.4170 -0.1406
  735loPI   C6A11756  11.342  14.832   8.704  0.0030  0.1869  0.0026
  735loPI   C1B11757  11.409  14.392   6.507 -0.2932 -0.0397  0.1737
  735loPI   C2B11758  11.499  14.353   6.992  0.0901  0.0697  0.0771
  735loPI   C3B11759  11.380  14.444   7.327 -0.2407 -0.3969  0.1025
  735loPI   C4B11760  11.285  14.447   7.749 -0.0214  0.2323 -0.2892
  736loPI    C111761  11.128   3.467   5.116 -0.2751  0.0023  0.1792
  736loPI    C211762  11.041   3.856   5.141  0.1674  0.1159  0.0323
  736loPI    C311763  11.291   3.725   4.858  0.0432 -0.2740  0.0974
  736loPI   PO411764  11.180   3.472   5.433  0.0225  0.0198 -0.0525
  736loPI   GL111765  11.346   3.443   5.897 -0.0768  0.0403  0.2625
  736loPI   GL211766  11.581   3.599   6.097  0.1016  0.0149  0.1570
  736loPI   C1A11767  11.207   3.337   6.264  0.2901  0.2141 -0.0695
  736loPI   C2A11768  11.169   3.398   6.625 -0.2401  0.1920 -0.0955
  736loPI   C3A11769  11.160   3.345   7.016 -0.3385  0.3336  0.4091
  736loPI   C4A11770  11.289   3.328   7.379 -0.1427  0.0904 -0.0404
  736loPI   C5A11771  11.262   3.410   7.764 -0.0257 -0.1938  0.0445
  736loPI   C6A11772  11.069   3.260   8.127  0.2944 -0.1135 -0.2851
  736loPI   C1B11773  11.595   3.652   6.557 -0.0501 -0.0802 -0.0279
  736loPI   C2B11774  11.632   3.653   6.997 -0.2159  0.4819 -0.0441
  736loPI   C3B11775  11.713   3.634   7.361 -0.0371 -0.0581 -0.0525
  736loPI   C4B11776  11.624   3.708   7.659 -0.0182  0.0584  0.1331
  737loPI    C111777  10.575   9.119   5.276 -0.1780  0.0683  0.2252
  737loPI    C211778  10.233   8.956   5.149 -0.1136 -0.1056  0.2727
  737loPI    C311779  10.326   9.331   5.045 -0.0614 -0.2417 -0.1956
  737loPI   PO411780  10.617   9.066   5.491  0.1820  0.0185 -0.1154
  737loPI   GL111781  10.673   9.119   5.975  0.0997 -0.0698 -0.0760
  737loPI   GL211782  10.941   9.225   6.145  0.3591 -0.1944  0.3156
  737loPI   C1A11783  10.498   9.040   6.397  0.1010  0.2024 -0.0748
  737loPI   C2A11784  10.458   8.990   6.852 -0.0811  0.2918 -0.0306
  737loPI   C3A11785  10.448   9.011   7.260 -0.2049 -0.3794  0.1036
  737loPI   C4A11786  10.401   8.946   7.714  0.0054 -0.1133  0.2814
  737loPI   C5A11787  10.466   8.871   8.107 -0.0231 -0.1065 -0.2088
  737loPI   C6A11788  10.461   8.801   8.623 -0.0462  0.1989 -0.3027
  737loPI   C1B11789  10.933   9.396   6.602  0.1419 -0.0373  0.0634
  737loPI   C2B11790  10.852   9.280   7.055 -0.0934  0.1671  0.1281
  737loPI   C3B11791  10.813   9.242   7.583 -0.1413 -0.1003  0.0501
  737loPI   C4B11792  10.772   9.305   8.000 -0.1974  0.0577 -0.0253
  738loPI    C111793  17.013   8.646   5.855  0.0905 -0.1007 -0.0678
  738loPI    C211794  16.748   8.404   5.678  0.2180 -0.1823 -0.1484
  738loPI    C311795  16.750   8.795   5.593 -0.1776 -0.0984  0.1973
  738loPI   PO411796  16.979   8.648   6.086  0.2028  0.1655 -0.1210
  738loPI   GL111797  16.877   8.746   6.445  0.2450  0.3183  0.0768
  738loPI   GL211798  16.905   8.470   6.579  0.1199  0.4230 -0.0587
  738loPI   C1A11799  16.763   9.027   6.766 -0.0832 -0.0591  0.0940
  738loPI   C2A11800  16.706   9.059   7.215  0.1229  0.1737  0.1847
  738loPI   C3A11801  16.744   9.029   7.613 -0.2013  0.0001  0.2369
  738loPI   C4A11802  16.612   9.081   8.009  0.0774 -0.2633  0.4062
  738loPI   C5A11803  16.865   9.069   8.372  0.0525  0.1937 -0.1046
  738loPI   C6A11804  16.735   8.930   8.792 -0.0748  0.3166  0.0192
  738loPI   C1B11805  16.896   8.442   7.013  0.2124 -0.1417 -0.1415
  738loPI   C2B11806  16.779   8.490   7.457 -0.0137 -0.1815  0.0143
  738loPI   C3B11807  16.724   8.564   7.809 -0.0831  0.4050 -0.4928
  738loPI   C4B11808  16.691   8.601   8.321  0.1862 -0.0438  0.0765
  739loPI    C111809  11.904   5.550   5.504 -0.1737  0.0648  0.0234
  739loPI    C211810  12.031   5.178   5.578 -0.0983  0.1010  0.0776
  739loPI    C311811  12.250   5.422   5.349 -0.1262  0.1264  0.0782
  739loPI   PO411812  11.844   5.625   5.737 -0.0264 -0.1755  0.0246
  739loPI   GL111813  11.915   5.821   6.114  0.4442 -0.0295  0.1467
  739loPI   GL211814  11.814   6.146   6.293 -0.4012  0.0915 -0.0916
  739loPI   C1A11815  11.936   5.606   6.494 -0.1828 -0.0485  0.0223
  739loPI   C2A11816  11.855   5.567   6.961 -0.0858 -0.2256 -0.1686
  739loPI   C3A11817  11.869   5.524   7.370 -0.1959  0.2560 -0.0944
  739loPI   C4A11818  11.895   5.536   7.830  0.0853 -0.1382  0.1781
  739loPI   C5A11819  11.613   5.445   8.190 -0.0784  0.0015 -0.0354
  739loPI   C6A11820  11.380   5.452   8.548 -0.2630  0.1430 -0.0852
  739loPI   C1B11821  11.786   6.012   6.710 -0.0312 -0.1652 -0.0368
  739loPI   C2B11822  11.724   6.038   7.124 -0.2958  0.0349  0.0006
  739loPI   C3B11823  11.779   6.052   7.551  0.2360  0.2529  0.2515
  739loPI   C4B11824  11.686   6.026   7.957  0.0757  0.0303  0.0739
  740loPI    C111825  17.221   2.017   5.540  0.1716  0.2564 -0.1951
  740loPI    C211826  17.237   2.291   5.250 -0.0656  0.1473 -0.3137
  740loPI    C311827  17.288   1.904   5.162  0.3299  0.1546 -0.1383
  740loPI   PO411828  17.379   2.080   5.783  0.0187  0.5766  0.0508
  740loPI   GL111829  17.618   1.999   6.189 -0.0550  0.1402 -0.0553
  740loPI   GL211830  17.901   1.737   6.354  0.3362 -0.0631  0.2527
  740loPI   C1A11831  17.432   1.986   6.550  0.1956 -0.1026 -0.0436
  740loPI   C2A11832  17.331   2.002   6.970  0.2064 -0.1729  0.1448
  740loPI   C3A11833  17.321   1.974   7.395  0.1701  0.1024 -0.0145
  740loPI   C4A11834  17.318   2.076   7.831 -0.0387  0.0529  0.0457
  740loPI   C5A11835  17.322   2.015   8.305  0.0646  0.2172 -0.1030
  740loPI   C6A11836  17.244   1.936   8.779 -0.0160 -0.0691 -0.3082
  740loPI   C1B11837  17.889   1.794   6.776  0.2194 -0.3628  0.0931
  740loPI   C2B11838  17.800   1.878   7.179 -0.0422 -0.1413  0.3333
  740loPI   C3B11839  17.797   1.939   7.583 -0.0874 -0.1386  0.0519
  740loPI   C4B11840  17.798   1.913   8.059  0.2175  0.1769 -0.4745
  741loPI    C111841  16.957  17.339   5.645  0.1127 -0.0067  0.0373
  741loPI    C211842  16.954  17.087   5.335 -0.1112  0.0547 -0.0121
  741loPI    C311843  17.238  17.368   5.361 -0.0718  0.0280 -0.1435
  741loPI   PO411844  16.686  17.384   5.668 -0.0274 -0.3762  0.0149
  741loPI   GL111845  16.490  17.342   5.982 -0.1453 -0.0649  0.1141
  741loPI   GL211846  16.470  17.003   6.177  0.0074  0.1763 -0.1995
  741loPI   C1A11847  16.409  17.382   6.447  0.0827  0.3348 -0.0889
  741loPI   C2A11848  16.338  17.271   6.807 -0.1213 -0.0035  0.0689
  741loPI   C3A11849  16.379  17.303   7.248  0.0243  0.3107 -0.1059
  741loPI   C4A11850  16.451  17.182   7.780 -0.0196  0.2117  0.0309
  741loPI   C5A11851  16.302  17.281   8.207 -0.1023  0.0313 -0.0452
  741loPI   C6A11852  16.138  17.345   8.567 -0.0932  0.0861  0.0645
  741loPI   C1B11853  16.455  16.822   6.632 -0.0175 -0.2445  0.0886
  741loPI   C2B11854  16.488  16.749   7.079  0.0532  0.2063 -0.3782
  741loPI   C3B11855  16.491  16.736   7.393  0.2611  0.0946 -0.2923
  741loPI   C4B11856  16.553  16.627   7.804  0.0698 -0.1482 -0.1597
  742loPI    C111857   3.848   8.890   5.512 -0.0896  0.0901  0.0209
  742loPI    C211858   3.585   8.639   5.346  0.1021 -0.1907  0.1339
  742loPI    C311859   3.839   8.843   5.115 -0.1420  0.0035  0.0321
  742loPI   PO411860   3.978   8.767   5.684 -0.4188  0.2207 -0.1980
  742loPI   GL111861   3.962   8.696   6.071 -0.1116 -0.0637 -0.2721
  742loPI   GL211862   3.910   8.954   6.232  0.1355 -0.0916  0.1844
  742loPI   C1A11863   4.111   8.607   6.502 -0.1275 -0.1040  0.2557
  742loPI   C2A11864   4.095   8.494   6.872 -0.1509  0.0843  0.0648
  742loPI   C3A11865   4.019   8.495   7.351 -0.0088  0.0086  0.0994
  742loPI   C4A11866   3.976   8.470   7.773 -0.1609 -0.0011 -0.2361
  742loPI   C5A11867   4.043   8.355   8.212 -0.1749 -0.1289  0.1025
  742loPI   C6A11868   3.904   8.330   8.611 -0.0479 -0.0384  0.5531
  742loPI   C1B11869   3.978   9.042   6.625 -0.1520 -0.0738  0.0047
  742loPI   C2B11870   4.064   8.971   7.001  0.1519  0.0868  0.0053
  742loPI   C3B11871   3.955   9.012   7.405 -0.0158 -0.1697 -0.1013
  742loPI   C4B11872   3.876   9.001   7.697 -0.0044 -0.2118  0.1884
  743loPI    C111873   4.364  10.253   5.368  0.1094  0.0360  0.0299
  743loPI    C211874   4.719  10.423   5.295  0.2084 -0.1549  0.0586
  743loPI    C311875   4.395  10.536   5.088  0.2662  0.0869  0.0974
  743loPI   PO411876   4.250  10.286   5.628 -0.0152 -0.0112 -0.3229
  743loPI   GL111877   4.232  10.048   5.985  0.1379  0.0413  0.0773
  743loPI   GL211878   3.938  10.189   6.002 -0.1796 -0.1179  0.0862
  743loPI   C1A11879   4.328   9.960   6.463 -0.1171 -0.0363 -0.2424
  743loPI   C2A11880   4.362   9.817   6.879  0.0442  0.0742  0.0668
  743loPI   C3A11881   4.309   9.848   7.351 -0.0029  0.0409  0.0720
  743loPI   C4A11882   4.259   9.793   7.808 -0.2401 -0.2339 -0.0809
  743loPI   C5A11883   4.290   9.815   8.206  0.0832  0.0455  0.0884
  743loPI   C6A11884   4.425  10.107   8.396  0.0351 -0.1108  0.1356
  743loPI   C1B11885   3.873  10.045   6.366  0.1725  0.3208  0.1257
  743loPI   C2B11886   3.865  10.104   6.813 -0.0222 -0.5609 -0.0088
  743loPI   C3B11887   3.875  10.057   7.241 -0.0217 -0.2015 -0.1080
  743loPI   C4B11888   3.757   9.952   7.680  0.3606  0.1984 -0.3961
  744loPI    C111889  12.858   2.401   5.903 -0.0319 -0.0506  0.2046
  744loPI    C211890  12.962   2.092   5.672  0.3599  0.1462  0.1097
  744loPI    C311891  12.583   2.220   5.675  0.2318 -0.2181  0.0141
  744loPI   PO411892  12.931   2.338   6.106 -0.0719  0.0496 -0.2055
  744loPI   GL111893  12.938   2.247   6.502  0.0032 -0.1533  0.0464
  744loPI   GL211894  13.181   2.106   6.546  0.3412 -0.0410 -0.3049
  744loPI   C1A11895  12.778   2.333   6.832 -0.0795 -0.0793 -0.0982
  744loPI   C2A11896  12.898   2.378   7.274 -0.1070 -0.1446 -0.2912
  744loPI   C3A11897  12.877   2.278   7.578 -0.2824 -0.0834  0.0440
  744loPI   C4A11898  12.730   2.324   7.882  0.0023 -0.2625  0.2337
  744loPI   C5A11899  12.870   2.369   8.341  0.1100  0.0434 -0.1716
  744loPI   C6A11900  12.702   2.694   8.641 -0.2081  0.1372  0.0144
  744loPI   C1B11901  13.313   2.238   6.995  0.1636 -0.0765 -0.1164
  744loPI   C2B11902  13.360   2.141   7.385  0.4411 -0.1419 -0.2910
  744loPI   C3B11903  13.289   2.146   7.849 -0.0842 -0.2547  0.2722
  744loPI   C4B11904  13.160   2.019   8.269 -0.1999 -0.4194 -0.2520
  745loPI    C111905   5.642  11.390   5.755  0.1111  0.0819 -0.0820
  745loPI    C211906   5.447  11.071   5.614  0.1016  0.0121  0.0866
  745loPI    C311907   5.606  11.337   5.360 -0.1325  0.0214 -0.0527
  745loPI   PO411908   5.790  11.375   5.911  0.0677  0.4124  0.2607
  745loPI   GL111909   5.739  11.509   6.235  0.0772  0.1408 -0.1172
  745loPI   GL211910   5.856  11.765   6.350 -0.0537  0.0858 -0.0227
  745loPI   C1A11911   5.496  11.340   6.611 -0.1076 -0.0336 -0.2243
  745loPI   C2A11912   5.509  11.358   7.073  0.1517  0.0366  0.0524
  745loPI   C3A11913   5.528  11.409   7.476  0.0101 -0.0470  0.0123
  745loPI   C4A11914   5.443  11.274   7.822  0.0235  0.2575 -0.0806
  745loPI   C5A11915   5.511  11.189   8.290 -0.0880  0.2381  0.1101
  745loPI   C6A11916   5.293  11.210   8.767 -0.0196 -0.1506 -0.0789
  745loPI   C1B11917   5.929  11.670   6.823  0.1537  0.1755 -0.1046
  745loPI   C2B11918   5.882  11.730   7.284  0.4638 -0.3079 -0.1755
  745loPI   C3B11919   5.936  11.572   7.709  0.4755 -0.0410 -0.0907
  745loPI   C4B11920   6.043  11.536   8.172  0.0682  0.0097  0.0162
  746loPI    C111921  16.184   9.592   5.576 -0.1983  0.1331  0.2182
  746loPI    C211922  15.872   9.652   5.334  0.0041  0.1940 -0.0315
  746loPI    C311923  16.069   9.304   5.324 -0.1287  0.1092  0.2137
  746loPI   PO411924  16.116   9.543   5.873 -0.2033 -0.5104  0.1658
  746loPI   GL111925  15.914   9.382   6.128 -0.0330 -0.0590 -0.1508
  746loPI   GL211926  16.165   9.151   6.265  0.2534 -0.0559  0.4447
  746loPI   C1A11927  15.758   9.362   6.561  0.0836  0.0684  0.2396
  746loPI   C2A11928  15.718   9.355   7.016 -0.1955  0.2363 -0.1738
  746loPI   C3A11929  15.753   9.347   7.466  0.1187  0.0817  0.2861
  746loPI   C4A11930  15.606   9.387   7.867 -0.0610 -0.1400 -0.1298
  746loPI   C5A11931  15.699   9.548   8.223  0.0697 -0.1037 -0.0234
  746loPI   C6A11932  15.876   9.265   8.495 -0.1254 -0.2669 -0.0800
  746loPI   C1B11933  16.237   9.229   6.699 -0.3175  0.5749 -0.1165
  746loPI   C2B11934  16.220   9.136   7.160  0.2121  0.2639 -0.1305
  746loPI   C3B11935  16.240   9.198   7.573  0.3862  0.0626  0.0125
  746loPI   C4B11936  16.056   9.217   7.963 -0.0260  0.0089  0.2510
  747loPI    C111937  15.236   4.000   5.195 -0.1886 -0.0335  0.3354
  747loPI    C211938  14.847   3.963   5.109 -0.1573  0.0796  0.1397
  747loPI    C311939  15.085   4.180   4.871  0.0673 -0.1568  0.1439
  747loPI   PO411940  15.198   4.062   5.502 -0.1815 -0.0496 -0.1292
  747loPI   GL111941  15.382   4.039   5.877 -0.1440  0.2735  0.0181
  747loPI   GL211942  15.619   3.937   6.055  0.0350  0.2069  0.1005
  747loPI   C1A11943  15.233   4.164   6.357 -0.1831  0.2668  0.2582
  747loPI   C2A11944  15.228   4.224   6.743 -0.1848 -0.1395 -0.0859
  747loPI   C3A11945  15.256   4.315   7.125 -0.3531 -0.1505  0.1111
  747loPI   C4A11946  15.211   4.310   7.514 -0.1849  0.0807  0.0410
  747loPI   C5A11947  15.250   4.274   7.923 -0.1822 -0.0554  0.2082
  747loPI   C6A11948  15.479   4.201   8.297 -0.2764 -0.1077 -0.1034
  747loPI   C1B11949  15.728   4.077   6.501 -0.0909  0.2171 -0.1155
  747loPI   C2B11950  15.698   4.189   6.931  0.2256 -0.0164  0.3642
  747loPI   C3B11951  15.700   4.067   7.313  0.0654 -0.0809  0.1524
  747loPI   C4B11952  15.732   4.179   7.794 -0.2841 -0.2522 -0.0324
  748loPI    C111953   3.929  14.078   5.577  0.1923 -0.0287 -0.0489
  748loPI    C211954   3.669  13.775   5.562  0.1494  0.0218 -0.4217
  748loPI    C311955   3.557  14.140   5.443  0.1877  0.1994  0.0644
  748loPI   PO411956   4.056  14.048   5.848  0.0495 -0.0394 -0.2555
  748loPI   GL111957   3.885  13.860   6.208  0.0205  0.1414  0.0264
  748loPI   GL211958   3.930  13.553   6.417 -0.2321 -0.0992 -0.0600
  748loPI   C1A11959   3.859  14.015   6.562 -0.0041 -0.0378  0.0791
  748loPI   C2A11960   3.800  13.983   6.969  0.0221 -0.0791  0.2848
  748loPI   C3A11961   3.771  13.854   7.392  0.0707 -0.1003 -0.1891
  748loPI   C4A11962   3.683  13.881   7.869 -0.3127 -0.0525  0.0062
  748loPI   C5A11963   3.678  13.863   8.280 -0.0740 -0.2173  0.0081
  748loPI   C6A11964   3.724  13.869   8.693  0.2903 -0.2675  0.0332
  748loPI   C1B11965   3.870  13.500   6.832  0.0172 -0.2315 -0.1922
  748loPI   C2B11966   3.821  13.390   7.203  0.0287  0.0584 -0.2786
  748loPI   C3B11967   3.779  13.331   7.677 -0.3985  0.1451  0.1069
  748loPI   C4B11968   3.751  13.314   8.068 -0.2072  0.1425 -0.1861
  749loPI    C111969  15.920  17.043   5.466 -0.0287 -0.0923  0.1305
  749loPI    C211970  15.735  17.136   5.124 -0.2544 -0.0638  0.2581
  749loPI    C311971  16.062  16.906   5.119 -0.2467 -0.0494  0.0226
  749loPI   PO411972  15.895  17.280   5.579 -0.1167  0.1224 -0.1159
  749loPI   GL111973  16.025  17.250   5.991  0.0276  0.0246  0.0830
  749loPI   GL211974  15.966  16.962   6.076 -0.3085  0.2940  0.1977
  749loPI   C1A11975  15.880  17.510   6.294 -0.0403 -0.0088 -0.0289
  749loPI   C2A11976  15.871  17.516   6.722  0.0936  0.1229  0.0853
  749loPI   C3A11977  15.909  17.423   7.069 -0.2162 -0.0226  0.0802
  749loPI   C4A11978  15.948  17.370   7.417  0.0321 -0.0916  0.1068
  749loPI   C5A11979  15.892  17.423   7.850  0.2239  0.3020 -0.0430
  749loPI   C6A11980  15.738  17.252   8.254  0.1911  0.2749 -0.5662
  749loPI   C1B11981  15.989  17.022   6.535  0.1368  0.3304 -0.3286
  749loPI   C2B11982  16.055  16.951   7.022  0.2804  0.0985  0.2860
  749loPI   C3B11983  16.004  16.867   7.469  0.0750  0.0340 -0.1043
  749loPI   C4B11984  16.012  16.828   7.939  0.3728 -0.0425  0.2398
  750loPI    C111985   6.524  12.693   5.635 -0.2240 -0.0271 -0.1354
  750loPI    C211986   6.278  12.996   5.550 -0.1395  0.0272 -0.1883
  750loPI    C311987   6.608  12.939   5.331 -0.0437  0.0256 -0.0446
  750loPI   PO411988   6.503  12.639   5.826 -0.1902  0.1884  0.0341
  750loPI   GL111989   6.600  12.819   6.236 -0.2811 -0.1417  0.1655
  750loPI   GL211990   6.633  13.073   6.385  0.2219  0.0602  0.2429
  750loPI   C1A11991   6.649  12.767   6.739 -0.0336  0.2981 -0.1532
  750loPI   C2A11992   6.642  12.818   7.174  0.1687 -0.0642 -0.3311
  750loPI   C3A11993   6.594  12.849   7.630 -0.1707 -0.1302 -0.0639
  750loPI   C4A11994   6.518  12.805   8.033  0.1021 -0.0920 -0.0809
  750loPI   C5A11995   6.783  12.786   8.421 -0.0917  0.0014 -0.1207
  750loPI   C6A11996   6.759  12.724   8.923 -0.0177 -0.1189 -0.3426
  750loPI   C1B11997   6.599  13.387   6.622  0.2262 -0.1436  0.1539
  750loPI   C2B11998   6.574  13.326   7.117 -0.0757 -0.0901 -0.2395
  750loPI   C3B11999   6.529  13.353   7.529 -0.1719 -0.5179  0.1388
  750loPI   C4B12000   6.472  13.341   7.892 -0.0010 -0.0461 -0.0347
  751loPI    C112001  13.007  14.403   5.406 -0.1966 -0.0071 -0.0587
  751loPI    C212002  12.842  14.441   5.043 -0.0184  0.0012 -0.1397
  751loPI    C312003  13.239  14.470   5.087 -0.0631  0.2937  0.0980
  751loPI   PO412004  12.904  14.273   5.525  0.0771 -0.1001 -0.1173
  751loPI   GL112005  12.588  14.075   5.825 -0.0956  0.1467 -0.2128
  751loPI   GL212006  12.836  14.307   5.984  0.0072  0.0647  0.0783
  751loPI   C1A12007  12.454  13.967   6.197 -0.2867  0.0654  0.1406
  751loPI   C2A12008  12.479  13.972   6.665 -0.2001  0.0133  0.1253
  751loPI   C3A12009  12.360  13.989   7.160 -0.1022 -0.1304 -0.1965
  751loPI   C4A12010  12.406  14.060   7.605  0.2462 -0.1577  0.0595
  751loPI   C5A12011  12.353  14.053   8.034  0.0312  0.1107 -0.0574
  751loPI   C6A12012  12.225  13.981   8.498  0.1369  0.1419 -0.0366
  751loPI   C1B12013  12.840  14.253   6.467  0.0978  0.0802 -0.1736
  751loPI   C2B12014  12.864  14.345   6.906 -0.0584  0.5449  0.0855
  751loPI   C3B12015  12.761  14.288   7.327 -0.2875 -0.0691  0.2664
  751loPI   C4B12016  12.846  14.357   7.773  0.1460 -0.1817  0.0610
  752loPI    C112017  12.488   6.742   5.496 -0.1820 -0.1701 -0.0950
  752loPI    C212018  12.722   7.027   5.340 -0.0345 -0.2245  0.0239
  752loPI    C312019  12.333   7.013   5.246 -0.0739  0.1017  0.1263
  752loPI   PO412020  12.525   6.726   5.686  0.2178  0.1626  0.0933
  752loPI   GL112021  12.715   6.492   6.016 -0.1694  0.3890  0.4194
  752loPI   GL212022  12.750   6.696   6.177  0.4911  0.0469  0.3483
  752loPI   C1A12023  12.727   6.220   6.370  0.1131 -0.0162  0.0883
  752loPI   C2A12024  12.642   6.214   6.812 -0.1765 -0.1430 -0.2276
  752loPI   C3A12025  12.684   6.197   7.225 -0.0560  0.0913  0.0649
  752loPI   C4A12026  12.663   6.063   7.716  0.0839  0.2440  0.0363
  752loPI   C5A12027  12.552   6.193   8.135 -0.0962 -0.0626 -0.0506
  752loPI   C6A12028  12.556   6.076   8.522  0.1805 -0.0718 -0.2858
  752loPI   C1B12029  12.633   6.697   6.528  0.0288  0.0013 -0.0590
  752loPI   C2B12030  12.568   6.765   6.987  0.0051 -0.1044  0.0336
  752loPI   C3B12031  12.564   6.727   7.340  0.0493 -0.1445  0.2304
  752loPI   C4B12032  12.558   6.578   7.796 -0.3369  0.0071 -0.1349
  753loPI    C112033   6.779   7.953   5.558 -0.0439  0.0892  0.0298
  753loPI    C212034   7.027   7.822   5.273 -0.0491  0.0791  0.0300
  753loPI    C312035   6.837   8.171   5.228  0.0235  0.1231  0.0638
  753loPI   PO412036   6.958   7.885   5.800  0.1092  0.0970 -0.2938
  753loPI   GL112037   6.905   7.998   6.227  0.1770  0.1183  0.2965
  753loPI   GL212038   6.706   8.311   6.128 -0.0953 -0.0757  0.2499
  753loPI   C1A12039   6.946   8.017   6.718 -0.1051 -0.1130  0.0062
  753loPI   C2A12040   6.890   7.885   7.097  0.0064  0.4673  0.0156
  753loPI   C3A12041   6.960   7.966   7.447  0.1837 -0.0034  0.0670
  753loPI   C4A12042   6.883   7.954   7.892 -0.0805  0.1402  0.0278
  753loPI   C5A12043   6.644   8.261   8.110 -0.1052 -0.1776 -0.0380
  753loPI   C6A12044   6.656   8.537   8.493 -0.1805  0.0007 -0.2054
  753loPI   C1B12045   6.838   8.463   6.512 -0.0389 -0.2401 -0.1807
  753loPI   C2B12046   6.901   8.523   6.867  0.0790 -0.2413 -0.2630
  753loPI   C3B12047   6.892   8.413   7.205 -0.0445  0.2089 -0.1501
  753loPI   C4B12048   6.813   8.370   7.664  0.0283  0.0286  0.1201
  754loPI    C112049   3.241   6.617   5.812 -0.0022  0.0294  0.1362
  754loPI    C212050   3.079   6.472   5.477 -0.0656  0.2035  0.0907
  754loPI    C312051   3.436   6.651   5.465 -0.0117  0.0996  0.1376
  754loPI   PO412052   3.001   6.586   5.966  0.0757 -0.1668 -0.0204
  754loPI   GL112053   3.010   6.416   6.324 -0.0820 -0.2569  0.2315
  754loPI   GL212054   2.839   6.616   6.467 -0.0013 -0.0006 -0.2777
  754loPI   C1A12055   2.961   6.016   6.562  0.0093  0.0493 -0.0480
  754loPI   C2A12056   3.169   5.999   7.031 -0.0641 -0.1258 -0.0316
  754loPI   C3A12057   3.022   5.991   7.418  0.1354  0.2783 -0.0442
  754loPI   C4A12058   3.094   5.960   7.835 -0.0534 -0.0269  0.0672
  754loPI   C5A12059   3.086   6.050   8.267 -0.0327  0.1354  0.0794
  754loPI   C6A12060   3.200   5.697   8.514  0.2031  0.1858 -0.0508
  754loPI   C1B12061   2.986   6.480   6.809  0.1106  0.1080 -0.0654
  754loPI   C2B12062   3.009   6.483   7.334 -0.1908 -0.1358 -0.3180
  754loPI   C3B12063   3.009   6.433   7.795 -0.1575  0.1076 -0.1759
  754loPI   C4B12064   3.096   6.674   8.219  0.1987 -0.0006  0.0131
  755loPI    C112065  12.900  11.279   5.329 -0.0523  0.1518 -0.0577
  755loPI    C212066  13.132  11.527   5.118 -0.0444  0.2030  0.0110
  755loPI    C312067  13.072  11.153   4.990  0.2094  0.1370  0.0780
  755loPI   PO412068  12.689  11.388   5.438 -0.2550  0.1042  0.0985
  755loPI   GL112069  12.699  11.591   5.820  0.0707  0.0300  0.0331
  755loPI   GL212070  12.851  11.306   6.032  0.2984 -0.0266 -0.1566
  755loPI   C1A12071  12.385  11.590   6.175 -0.3543  0.0618  0.1826
  755loPI   C2A12072  12.370  11.632   6.674 -0.0745  0.1053  0.0952
  755loPI   C3A12073  12.349  11.644   7.055 -0.1908  0.0116  0.1631
  755loPI   C4A12074  12.179  11.593   7.406 -0.0399  0.3728  0.2023
  755loPI   C5A12075  12.140  11.728   7.888 -0.0306  0.2411  0.0735
  755loPI   C6A12076  12.086  11.915   8.255  0.1791 -0.0536  0.0954
  755loPI   C1B12077  12.804  11.400   6.439 -0.0621 -0.1287  0.2322
  755loPI   C2B12078  12.764  11.425   6.894  0.2502 -0.1919  0.0187
  755loPI   C3B12079  12.765  11.438   7.361  0.0471 -0.2261 -0.1848
  755loPI   C4B12080  12.686  11.330   7.814  0.2080 -0.0234  0.0272
  756loPI    C112081   0.877  15.132   5.484  0.1562 -0.1463 -0.0378
  756loPI    C212082   1.243  15.165   5.325  0.0575 -0.3160 -0.3077
  756loPI    C312083   0.926  15.112   5.087 -0.1290 -0.2939 -0.0680
  756loPI   PO412084   0.829  15.316   5.708 -0.0158  0.1430 -0.0813
  756loPI   GL112085   0.799  15.213   6.136 -0.2759 -0.0701  0.0185
  756loPI   GL212086   0.573  15.003   6.233  0.0140 -0.3260  0.0861
  756loPI   C1A12087   0.778  15.507   6.458  0.1228  0.0368  0.0493
  756loPI   C2A12088   0.791  15.618   6.841  0.2365  0.1896  0.0598
  756loPI   C3A12089   0.770  15.517   7.220 -0.3076 -0.0362 -0.0176
  756loPI   C4A12090   0.730  15.553   7.524  0.1318  0.0643 -0.3088
  756loPI   C5A12091   0.689  15.541   8.051 -0.0045 -0.1800  0.1211
  756loPI   C6A12092   0.566  15.655   8.508  0.0959  0.1945 -0.4754
  756loPI   C1B12093   0.892  14.997   6.549 -0.1650 -0.3297  0.0241
  756loPI   C2B12094   0.803  15.075   6.955 -0.1483  0.2574  0.0893
  756loPI   C3B12095   0.830  15.062   7.403 -0.3532 -0.0090 -0.2803
  756loPI   C4B12096   0.810  15.040   7.878 -0.3673  0.1572  0.4118
  757loPI    C112097   1.110  16.635   5.497  0.1878  0.0933 -0.0735
  757loPI    C212098   1.341  16.319   5.582  0.1399  0.0661 -0.0437
  757loPI    C312099   1.035  16.281   5.327  0.0797  0.0666  0.0280
  757loPI   PO412100   1.058  16.780   5.745  0.2197  0.1650 -0.0914
  757loPI   GL112101   1.020  17.029   6.162  0.0632 -0.2195 -0.0007
  757loPI   GL212102   0.916  16.720   6.247  0.0172 -0.0052 -0.3349
  757loPI   C1A12103   0.937  17.273   6.446  0.1727 -0.2643 -0.0679
  757loPI   C2A12104   0.937  17.378   6.888  0.0679 -0.3851  0.3051
  757loPI   C3A12105   0.918  17.467   7.314 -0.0284  0.2903  0.1095
  757loPI   C4A12106   0.901  17.452   7.718 -0.2721 -0.0052 -0.1747
  757loPI   C5A12107   0.870  17.245   8.133 -0.0614 -0.1621  0.0101
  757loPI   C6A12108   0.672  17.074   8.455 -0.3635 -0.1162 -0.0941
  757loPI   C1B12109   0.890  16.794   6.612 -0.0280 -0.0043  0.1927
  757loPI   C2B12110   0.978  16.907   6.971  0.1374 -0.2024 -0.1956
  757loPI   C3B12111   0.957  16.991   7.364 -0.1063  0.1243  0.1025
  757loPI   C4B12112   0.940  16.920   7.733  0.0231  0.2844  0.2648
  758loPI    C112113   4.807   4.705   5.574  0.1146 -0.2049  0.0305
  758loPI    C212114   4.415   4.701   5.492  0.1321 -0.0741 -0.0623
  758loPI    C312115   4.647   4.395   5.380  0.0440 -0.1857  0.0576
  758loPI   PO412116   4.850   4.738   5.788 -0.0486 -0.1805 -0.1967
  758loPI   GL112117   4.948   4.502   6.163  0.0246 -0.1895 -0.0468
  758loPI   GL212118   5.157   4.727   6.309  0.3170 -0.1666  0.4214
  758loPI   C1A12119   4.758   4.364   6.574  0.1709  0.0606  0.1866
  758loPI   C2A12120   4.740   4.404   6.999  0.2471 -0.3625  0.2140
  758loPI   C3A12121   4.740   4.505   7.347 -0.0847 -0.0988 -0.1773
  758loPI   C4A12122   4.676   4.553   7.721  0.0032 -0.2886 -0.0431
  758loPI   C5A12123   4.728   4.572   8.127 -0.0983 -0.3693 -0.0579
  758loPI   C6A12124   4.822   4.408   8.513  0.1329 -0.3357  0.2277
  758loPI   C1B12125   5.200   4.784   6.682  0.1994  0.3456 -0.3431
  758loPI   C2B12126   5.054   4.853   6.986 -0.1023  0.2585 -0.0337
  758loPI   C3B12127   5.107   4.856   7.403 -0.3589 -0.0348  0.0302
  758loPI   C4B12128   5.086   4.894   7.890  0.2904  0.2114  0.4823
  759loPI    C112129  17.389   2.579   5.608  0.1105 -0.1156  0.0033
  759loPI    C212130  17.691   2.724   5.390  0.0406 -0.1598 -0.1238
  759loPI    C312131  17.704   2.347   5.524  0.0418 -0.1617 -0.1293
  759loPI   PO412132  17.386   2.690   5.813  0.4013 -0.1868  0.2981
  759loPI   GL112133  17.324   2.463   6.132  0.0627 -0.2533 -0.0403
  759loPI   GL212134  17.093   2.182   6.168 -0.0256 -0.0280  0.0462
  759loPI   C1A12135  17.306   2.526   6.551 -0.0148  0.2607 -0.2605
  759loPI   C2A12136  17.308   2.581   7.020 -0.1681  0.0778  0.3181
  759loPI   C3A12137  17.268   2.620   7.393  0.2694 -0.0928  0.1600
  759loPI   C4A12138  17.260   2.606   7.866  0.0814  0.2036  0.0187
  759loPI   C5A12139  17.248   2.666   8.328 -0.1690  0.0096 -0.1027
  759loPI   C6A12140  17.163   2.438   8.609  0.0850 -0.2468 -0.0726
  759loPI   C1B12141  16.911   2.210   6.622 -0.0054 -0.1436  0.1002
  759loPI   C2B12142  16.900   2.225   7.089 -0.1006 -0.1469 -0.0091
  759loPI   C3B12143  16.924   2.205   7.573  0.0018  0.0686  0.2536
  759loPI   C4B12144  16.933   2.254   8.079  0.2429 -0.2745  0.0834
  760loPI    C112145   3.733  11.249   5.851  0.1416  0.1147 -0.0105
  760loPI    C212146   3.440  11.069   5.647 -0.0033  0.2267  0.0966
  760loPI    C312147   3.668  11.344   5.468  0.1311  0.0370 -0.0281
  760loPI   PO412148   3.611  11.145   6.132 -0.2552  0.0402 -0.0201
  760loPI   GL112149   3.714  11.181   6.570  0.0238  0.0671  0.0829
  760loPI   GL212150   3.685  11.587   6.529 -0.0419 -0.0357 -0.0478
  760loPI   C1A12151   3.688  11.032   6.939 -0.1188  0.1153 -0.0954
  760loPI   C2A12152   3.730  11.022   7.318  0.3145  0.0671 -0.3615
  760loPI   C3A12153   3.637  10.934   7.801  0.1019 -0.2837  0.5017
  760loPI   C4A12154   3.626  10.792   8.186 -0.1440  0.0392 -0.1743
  760loPI   C5A12155   3.460  10.960   8.524  0.0766  0.0665 -0.2340
  760loPI   C6A12156   3.112  11.153   8.584  0.0778  0.1364 -0.3550
  760loPI   C1B12157   3.688  11.533   6.953 -0.0185 -0.0605 -0.1212
  760loPI   C2B12158   3.552  11.621   7.372  0.1467  0.0305 -0.1233
  760loPI   C3B12159   3.598  11.472   7.815  0.1737 -0.1066  0.0841
  760loPI   C4B12160   3.462  11.281   8.177 -0.1935 -0.0274  0.2022
  761loPI    C112161   9.571  10.492   5.432  0.2469 -0.0911  0.0672
  761loPI    C212162   9.741  10.519   5.071  0.1228  0.1164  0.0227
  761loPI    C312163   9.481  10.225   5.148 -0.0010  0.1872 -0.1211
  761loPI   PO412164   9.767  10.483   5.610  0.0367  0.3415 -0.0984
  761loPI   GL112165   9.681  10.457   6.039 -0.2170  0.0432 -0.2604
  761loPI   GL212166   9.919  10.689   6.095  0.0109  0.1184  0.2302
  761loPI   C1A12167   9.931  10.253   6.379  0.2607 -0.1206  0.2166
  761loPI   C2A12168   9.773  10.149   6.802 -0.3620  0.1484  0.1496
  761loPI   C3A12169   9.729  10.181   7.277 -0.1727  0.0378 -0.3210
  761loPI   C4A12170   9.733  10.165   7.773  0.0478 -0.0248 -0.0696
  761loPI   C5A12171   9.828  10.096   8.166  0.1161  0.0913 -0.3343
  761loPI   C6A12172   9.948   9.784   8.334  0.3963  0.3067  0.0395
  761loPI   C1B12173   9.813  10.712   6.523 -0.0796 -0.3624 -0.1159
  761loPI   C2B12174   9.782  10.724   7.030 -0.0523 -0.0202 -0.1925
  761loPI   C3B12175   9.599  10.700   7.415  0.0436  0.0953 -0.0959
  761loPI   C4B12176   9.706  10.693   7.857 -0.0414 -0.3551 -0.0306
  762loPI    C112177   2.782   3.190   5.638  0.0282  0.0519  0.0087
  762loPI    C212178   2.695   3.561   5.759 -0.1675  0.0533 -0.1315
  762loPI    C312179   2.661   3.464   5.372 -0.1757 -0.1270 -0.0862
  762loPI   PO412180   2.796   3.026   5.870  0.2991  0.0543  0.0775
  762loPI   GL112181   2.995   3.045   6.226  0.0901  0.0858 -0.1330
  762loPI   GL212182   3.092   3.309   6.225  0.1432 -0.0553  0.2455
  762loPI   C1A12183   3.093   3.049   6.760  0.5025 -0.0478 -0.4192
  762loPI   C2A12184   3.112   3.094   7.178  0.1283 -0.0476  0.0425
  762loPI   C3A12185   3.053   3.171   7.691  0.3331 -0.1602  0.0710
  762loPI   C4A12186   3.034   3.378   8.194 -0.1852 -0.1331  0.1704
  762loPI   C5A12187   3.031   3.310   8.695  0.1325  0.2917 -0.1633
  762loPI   C6A12188   3.244   3.131   8.950 -0.0937 -0.0421  0.2057
  762loPI   C1B12189   3.017   3.502   6.578 -0.0113  0.2503  0.0781
  762loPI   C2B12190   3.048   3.603   6.921 -0.1252  0.0419  0.0001
  762loPI   C3B12191   2.982   3.596   7.341  0.2789 -0.0124  0.2662
  762loPI   C4B12192   2.932   3.622   7.803  0.0962 -0.2385  0.2561
  763loPI    C112193  13.501  14.855   5.218  0.1098 -0.1348  0.0597
  763loPI    C212194  13.877  14.875   5.353  0.2184 -0.0059 -0.2536
  763loPI    C312195  13.736  15.159   5.109 -0.1364  0.0342 -0.0103
  763loPI   PO412196  13.372  14.777   5.518  0.2002  0.2543  0.0591
  763loPI   GL112197  13.523  14.718   5.877 -0.0639  0.1659  0.0752
  763loPI   GL212198  13.732  14.951   5.984 -0.3816 -0.2535  0.0991
  763loPI   C1A12199  13.669  14.434   6.168  0.1218  0.0615  0.1330
  763loPI   C2A12200  13.656  14.452   6.653  0.1184  0.0279 -0.0162
  763loPI   C3A12201  13.692  14.437   7.070  0.2521  0.1034  0.1442
  763loPI   C4A12202  13.627  14.365   7.471  0.1869  0.3400  0.0349
  763loPI   C5A12203  13.687  14.451   7.930  0.1715 -0.0018 -0.1119
  763loPI   C6A12204  13.608  14.566   8.330  0.1027 -0.0159  0.4060
  763loPI   C1B12205  13.514  14.989   6.345  0.1065  0.0799  0.2278
  763loPI   C2B12206  13.470  14.928   6.799  0.1329 -0.1770  0.2530
  763loPI   C3B12207  13.553  14.955   7.108  0.0943 -0.0637 -0.0727
  763loPI   C4B12208  13.555  14.851   7.575 -0.1922 -0.1730  0.0801
  764loPI    C112209  16.979   2.776   5.391 -0.0363  0.1438 -0.2091
  764loPI    C212210  16.923   2.964   5.042  0.3660  0.1544 -0.2721
  764loPI    C312211  17.265   2.768   5.112  0.1800 -0.0775  0.0140
  764loPI   PO412212  16.953   2.909   5.580  0.0195 -0.0644 -0.0731
  764loPI   GL112213  17.143   3.070   6.000 -0.1509 -0.0373  0.0222
  764loPI   GL212214  17.395   3.253   6.085 -0.3283  0.0891  0.1562
  764loPI   C1A12215  17.194   3.008   6.487 -0.1543  0.2129  0.1422
  764loPI   C2A12216  17.207   3.018   6.844 -0.2341 -0.1683 -0.2919
  764loPI   C3A12217  17.210   3.096   7.285 -0.0123  0.1227  0.1112
  764loPI   C4A12218  17.168   3.120   7.731  0.0059 -0.1926  0.0733
  764loPI   C5A12219  17.145   3.087   8.123 -0.1612 -0.1415 -0.0425
  764loPI   C6A12220  17.208   3.092   8.592  0.0591 -0.2244  0.0207
  764loPI   C1B12221  17.607   3.335   6.487 -0.0243  0.1350 -0.0191
  764loPI   C2B12222  17.543   3.350   7.003  0.4348 -0.0487  0.0933
  764loPI   C3B12223  17.555   3.384   7.411 -0.0109 -0.1233  0.2837
  764loPI   C4B12224  17.528   3.404   7.781 -0.1807 -0.2616  0.1502
  765loPI    C112225  14.647   6.281   5.585  0.2404  0.1716  0.1787
  765loPI    C212226  14.996   6.464   5.650  0.2930  0.2586 -0.3097
  765loPI    C312227  14.832   6.470   5.285 -0.0638 -0.0548 -0.1614
  765loPI   PO412228  14.633   6.242   5.915 -0.1385 -0.0954  0.0018
  765loPI   GL112229  14.813   6.369   6.288  0.1277  0.1910  0.0264
  765loPI   GL212230  15.146   6.440   6.143 -0.2466  0.1516  0.1156
  765loPI   C1A12231  14.922   6.325   6.711 -0.1403  0.3767 -0.0069
  765loPI   C2A12232  14.924   6.340   7.178  0.0661  0.2182 -0.0084
  765loPI   C3A12233  14.885   6.383   7.620  0.0829 -0.0463  0.2837
  765loPI   C4A12234  14.887   6.461   8.051  0.0138 -0.3303  0.1107
  765loPI   C5A12235  15.190   6.651   8.269  0.0574 -0.2859 -0.2299
  765loPI   C6A12236  15.531   6.982   8.249  0.2443 -0.2681  0.2161
  765loPI   C1B12237  15.278   6.629   6.474  0.1648 -0.1412 -0.0213
  765loPI   C2B12238  15.342   6.626   6.975 -0.0824  0.2111 -0.1132
  765loPI   C3B12239  15.343   6.677   7.404  0.0232  0.2492  0.0128
  765loPI   C4B12240  15.286   6.695   7.824  0.1071  0.0458  0.3042
  766loPI    C112241   2.528   2.178   5.459  0.2106 -0.1066 -0.1850
  766loPI    C212242   2.688   2.543   5.427 -0.0889  0.0308 -0.1532
  766loPI    C312243   2.716   2.285   5.123 -0.1721  0.2022 -0.3081
  766loPI   PO412244   2.413   2.183   5.679 -0.1150  0.4773 -0.5582
  766loPI   GL112245   2.605   2.149   6.115 -0.1545  0.0493  0.1998
  766loPI   GL212246   2.398   2.337   6.264  0.2634  0.2145 -0.1631
  766loPI   C1A12247   2.750   2.286   6.551 -0.0561  0.1117  0.1478
  766loPI   C2A12248   2.789   2.242   6.933  0.0881 -0.2034  0.0751
  766loPI   C3A12249   2.718   2.239   7.393  0.0606  0.0883 -0.0034
  766loPI   C4A12250   2.717   2.266   7.805  0.3829 -0.0122  0.0351
  766loPI   C5A12251   2.742   2.340   8.226 -0.0528 -0.0411 -0.2150
  766loPI   C6A12252   2.443   2.474   8.563 -0.2509  0.1769  0.0901
  766loPI   C1B12253   2.244   2.440   6.662 -0.0233  0.1780 -0.1471
  766loPI   C2B12254   2.351   2.411   7.021 -0.0486 -0.0050 -0.0770
  766loPI   C3B12255   2.228   2.521   7.447 -0.1410 -0.2274 -0.1478
  766loPI   C4B12256   2.143   2.499   7.885  0.1499 -0.1141 -0.3577
  767loPI    C112257   4.447  16.893   5.632  0.1094  0.0636 -0.0518
  767loPI    C212258   4.095  16.775   5.482  0.1330 -0.0350 -0.0308
  767loPI    C312259   4.402  16.519   5.497  0.1882  0.0330  0.0062
  767loPI   PO412260   4.402  16.933   5.809 -0.0701  0.1145 -0.0844
  767loPI   GL112261   4.482  16.961   6.119 -0.1455 -0.0970 -0.1755
  767loPI   GL212262   4.240  16.715   6.241  0.3620 -0.0552  0.0739
  767loPI   C1A12263   4.569  17.029   6.537 -0.1305  0.0357 -0.1237
  767loPI   C2A12264   4.644  16.967   6.932  0.3470  0.2036 -0.1254
  767loPI   C3A12265   4.572  16.929   7.355  0.1108 -0.1162 -0.0149
  767loPI   C4A12266   4.483  16.942   7.768 -0.0830 -0.1260  0.0171
  767loPI   C5A12267   4.490  17.018   8.138 -0.2729  0.0520 -0.0232
  767loPI   C6A12268   4.482  16.769   8.389  0.0994 -0.3766 -0.2033
  767loPI   C1B12269   4.230  16.640   6.722 -0.0064  0.1452 -0.0754
  767loPI   C2B12270   4.167  16.642   7.169 -0.3690 -0.3393 -0.1282
  767loPI   C3B12271   4.158  16.564   7.609 -0.0012  0.0206 -0.1781
  767loPI   C4B12272   4.071  16.604   8.022 -0.0232 -0.0383  0.1633
  768loPI    C112273   3.578  17.387   5.646  0.0303 -0.1111  0.1390
  768loPI    C212274   3.582  17.032   5.461 -0.0721 -0.0673  0.0519
  768loPI    C312275   3.476  17.361   5.260  0.0399  0.0158  0.1275
  768loPI   PO412276   3.577  17.274   5.888  0.1471 -0.0128 -0.0141
  768loPI   GL112277   3.590  17.344   6.206  0.2743 -0.3716  0.1876
  768loPI   GL212278   3.219  17.140   6.336 -0.2441  0.0114  0.2331
  768loPI   C1A12279   3.598  17.360   6.586  0.0432  0.3533  0.0372
  768loPI   C2A12280   3.568  17.302   7.009 -0.0270  0.1574 -0.1001
  768loPI   C3A12281   3.586  17.354   7.434  0.0721 -0.1286 -0.1200
  768loPI   C4A12282   3.614  17.375   7.932 -0.5163 -0.0688  0.0789
  768loPI   C5A12283   3.569  17.431   8.294 -0.0411  0.2817 -0.0950
  768loPI   C6A12284   3.128  17.441   8.538  0.2268  0.1027 -0.0940
  768loPI   C1B12285   3.191  17.008   6.760  0.0370  0.0231 -0.2511
  768loPI   C2B12286   3.212  17.032   7.278  0.0443  0.1387  0.1323
  768loPI   C3B12287   3.231  17.073   7.704  0.0103 -0.4464 -0.0208
  768loPI   C4B12288   3.198  17.033   8.205 -0.2385 -0.2388 -0.2324
  769loPI    C112289   1.791   7.556   5.556 -0.0595  0.2956  0.0297
  769loPI    C212290   2.069   7.745   5.340  0.0752 -0.1528 -0.2036
  769loPI    C312291   1.764   7.562   5.157 -0.0362 -0.1883  0.0145
  769loPI   PO412292   1.907   7.468   5.839  0.1081 -0.1298 -0.0161
  769loPI   GL112293   1.997   7.768   6.222  0.0283 -0.1185  0.2047
  769loPI   GL212294   1.750   7.905   6.234  0.1800 -0.1672 -0.1723
  769loPI   C1A12295   2.050   7.863   6.654  0.0091 -0.0553 -0.0234
  769loPI   C2A12296   1.880   7.930   7.041 -0.0281 -0.3165  0.1119
  769loPI   C3A12297   1.857   7.926   7.415 -0.1389  0.1119  0.0502
  769loPI   C4A12298   1.885   7.889   7.861  0.2058 -0.1289 -0.0789
  769loPI   C5A12299   2.034   7.830   8.327 -0.0364 -0.1910 -0.0617
  769loPI   C6A12300   2.120   7.849   8.797  0.0487  0.0268 -0.3598
  769loPI   C1B12301   1.556   8.080   6.573  0.0585  0.0200 -0.3170
  769loPI   C2B12302   1.446   8.032   6.903  0.0568  0.1315 -0.0507
  769loPI   C3B12303   1.389   8.082   7.310 -0.3245  0.0035 -0.0825
  769loPI   C4B12304   1.360   8.036   7.714 -0.2273 -0.0963 -0.0926
  770loPI    C112305   7.563  16.506   5.630  0.0583 -0.1294 -0.1026
  770loPI    C212306   7.190  16.549   5.491  0.0459 -0.0992 -0.0598
  770loPI    C312307   7.479  16.795   5.366  0.0033  0.0232  0.0801
  770loPI   PO412308   7.601  16.455   5.890 -0.0787 -0.0748  0.3493
  770loPI   GL112309   7.653  16.656   6.172 -0.1066  0.0550  0.3105
  770loPI   GL212310   7.453  16.388   6.354 -0.1521  0.4753 -0.0554
  770loPI   C1A12311   7.847  16.733   6.597 -0.2064  0.2325  0.1901
  770loPI   C2A12312   7.761  16.671   7.063  0.1990 -0.2186  0.4769
  770loPI   C3A12313   7.800  16.715   7.469 -0.0071  0.2636  0.0118
  770loPI   C4A12314   7.734  16.691   7.928 -0.1191  0.0394  0.1301
  770loPI   C5A12315   7.896  16.825   8.268  0.2569 -0.0659  0.2143
  770loPI   C6A12316   7.878  17.055   8.647 -0.3876 -0.1305  0.3392
  770loPI   C1B12317   7.391  16.341   6.783  0.0970  0.0903 -0.0969
  770loPI   C2B12318   7.316  16.418   7.164 -0.2539 -0.0243  0.2289
  770loPI   C3B12319   7.362  16.376   7.566  0.1540  0.1176 -0.0130
  770loPI   C4B12320   7.340  16.467   8.036 -0.1321 -0.1129 -0.0926
  771loPI    C112321  11.006   4.423   5.122 -0.1015 -0.0849  0.3287
  771loPI    C212322  10.647   4.390   4.949 -0.0762 -0.0156  0.2627
  771loPI    C312323  10.963   4.202   4.791 -0.0788 -0.0577  0.3075
  771loPI   PO412324  10.926   4.381   5.411  0.2231 -0.0020 -0.4159
  771loPI   GL112325  10.904   4.334   5.806 -0.0609 -0.1309  0.1548
  771loPI   GL212326  10.570   4.209   5.877 -0.3362  0.0442 -0.1359
  771loPI   C1A12327  11.139   4.443   6.258  0.0977  0.2709 -0.0468
  771loPI   C2A12328  11.178   4.383   6.777  0.1504 -0.0642 -0.0184
  771loPI   C3A12329  11.117   4.369   7.214 -0.0250 -0.1933 -0.2379
  771loPI   C4A12330  11.122   4.337   7.604  0.0375  0.1689 -0.2356
  771loPI   C5A12331  11.194   4.290   8.149  0.0034  0.2330  0.0898
  771loPI   C6A12332  10.883   4.260   8.489 -0.4642 -0.1164 -0.3527
  771loPI   C1B12333  10.658   4.077   6.309 -0.0336  0.1059 -0.1202
  771loPI   C2B12334  10.646   4.034   6.815 -0.2059 -0.2367 -0.2758
  771loPI   C3B12335  10.623   4.044   7.328  0.1734 -0.1538  0.2371
  771loPI   C4B12336  10.704   4.110   7.784 -0.0122 -0.0920 -0.1845
  772loPI    C112337  14.183   6.293   5.604  0.0580 -0.0379 -0.0588
  772loPI    C212338  13.971   6.339   5.268 -0.1443 -0.0484  0.0658
  772loPI    C312339  14.267   6.070   5.283  0.0175  0.1115 -0.1748
  772loPI   PO412340  14.023   6.319   5.841  0.1294  0.5037  0.0193
  772loPI   GL112341  14.205   6.294   6.174  0.0713 -0.0773 -0.1605
  772loPI   GL212342  14.127   6.051   6.327 -0.1212  0.1243 -0.1257
  772loPI   C1A12343  14.523   5.933   6.517 -0.1507  0.1955  0.1489
  772loPI   C2A12344  14.477   6.023   6.969 -0.1617 -0.0724  0.1039
  772loPI   C3A12345  14.543   5.963   7.432  0.0013  0.2331 -0.0867
  772loPI   C4A12346  14.451   5.969   7.901  0.0903  0.2653  0.4585
  772loPI   C5A12347  14.366   5.896   8.289 -0.0538  0.0524  0.0455
  772loPI   C6A12348  14.587   5.965   8.657 -0.1861  0.0264  0.1519
  772loPI   C1B12349  14.081   6.202   6.784  0.2794  0.3027  0.0076
  772loPI   C2B12350  14.032   6.167   7.269 -0.1397  0.0438 -0.1604
  772loPI   C3B12351  14.006   6.204   7.722  0.4066  0.1091 -0.0061
  772loPI   C4B12352  13.911   6.383   8.164  0.0274  0.0015 -0.0875
  773loPI    C112353   8.033   8.276   5.371  0.1474 -0.0464 -0.2783
  773loPI    C212354   7.682   8.462   5.328  0.0540 -0.1998 -0.1915
  773loPI    C312355   7.844   8.267   5.018  0.1875  0.0820 -0.3037
  773loPI   PO412356   8.062   8.372   5.617  0.0369 -0.1170 -0.1973
  773loPI   GL112357   8.091   8.215   6.006  0.1840 -0.1072 -0.2186
  773loPI   GL212358   8.367   8.346   6.132  0.0345 -0.0357  0.1687
  773loPI   C1A12359   7.927   7.995   6.367  0.0167 -0.0169 -0.2196
  773loPI   C2A12360   7.855   8.069   6.773 -0.0976 -0.0562  0.3623
  773loPI   C3A12361   7.794   8.047   7.199 -0.1593  0.0461 -0.1909
  773loPI   C4A12362   7.828   8.022   7.631  0.2991 -0.0948 -0.0475
  773loPI   C5A12363   7.731   7.961   8.004 -0.0352  0.1778  0.2007
  773loPI   C6A12364   7.845   8.045   8.475  0.0315 -0.2211  0.2398
  773loPI   C1B12365   8.266   8.375   6.530 -0.0974 -0.1426  0.1757
  773loPI   C2B12366   8.271   8.385   6.815  0.1014 -0.2646 -0.1192
  773loPI   C3B12367   8.179   8.339   7.241  0.1350 -0.3008 -0.0081
  773loPI   C4B12368   8.223   8.311   7.682 -0.0822 -0.0191 -0.1290
  774loPI    C112369   1.982   8.291   5.360  0.1578  0.1700 -0.0759
  774loPI    C212370   2.158   8.508   5.074 -0.0259  0.2500 -0.1303
  774loPI    C312371   1.838   8.652   5.265  0.1502  0.2365  0.1826
  774loPI   PO412372   2.209   8.239   5.548 -0.0304  0.1076 -0.0887
  774loPI   GL112373   2.188   8.255   6.010  0.0377  0.1474 -0.0816
  774loPI   GL212374   2.370   8.124   6.148  0.1168 -0.3239 -0.1922
  774loPI   C1A12375   1.888   8.392   6.320 -0.2594 -0.1427 -0.1406
  774loPI   C2A12376   1.830   8.411   6.814  0.3559 -0.1450 -0.3650
  774loPI   C3A12377   1.785   8.442   7.246  0.3047 -0.4433 -0.3009
  774loPI   C4A12378   1.829   8.363   7.686 -0.2236  0.0320 -0.0598
  774loPI   C5A12379   1.645   8.263   8.125  0.0735  0.0359  0.0266
  774loPI   C6A12380   1.280   8.054   8.236 -0.1714  0.1724 -0.1783
  774loPI   C1B12381   2.339   8.262   6.638 -0.1751  0.2781  0.1216
  774loPI   C2B12382   2.256   8.257   7.095  0.1715  0.0707  0.2035
  774loPI   C3B12383   2.301   8.171   7.586 -0.0122  0.2666  0.1668
  774loPI   C4B12384   2.267   8.210   8.001  0.1119 -0.2946  0.0540
  775loPI    C112385   3.899  12.152   5.572 -0.1137  0.0935 -0.0770
  775loPI    C212386   3.649  11.840   5.573  0.0564 -0.0458  0.1808
  775loPI    C312387   3.885  11.907   5.257 -0.1069 -0.0744  0.0516
  775loPI   PO412388   3.947  12.099   5.880 -0.0607 -0.2026  0.0436
  775loPI   GL112389   3.627  12.188   6.182 -0.1597  0.2198  0.1269
  775loPI   GL212390   3.990  11.988   6.325  0.2904 -0.3628 -0.2776
  775loPI   C1A12391   3.587  12.127   6.616 -0.1811  0.0858 -0.2344
  775loPI   C2A12392   3.550  12.034   7.078  0.0547 -0.0815 -0.2343
  775loPI   C3A12393   3.496  12.092   7.604 -0.3039  0.2305  0.1351
  775loPI   C4A12394   3.433  11.900   7.979 -0.0258 -0.1831 -0.0753
  775loPI   C5A12395   3.643  11.763   8.392  0.1412  0.0105 -0.0811
  775loPI   C6A12396   3.674  11.459   8.662  0.1172 -0.0219 -0.2950
  775loPI   C1B12397   4.055  11.955   6.773 -0.2435 -0.1289 -0.1044
  775loPI   C2B12398   4.059  11.967   7.222 -0.2156  0.0065 -0.0995
  775loPI   C3B12399   4.007  11.806   7.612  0.2293 -0.1286 -0.0544
  775loPI   C4B12400   4.004  11.760   8.019  0.1880 -0.1479 -0.0058
  776loPI    C112401   8.646   7.521   5.611  0.0252 -0.1852 -0.0018
  776loPI    C212402   8.941   7.608   5.356  0.0997 -0.2243  0.0704
  776loPI    C312403   8.564   7.710   5.268  0.1505 -0.0640  0.0342
  776loPI   PO412404   8.755   7.557   5.833  0.1746 -0.2437  0.3331
  776loPI   GL112405   8.719   7.666   6.261 -0.2126  0.0803  0.3703
  776loPI   GL212406   8.419   7.838   6.208 -0.0805 -0.0223  0.2567
  776loPI   C1A12407   8.803   7.654   6.662 -0.3192  0.0236  0.0316
  776loPI   C2A12408   8.819   7.616   7.036  0.0826  0.2242 -0.0092
  776loPI   C3A12409   8.779   7.691   7.492  0.2460 -0.2329  0.2481
  776loPI   C4A12410   8.680   7.643   7.919 -0.1380  0.0688  0.1284
  776loPI   C5A12411   8.669   7.372   8.216  0.1241  0.1303 -0.0481
  776loPI   C6A12412   8.731   7.065   8.546  0.2456  0.0487  0.1734
  776loPI   C1B12413   8.353   7.901   6.689  0.0884 -0.1404 -0.0304
  776loPI   C2B12414   8.306   7.889   7.067 -0.2317  0.2739  0.4026
  776loPI   C3B12415   8.300   7.853   7.480  0.0320 -0.0483  0.2594
  776loPI   C4B12416   8.245   7.818   7.820 -0.0560  0.2380  0.0834
  777loPI    C112417   3.357   0.736   5.574  0.1295 -0.1504  0.0585
  777loPI    C212418   3.354   0.501   5.251 -0.0082 -0.0377 -0.0234
  777loPI    C312419   3.609   0.808   5.273 -0.0321 -0.0161 -0.0464
  777loPI   PO412420   3.293   0.522   5.744 -0.0136 -0.1050 -0.0501
  777loPI   GL112421   3.223   0.581   6.202 -0.0695  0.1027 -0.0426
  777loPI   GL212422   3.452   0.514   6.484  0.1482  0.0025 -0.1864
  777loPI   C1A12423   3.022   0.757   6.561  0.1476  0.2369  0.1523
  777loPI   C2A12424   2.990   0.733   6.967 -0.0643  0.4190  0.0634
  777loPI   C3A12425   2.949   0.799   7.371  0.0364 -0.1124 -0.1120
  777loPI   C4A12426   2.929   0.882   7.819 -0.3039  0.1573 -0.0301
  777loPI   C5A12427   2.803   0.898   8.223 -0.1539  0.1748  0.1100
  777loPI   C6A12428   2.556   0.798   8.550 -0.1249 -0.1358 -0.1212
  777loPI   C1B12429   3.468   0.585   6.933 -0.0473  0.0755 -0.2009
  777loPI   C2B12430   3.443   0.556   7.326  0.0783 -0.0305 -0.1709
  777loPI   C3B12431   3.379   0.690   7.710  0.0826 -0.0705 -0.1058
  777loPI   C4B12432   3.356   0.697   8.216  0.0235 -0.2449 -0.2145
  778loPI    C112433  10.978   0.717   5.589 -0.0044 -0.2183  0.0202
  778loPI    C212434  10.915   0.952   5.271 -0.0822 -0.1056  0.1181
  778loPI    C312435  11.093   0.597   5.225  0.1478  0.0250 -0.0145
  778loPI   PO412436  10.959   0.876   5.756  0.0283  0.0047  0.0519
  778loPI   GL112437  11.238   1.132   5.986  0.0646 -0.2757 -0.2102
  778loPI   GL212438  11.320   1.379   5.918  0.3329 -0.5705 -0.2526
  778loPI   C1A12439  11.152   1.063   6.393  0.1744 -0.3496  0.0607
  778loPI   C2A12440  11.201   0.967   6.772 -0.1751  0.0029  0.3457
  778loPI   C3A12441  11.214   0.930   7.166 -0.1763  0.2330 -0.1739
  778loPI   C4A12442  11.160   1.054   7.573 -0.1179  0.0225  0.2779
  778loPI   C5A12443  11.033   1.046   8.002 -0.1120  0.0731  0.0385
  778loPI   C6A12444  10.837   1.036   8.332  0.0693 -0.1693  0.2532
  778loPI   C1B12445  11.134   1.584   6.331  0.0129  0.3122 -0.0176
  778loPI   C2B12446  11.097   1.510   6.831  0.2261 -0.0618  0.0255
  778loPI   C3B12447  11.123   1.551   7.265  0.2452 -0.0103 -0.0857
  778loPI   C4B12448  11.102   1.543   7.712  0.0937 -0.0150  0.1195
  779loPI    C112449  11.968   9.477   5.687 -0.2531  0.0014  0.0661
  779loPI    C212450  11.886   9.804   5.902  0.1445  0.0102  0.2123
  779loPI    C312451  11.952   9.835   5.509  0.1923  0.1083  0.2277
  779loPI   PO412452  12.130   9.349   5.836 -0.2165  0.0546  0.0532
  779loPI   GL112453  12.115   9.294   6.184  0.0869 -0.3817  0.1462
  779loPI   GL212454  11.810   9.446   6.230 -0.2183 -0.0044 -0.1704
  779loPI   C1A12455  12.254   9.248   6.663  0.0350 -0.0791  0.0436
  779loPI   C2A12456  12.192   9.223   7.053 -0.4143 -0.1143 -0.0214
  779loPI   C3A12457  12.165   9.223   7.563  0.0129 -0.0158  0.0557
  779loPI   C4A12458  12.121   9.341   7.993 -0.0223 -0.1887 -0.0108
  779loPI   C5A12459  12.013   9.652   8.290  0.2246  0.3653 -0.0127
  779loPI   C6A12460  11.907   9.658   8.764 -0.0934 -0.0217  0.5700
  779loPI   C1B12461  11.797   9.425   6.690 -0.1686  0.1789  0.1331
  779loPI   C2B12462  11.740   9.408   7.234 -0.0160  0.2664  0.0338
  779loPI   C3B12463  11.669   9.416   7.688  0.1446 -0.2430 -0.1442
  779loPI   C4B12464  11.653   9.380   8.071 -0.0595 -0.2117  0.0027
  780loPI    C112465  16.809   7.767   5.615  0.3474  0.3028  0.1971
  780loPI    C212466  16.820   8.053   5.336  0.2337  0.0937 -0.0257
  780loPI    C312467  16.876   7.671   5.233 -0.0692 -0.0149  0.1966
  780loPI   PO412468  16.736   7.900   5.870  0.1917  0.0153  0.0306
  780loPI   GL112469  16.864   7.920   6.363 -0.3349  0.1200 -0.1161
  780loPI   GL212470  16.616   7.676   6.475  0.2366 -0.1652  0.1579
  780loPI   C1A12471  16.959   7.979   6.813 -0.1395  0.0604  0.2481
  780loPI   C2A12472  16.876   8.037   7.273  0.1797  0.0531 -0.0014
  780loPI   C3A12473  16.831   8.022   7.733 -0.0547 -0.0295 -0.2067
  780loPI   C4A12474  16.758   8.082   8.153  0.1463 -0.3241  0.1850
  780loPI   C5A12475  16.648   8.068   8.570  0.0800  0.3032 -0.1296
  780loPI   C6A12476  16.558   7.925   8.954  0.0887 -0.1847 -0.2201
  780loPI   C1B12477  16.550   7.719   6.942  0.2508 -0.0019  0.2176
  780loPI   C2B12478  16.512   7.707   7.393  0.1419 -0.0438 -0.0002
  780loPI   C3B12479  16.416   7.746   7.779  0.2830  0.0657  0.1821
  780loPI   C4B12480  16.348   7.744   8.207  0.2031 -0.0103 -0.1768
  781loPI    C112481  14.739   9.088   5.426  0.1086 -0.0725  0.0218
  781loPI    C212482  14.756   8.742   5.227  0.2342 -0.1072  0.0916
  781loPI    C312483  14.919   9.071   5.069 -0.0655 -0.0314 -0.0693
  781loPI   PO412484  14.831   8.960   5.691 -0.2094  0.5351 -0.3175
  781loPI   GL112485  14.906   9.024   6.166 -0.1237  0.4016 -0.0557
  781loPI   GL212486  14.596   8.779   6.200 -0.0207 -0.0465  0.0786
  781loPI   C1A12487  14.918   9.162   6.556  0.3464 -0.2869  0.0227
  781loPI   C2A12488  14.900   9.214   6.957 -0.0750 -0.2279  0.0237
  781loPI   C3A12489  14.822   9.133   7.381  0.2170  0.2330 -0.1202
  781loPI   C4A12490  14.873   9.203   7.823  0.0575  0.1214  0.3628
  781loPI   C5A12491  14.830   9.085   8.304 -0.0358 -0.0602 -0.0094
  781loPI   C6A12492  14.498   9.113   8.580 -0.2818  0.0017 -0.1383
  781loPI   C1B12493  14.533   8.855   6.659 -0.1988 -0.0918  0.2545
  781loPI   C2B12494  14.517   8.827   7.105  0.0618 -0.1694 -0.0003
  781loPI   C3B12495  14.450   8.828   7.545 -0.1479 -0.0546 -0.0531
  781loPI   C4B12496  14.478   8.876   7.971 -0.2681  0.0631 -0.1704
  782loPI    C112497   0.161   8.854   5.604 -0.0384 -0.1020 -0.0529
  782loPI    C212498   0.217   8.509   5.410  0.1751  0.1113 -0.3819
  782loPI    C312499  -0.006   8.797   5.245  0.2015  0.2245 -0.2226
  782loPI   PO412500   0.155   8.725   5.877 -0.0130 -0.3522 -0.0289
  782loPI   GL112501   0.084   8.876   6.252 -0.1348 -0.2788 -0.2490
  782loPI   GL212502   0.386   9.014   6.362 -0.0761  0.0746  0.1605
  782loPI   C1A12503   0.030   8.670   6.699  0.1680 -0.3319  0.2985
  782loPI   C2A12504   0.092   8.616   7.081 -0.1291  0.0279 -0.4436
  782loPI   C3A12505  -0.131   8.577   7.529 -0.3399 -0.1020 -0.0377
  782loPI   C4A12506  -0.028   8.621   7.980 -0.1244  0.1952 -0.2311
  782loPI   C5A12507  -0.142   8.820   8.325  0.0884 -0.2562  0.1004
  782loPI   C6A12508  -0.487   8.846   8.562  0.2037  0.0141  0.1656
  782loPI   C1B12509   0.426   8.943   6.798 -0.2619 -0.2323  0.2091
  782loPI   C2B12510   0.427   8.966   7.275  0.0415  0.2264 -0.4655
  782loPI   C3B12511   0.216   9.033   7.666 -0.0956 -0.0151  0.2616
  782loPI   C4B12512   0.324   8.976   8.075 -0.4669 -0.0731  0.0698
  783loPI    C112513  15.442   7.762   5.448 -0.0420  0.0128 -0.0104
  783loPI    C212514  15.760   7.521   5.410  0.0163  0.0987 -0.0710
  783loPI    C312515  15.598   7.693   5.086 -0.1153  0.0257 -0.0448
  783loPI   PO412516  15.534   7.955   5.661 -0.1604  0.3966  0.0438
  783loPI   GL112517  15.463   7.874   6.128  0.2398  0.0422 -0.0342
  783loPI   GL212518  15.541   8.177   6.105 -0.0070  0.0038  0.2052
  783loPI   C1A12519  15.223   7.767   6.486  0.0293 -0.0586  0.1632
  783loPI   C2A12520  15.129   7.661   6.895 -0.0031  0.3405 -0.2909
  783loPI   C3A12521  15.126   7.687   7.382 -0.1814  0.0685  0.1280
  783loPI   C4A12522  15.054   7.699   7.836 -0.0403 -0.1569  0.1347
  783loPI   C5A12523  14.893   7.635   8.258 -0.4451 -0.1847  0.0435
  783loPI   C6A12524  14.923   7.647   8.704  0.0814 -0.1677  0.3224
  783loPI   C1B12525  15.522   8.129   6.597  0.1636 -0.0382 -0.0443
  783loPI   C2B12526  15.554   8.039   7.067 -0.0858 -0.0274 -0.0818
  783loPI   C3B12527  15.510   8.074   7.473  0.1887 -0.2398  0.1508
  783loPI   C4B12528  15.421   8.016   7.969 -0.0652  0.1401 -0.2187
  784loPI    C112529   8.319   6.221   5.360  0.0907  0.0361  0.1476
  784loPI    C212530   8.096   5.915   5.488  0.0576  0.0677  0.1658
  784loPI    C312531   8.360   5.860   5.192  0.0794  0.0125  0.1952
  784loPI   PO412532   8.425   6.315   5.604  0.2909  0.3435  0.1021
  784loPI   GL112533   8.274   6.215   5.968  0.0335 -0.1487 -0.0106
  784loPI   GL212534   8.295   5.895   5.935 -0.1173 -0.1625  0.1602
  784loPI   C1A12535   8.530   6.261   6.295 -0.1013 -0.1374 -0.1965
  784loPI   C2A12536   8.611   6.280   6.674 -0.2154  0.2475 -0.0091
  784loPI   C3A12537   8.621   6.322   7.082  0.0702  0.3320  0.0628
  784loPI   C4A12538   8.520   6.370   7.521 -0.1188  0.3194 -0.2258
  784loPI   C5A12539   8.429   6.181   7.935  0.1303  0.1472  0.2793
  784loPI   C6A12540   8.060   6.188   8.073  0.1089 -0.1054  0.1354
  784loPI   C1B12541   8.144   5.948   6.352 -0.2259 -0.1523  0.0188
  784loPI   C2B12542   8.169   6.089   6.755 -0.4677  0.2140  0.0497
  784loPI   C3B12543   8.146   6.115   7.212  0.6290  0.2037 -0.0786
  784loPI   C4B12544   8.053   6.042   7.591 -0.0927 -0.0775 -0.1424
  785loPI    C112545  17.699   8.003   5.424  0.2282 -0.0426 -0.0921
  785loPI    C212546  17.354   7.950   5.228  0.0000  0.4081  0.1718
  785loPI    C312547  17.564   8.287   5.176  0.3805  0.1595  0.0533
  785loPI   PO412548  17.584   7.931   5.659  0.2204  0.1551  0.1913
  785loPI   GL112549  17.615   7.642   6.101  0.0475  0.0843  0.2307
  785loPI   GL212550  17.674   7.959   6.159  0.2387 -0.0944  0.0238
  785loPI   C1A12551  17.759   7.623   6.539 -0.1700  0.3185 -0.1732
  785loPI   C2A12552  17.812   7.624   6.921 -0.0715 -0.0429 -0.3616
  785loPI   C3A12553  17.752   7.666   7.368  0.1282  0.0635  0.1543
  785loPI   C4A12554  17.777   7.599   7.781 -0.1219 -0.3462 -0.1460
  785loPI   C5A12555  17.858   7.670   8.101 -0.1385  0.0631  0.0461
  785loPI   C6A12556  17.807   7.603   8.482 -0.1092 -0.0758  0.1013
  785loPI   C1B12557  17.332   7.890   6.526 -0.0983 -0.2465  0.3819
  785loPI   C2B12558  17.422   7.835   7.033  0.2437  0.3067 -0.2653
  785loPI   C3B12559  17.315   7.876   7.495  0.1652  0.2250  0.0810
  785loPI   C4B12560  17.425   7.927   7.912  0.1795 -0.0557 -0.0715
  786loPI    C112561   9.115  17.625   5.553 -0.0838 -0.0475 -0.0484
  786loPI    C212562   9.286  17.501   5.212  0.2474  0.2035  0.0209
  786loPI    C312563   8.962  17.736   5.200  0.2617  0.2166 -0.1210
  786loPI   PO412564   9.292  17.829   5.872 -0.0814 -0.0162 -0.1691
  786loPI   GL112565   9.213  17.767   6.391 -0.0329  0.0993  0.0555
  786loPI   GL212566   9.012  17.541   6.383 -0.2855  0.0129  0.3532
  786loPI   C1A12567   8.980  18.099   6.596  0.3124  0.2653  0.1103
  786loPI   C2A12568   9.029  18.166   7.019 -0.0470 -0.0110 -0.1010
  786loPI   C3A12569   8.894  18.185   7.444 -0.0202  0.3302 -0.0874
  786loPI   C4A12570   9.003  18.306   7.921 -0.3771 -0.0879  0.2851
  786loPI   C5A12571   8.992  18.246   8.409  0.3224 -0.1376 -0.1003
  786loPI   C6A12572   8.875  18.131   8.832  0.1337  0.1301 -0.0823
  786loPI   C1B12573   9.057  17.648   6.854 -0.0928 -0.1742 -0.1110
  786loPI   C2B12574   9.066  17.698   7.323  0.0456  0.0166  0.0382
  786loPI   C3B12575   9.067  17.713   7.746  0.0263 -0.2035 -0.0178
  786loPI   C4B12576   9.113  17.637   8.236  0.0318  0.1899 -0.0992
  787loPI    C112577  16.042   6.714   5.523 -0.1490 -0.1265  0.0433
  787loPI    C212578  16.078   6.419   5.256 -0.2489 -0.0563 -0.0486
  787loPI    C312579  15.771   6.674   5.232 -0.1598  0.0590  0.0269
  787loPI   PO412580  16.087   6.647   5.832 -0.0808  0.2975  0.0792
  787loPI   GL112581  16.299   6.760   6.162 -0.0328  0.2683 -0.0398
  787loPI   GL212582  16.466   7.101   6.219  0.0191  0.1249  0.2893
  787loPI   C1A12583  16.078   6.839   6.496 -0.0302 -0.0570 -0.0982
  787loPI   C2A12584  16.222   6.736   6.880  0.0116 -0.2518  0.1111
  787loPI   C3A12585  16.245   6.860   7.262  0.0762 -0.0579 -0.1766
  787loPI   C4A12586  16.131   6.859   7.641 -0.3979 -0.0191  0.0469
  787loPI   C5A12587  15.991   6.875   8.085  0.2526 -0.0579  0.0189
  787loPI   C6A12588  15.915   6.915   8.525  0.1339 -0.0506 -0.0895
  787loPI   C1B12589  16.595   7.005   6.597 -0.2545 -0.0534  0.0636
  787loPI   C2B12590  16.580   7.127   6.972  0.0689 -0.1631  0.3358
  787loPI   C3B12591  16.599   7.210   7.461  0.0023  0.0635  0.2139
  787loPI   C4B12592  16.504   7.245   7.886 -0.2045 -0.5061  0.1441
  788loPI    C112593  13.818  13.727   5.250  0.0552 -0.0954 -0.0203
  788loPI    C212594  13.909  13.769   4.863 -0.0450 -0.0140 -0.0355
  788loPI    C312595  13.916  13.407   5.032  0.0868 -0.0379 -0.0911
  788loPI   PO412596  13.886  13.958   5.399  0.0106 -0.0483  0.0578
  788loPI   GL112597  14.035  14.063   5.753 -0.0872  0.0943  0.0695
  788loPI   GL212598  13.727  14.081   5.890 -0.1188 -0.0060 -0.2072
  788loPI   C1A12599  14.227  14.207   6.102 -0.1739  0.1940 -0.1942
  788loPI   C2A12600  14.156  14.355   6.579  0.0157  0.0718 -0.2688
  788loPI   C3A12601  14.198  14.366   7.024 -0.0864  0.2020  0.0603
  788loPI   C4A12602  14.112  14.236   7.440 -0.1880 -0.3347  0.0028
  788loPI   C5A12603  14.107  14.216   7.935 -0.1153 -0.2797 -0.1762
  788loPI   C6A12604  14.136  14.389   8.368 -0.0092 -0.1793 -0.3322
  788loPI   C1B12605  13.750  13.991   6.356 -0.0785  0.1419 -0.0405
  788loPI   C2B12606  13.809  14.001   6.847 -0.0615 -0.1494 -0.2412
  788loPI   C3B12607  13.682  13.919   7.199  0.0135  0.0621 -0.4696
  788loPI   C4B12608  13.753  13.920   7.629 -0.0767  0.2189 -0.0251
  789loPI    C112609   7.495   9.679   5.559  0.1387 -0.1229 -0.1191
  789loPI    C212610   7.385   9.295   5.525 -0.1676 -0.0227 -0.3029
  789loPI    C312611   7.542   9.487   5.211  0.1435 -0.0421 -0.1632
  789loPI   PO412612   7.462   9.700   5.853 -0.0984  0.1118  0.0645
  789loPI   GL112613   7.354   9.771   6.260 -0.1952 -0.0368  0.1483
  789loPI   GL212614   7.626   9.690   6.379 -0.1529 -0.1286  0.2331
  789loPI   C1A12615   7.179   9.765   6.666  0.3640  0.0684  0.0913
  789loPI   C2A12616   7.102   9.729   7.068  0.0406 -0.1420  0.0325
  789loPI   C3A12617   7.078   9.760   7.570 -0.0802 -0.1471 -0.1522
  789loPI   C4A12618   7.068   9.745   8.000 -0.1800 -0.1489  0.0599
  789loPI   C5A12619   7.054   9.760   8.469  0.0861 -0.4043  0.0593
  789loPI   C6A12620   6.747   9.690   8.790  0.1067  0.1997  0.0280
  789loPI   C1B12621   7.653   9.639   6.800  0.3899 -0.2127 -0.1364
  789loPI   C2B12622   7.570   9.572   7.186  0.1207 -0.0185 -0.1490
  789loPI   C3B12623   7.601   9.590   7.562  0.0701 -0.0780  0.1209
  789loPI   C4B12624   7.539   9.500   7.970 -0.0565  0.1167  0.0679
  790loPI    C112625   7.491   8.760   5.775  0.0997  0.2131  0.3680
  790loPI    C212626   7.832   8.725   5.982  0.1981  0.2062  0.2067
  790loPI    C312627   7.838   8.870   5.609  0.0717 -0.1245  0.0714
  790loPI   PO412628   7.504   8.472   5.762  0.1726  0.2626 -0.1792
  790loPI   GL112629   7.451   8.205   6.118  0.0122  0.4684  0.1932
  790loPI   GL212630   7.242   8.354   6.198 -0.0860  0.1417  0.1208
  790loPI   C1A12631   7.777   8.417   6.423 -0.0800 -0.1007  0.0807
  790loPI   C2A12632   7.807   8.594   6.815 -0.2137 -0.0386  0.2408
  790loPI   C3A12633   7.736   8.533   7.171 -0.0859  0.0198  0.2220
  790loPI   C4A12634   7.716   8.516   7.594  0.0792 -0.1069 -0.1065
  790loPI   C5A12635   7.653   8.598   8.023  0.0672  0.0372 -0.0796
  790loPI   C6A12636   7.504   8.431   8.439 -0.0968  0.3351 -0.0916
  790loPI   C1B12637   7.396   8.260   6.671  0.2017 -0.1081 -0.0342
  790loPI   C2B12638   7.327   8.159   7.115 -0.1056 -0.0301  0.1624
  790loPI   C3B12639   7.312   8.230   7.593 -0.0749  0.1265  0.4509
  790loPI   C4B12640   7.264   8.280   8.045 -0.0590  0.1860 -0.0967
  791loPI    C112641   4.049   2.017   5.421 -0.0366 -0.2077 -0.1870
  791loPI    C212642   4.118   2.149   5.050 -0.0661 -0.1655 -0.1776
  791loPI    C312643   4.403   1.949   5.248  0.0059 -0.0501 -0.1635
  791loPI   PO412644   3.972   2.273   5.652 -0.0086 -0.0295 -0.1258
  791loPI   GL112645   3.925   2.252   6.038 -0.2423  0.0516  0.2325
  791loPI   GL212646   3.809   2.471   6.210 -0.0909  0.1572 -0.1014
  791loPI   C1A12647   4.178   2.268   6.499 -0.1750  0.0281  0.1275
  791loPI   C2A12648   4.111   2.234   6.892 -0.1771  0.1138  0.1598
  791loPI   C3A12649   4.163   2.226   7.332 -0.0798  0.1281  0.0568
  791loPI   C4A12650   4.098   2.185   7.693  0.1442 -0.0755  0.1087
  791loPI   C5A12651   4.244   2.322   8.003 -0.4069 -0.0439  0.0702
  791loPI   C6A12652   4.265   2.591   8.414 -0.0913 -0.0813  0.1245
  791loPI   C1B12653   3.720   2.343   6.580 -0.1755  0.0846  0.1517
  791loPI   C2B12654   3.626   2.386   6.984  0.0414  0.0333 -0.2981
  791loPI   C3B12655   3.655   2.399   7.427  0.0318  0.0583 -0.3044
  791loPI   C4B12656   3.503   2.459   7.859  0.0744  0.0017 -0.0587
  792loPI    C112657  15.235   9.124   5.460  0.1148  0.1180 -0.0080
  792loPI    C212658  15.396   9.464   5.322  0.0777  0.1302 -0.0217
  792loPI    C312659  15.485   9.115   5.148  0.1158  0.1329 -0.0077
  792loPI   PO412660  15.192   9.277   5.716  0.2187 -0.2904 -0.0638
  792loPI   GL112661  15.379   9.393   6.084 -0.2551 -0.0599  0.0334
  792loPI   GL212662  15.441   9.111   6.248  0.0767 -0.0576  0.2134
  792loPI   C1A12663  15.243   9.532   6.439  0.1727 -0.1920  0.1213
  792loPI   C2A12664  15.317   9.584   6.873  0.0704 -0.0604 -0.5309
  792loPI   C3A12665  15.324   9.544   7.330 -0.0636  0.0629  0.1656
  792loPI   C4A12666  15.183   9.664   7.711 -0.0989  0.0085  0.1167
  792loPI   C5A12667  15.166   9.441   8.095 -0.0871  0.3177 -0.3255
  792loPI   C6A12668  15.250   9.226   8.490  0.0803  0.0142 -0.0585
  792loPI   C1B12669  15.377   9.041   6.723  0.0012  0.2277  0.0183
  792loPI   C2B12670  15.363   9.030   7.145  0.0022 -0.3430  0.0177
  792loPI   C3B12671  15.327   9.098   7.552 -0.0943  0.2162 -0.0220
  792loPI   C4B12672  15.315   8.956   8.021 -0.0397 -0.2110 -0.3569
  793loPI    C112673   4.464   5.475   5.391  0.0296 -0.0241 -0.0571
  793loPI    C212674   4.631   5.132   5.269  0.1315 -0.0242  0.0798
  793loPI    C312675   4.553   5.423   5.005  0.3379 -0.0291  0.0119
  793loPI   PO412676   4.559   5.553   5.625 -0.0529 -0.1184 -0.1307
  793loPI   GL112677   4.571   5.742   5.921  0.0030 -0.0600  0.0198
  793loPI   GL212678   4.403   5.486   6.115 -0.0044  0.0945 -0.1734
  793loPI   C1A12679   4.544   5.988   6.364  0.1257  0.0940 -0.1337
  793loPI   C2A12680   4.511   6.069   6.747  0.0978 -0.2882 -0.0627
  793loPI   C3A12681   4.513   6.024   7.143  0.1514 -0.1092 -0.3950
  793loPI   C4A12682   4.420   5.997   7.650  0.2384 -0.0733  0.2276
  793loPI   C5A12683   4.404   6.078   8.066  0.1724 -0.1833  0.1710
  793loPI   C6A12684   4.423   6.490   8.247 -0.2834 -0.0831  0.0960
  793loPI   C1B12685   4.611   5.538   6.536  0.1539  0.1476  0.1078
  793loPI   C2B12686   4.551   5.469   6.944 -0.1046 -0.2407  0.1493
  793loPI   C3B12687   4.577   5.451   7.267 -0.1323  0.0331  0.0943
  793loPI   C4B12688   4.543   5.529   7.772  0.1386 -0.3254  0.2890
  794loPI    C112689  16.125   7.219   5.589  0.2683 -0.3268  0.5408
  794loPI    C212690  16.444   7.429   5.469 -0.1530 -0.0960 -0.2478
  794loPI    C312691  16.336   7.098   5.271 -0.2634 -0.3167  0.1701
  794loPI   PO412692  16.112   7.240   5.848 -0.4524 -0.0682  0.1610
  794loPI   GL112693  16.041   7.462   6.285 -0.0648 -0.0281 -0.3812
  794loPI   GL212694  15.704   7.545   6.362  0.0268 -0.0076  0.2079
  794loPI   C1A12695  16.080   7.345   6.771  0.1059 -0.1447 -0.2074
  794loPI   C2A12696  16.149   7.400   7.245 -0.3425  0.1545 -0.0635
  794loPI   C3A12697  16.123   7.349   7.569 -0.0907  0.1920  0.0671
  794loPI   C4A12698  16.020   7.363   8.002 -0.2894  0.0086  0.0113
  794loPI   C5A12699  15.981   7.415   8.389  0.0648  0.3316  0.0854
  794loPI   C6A12700  16.211   7.737   8.669 -0.3091  0.1548  0.1820
  794loPI   C1B12701  15.617   7.565   6.738 -0.0614 -0.0113 -0.0146
  794loPI   C2B12702  15.605   7.534   7.237 -0.0189 -0.1583  0.0946
  794loPI   C3B12703  15.562   7.583   7.666  0.1622 -0.2634  0.0742
  794loPI   C4B12704  15.576   7.497   8.092 -0.1948 -0.3144  0.1997
  795loPI    C112705  14.853   0.192   5.173  0.0914  0.0728  0.0000
  795loPI    C212706  15.186   0.307   4.984 -0.0501  0.3054 -0.1131
  795loPI    C312707  14.875   0.168   4.774  0.0701 -0.1705  0.0122
  795loPI   PO412708  15.026   0.036   5.381 -0.1168 -0.1081 -0.1416
  795loPI   GL112709  14.973   0.049   5.794  0.1758  0.3321  0.3858
  795loPI   GL212710  15.321   0.143   5.899 -0.3911  0.0552  0.2168
  795loPI   C1A12711  14.910   0.171   6.251  0.2667  0.0369 -0.1746
  795loPI   C2A12712  14.953   0.110   6.712  0.0270 -0.0018 -0.0263
  795loPI   C3A12713  14.962   0.028   7.131 -0.0412 -0.0094  0.2664
  795loPI   C4A12714  14.923   0.109   7.539  0.3766 -0.0540 -0.2352
  795loPI   C5A12715  15.067   0.067   7.923  0.0096 -0.3288 -0.2019
  795loPI   C6A12716  15.428  -0.078   8.021  0.2164 -0.0798  0.0441
  795loPI   C1B12717  15.376  -0.016   6.243  0.1147 -0.0501  0.1683
  795loPI   C2B12718  15.408  -0.067   6.681  0.1770  0.0321  0.1565
  795loPI   C3B12719  15.452  -0.173   7.053 -0.1846  0.1110 -0.0261
  795loPI   C4B12720  15.522  -0.144   7.513  0.1594 -0.2467 -0.0362
  796loPI    C112721  16.972   7.074   5.198 -0.1435  0.0546 -0.1587
  796loPI    C212722  17.300   7.282   5.104 -0.1878  0.1196 -0.1704
  796loPI    C312723  17.274   6.895   5.008 -0.0559  0.0781 -0.0428
  796loPI   PO412724  16.861   7.164   5.448 -0.3193 -0.0942  0.0086
  796loPI   GL112725  16.857   7.201   5.864  0.1496 -0.0696 -0.2112
  796loPI   GL212726  17.008   6.905   5.929 -0.1518 -0.0864 -0.0841
  796loPI   C1A12727  16.901   7.321   6.279  0.0197  0.1145 -0.0989
  796loPI   C2A12728  17.020   7.469   6.720 -0.2276  0.0977 -0.0922
  796loPI   C3A12729  16.943   7.465   7.130  0.0435  0.2106 -0.0662
  796loPI   C4A12730  16.872   7.516   7.678 -0.0947 -0.3035  0.2298
  796loPI   C5A12731  16.845   7.543   8.107  0.2061  0.1068  0.2583
  796loPI   C6A12732  16.733   7.579   8.578 -0.0625  0.1216  0.1063
  796loPI   C1B12733  17.093   6.876   6.353  0.0084 -0.1759  0.1956
  796loPI   C2B12734  17.089   6.947   6.853  0.3262  0.2656  0.0646
  796loPI   C3B12735  17.097   7.024   7.361  0.2873 -0.1593 -0.1692
  796loPI   C4B12736  17.001   7.027   7.767 -0.1001 -0.0296 -0.0275
  797loPI    C112737   3.833   7.923   5.609 -0.1283 -0.0066  0.0456
  797loPI    C212738   3.540   8.102   5.405 -0.1235 -0.0597 -0.0079
  797loPI    C312739   3.770   7.828   5.226 -0.1667 -0.1602  0.0894
  797loPI   PO412740   3.678   7.857   5.810  0.0816 -0.0433  0.1331
  797loPI   GL112741   3.743   7.846   6.158 -0.0326  0.0076  0.1018
  797loPI   GL212742   3.813   8.206   6.212  0.1616  0.0826 -0.0170
  797loPI   C1A12743   3.679   7.642   6.620 -0.1943 -0.0306  0.1223
  797loPI   C2A12744   3.738   7.665   7.081  0.3768  0.1800 -0.0554
  797loPI   C3A12745   3.748   7.667   7.476  0.0988 -0.1670  0.1492
  797loPI   C4A12746   3.638   7.620   7.874  0.2036  0.2812  0.1966
  797loPI   C5A12747   3.576   7.690   8.313 -0.0499  0.0115 -0.1093
  797loPI   C6A12748   3.552   7.351   8.522 -0.0630 -0.1254  0.0559
  797loPI   C1B12749   3.646   8.204   6.591  0.1275  0.1165  0.3416
  797loPI   C2B12750   3.688   8.225   7.130 -0.1313  0.2652 -0.1206
  797loPI   C3B12751   3.614   8.109   7.634 -0.3305  0.1536  0.0089
  797loPI   C4B12752   3.606   8.167   7.973  0.0381  0.0188  0.1913
  798loPI    C112753   6.645   2.538   5.204  0.0905  0.1402 -0.0332
  798loPI    C212754   7.006   2.634   5.062  0.0738  0.1250 -0.0858
  798loPI    C312755   6.700   2.581   4.810  0.0907 -0.1012 -0.0607
  798loPI   PO412756   6.698   2.673   5.473  0.0363 -0.1929 -0.0324
  798loPI   GL112757   6.846   2.667   5.921 -0.0888 -0.1825 -0.1898
  798loPI   GL212758   6.699   2.977   6.065  0.0344 -0.0205 -0.0060
  798loPI   C1A12759   6.893   2.589   6.458 -0.1331  0.0897  0.1376
  798loPI   C2A12760   6.711   2.616   6.804 -0.2400 -0.1101 -0.0663
  798loPI   C3A12761   6.670   2.690   7.149 -0.2793  0.0006  0.1138
  798loPI   C4A12762   6.786   2.636   7.609  0.0523  0.1371 -0.3079
  798loPI   C5A12763   6.761   2.514   8.011  0.0928  0.0254  0.1854
  798loPI   C6A12764   6.889   2.596   8.468  0.0144  0.0558 -0.0037
  798loPI   C1B12765   6.729   3.056   6.417 -0.1945 -0.1796  0.0621
  798loPI   C2B12766   6.679   3.143   6.872 -0.0130  0.0826 -0.1006
  798loPI   C3B12767   6.705   3.203   7.283 -0.1029  0.2335 -0.0260
  798loPI   C4B12768   6.671   3.240   7.678 -0.0805 -0.0308  0.0781
  799loPI    C112769  14.739  15.418   5.663 -0.0855  0.0870  0.0737
  799loPI    C212770  14.733  15.172   5.348 -0.1004  0.0426  0.1086
  799loPI    C312771  14.879  15.542   5.309  0.0400 -0.0141  0.0870
  799loPI   PO412772  14.874  15.300   5.812 -0.0307  0.1251 -0.1119
  799loPI   GL112773  15.102  15.488   6.164 -0.0483  0.0985  0.0033
  799loPI   GL212774  14.728  15.588   6.165  0.1679  0.0453 -0.2004
  799loPI   C1A12775  15.273  15.772   6.433  0.1392 -0.0757  0.0051
  799loPI   C2A12776  15.287  15.836   6.826  0.1465 -0.1234  0.5217
  799loPI   C3A12777  15.307  15.839   7.275 -0.4207 -0.0125  0.0221
  799loPI   C4A12778  15.273  15.773   7.779 -0.1023  0.3872  0.0278
  799loPI   C5A12779  15.179  15.795   8.232 -0.0670  0.0143  0.2335
  799loPI   C6A12780  15.309  16.011   8.603  0.2590  0.0214  0.2857
  799loPI   C1B12781  14.876  15.504   6.569  0.4689  0.1150  0.1375
  799loPI   C2B12782  14.791  15.526   7.038 -0.0829 -0.3149 -0.0012
  799loPI   C3B12783  14.917  15.551   7.425 -0.1800  0.0164  0.0131
  799loPI   C4B12784  14.891  15.445   7.883  0.3041 -0.0654 -0.0338
  800loPI    C112785  14.310  13.715   5.271 -0.2761  0.1725  0.0970
  800loPI    C212786  14.586  14.003   5.293  0.0207 -0.0920 -0.0919
  800loPI    C312787  14.322  14.002   4.993  0.1070 -0.0920 -0.1683
  800loPI   PO412788  14.246  13.660   5.565 -0.2624 -0.1453  0.0199
  800loPI   GL112789  14.057  13.680   6.029 -0.4114  0.3592 -0.1788
  800loPI   GL212790  14.279  13.666   6.141 -0.0051 -0.1412  0.0926
  800loPI   C1A12791  13.911  13.469   6.459 -0.1234 -0.1808 -0.0368
  800loPI   C2A12792  13.812  13.465   6.858 -0.1198  0.0345  0.2555
  800loPI   C3A12793  13.762  13.382   7.212 -0.0979 -0.1828 -0.1355
  800loPI   C4A12794  13.825  13.405   7.624  0.1711 -0.0683 -0.0378
  800loPI   C5A12795  13.783  13.526   8.041 -0.2618  0.1919 -0.0387
  800loPI   C6A12796  13.708  13.536   8.502 -0.1132 -0.1613  0.1005
  800loPI   C1B12797  14.249  13.805   6.582  0.1135  0.2272 -0.0689
  800loPI   C2B12798  14.241  13.795   7.013 -0.0176 -0.2582  0.0414
  800loPI   C3B12799  14.127  13.776   7.316  0.1498  0.0652  0.0980
  800loPI   C4B12800  14.246  13.824   7.664  0.4469 -0.0080  0.2238
  801loPI    C112801   1.822   3.071   5.571 -0.0068 -0.0296 -0.0991
  801loPI    C212802   1.916   2.980   5.193  0.1464 -0.2679 -0.0062
  801loPI    C312803   1.532   3.005   5.304  0.1015 -0.2691 -0.1598
  801loPI   PO412804   1.898   2.913   5.687  0.0040 -0.0185 -0.2720
  801loPI   GL112805   1.838   2.957   6.100  0.0293  0.1477 -0.1595
  801loPI   GL212806   1.856   2.666   6.277  0.1792  0.1833  0.1437
  801loPI   C1A12807   1.726   3.052   6.491  0.1378 -0.1053  0.0628
  801loPI   C2A12808   1.811   3.200   7.016  0.0748 -0.1423  0.1861
  801loPI   C3A12809   1.653   3.141   7.433  0.1495  0.0366 -0.0024
  801loPI   C4A12810   1.598   3.201   7.825 -0.1610  0.1131 -0.1491
  801loPI   C5A12811   1.617   3.241   8.296 -0.2357 -0.1160 -0.0234
  801loPI   C6A12812   1.699   2.997   8.522 -0.0299 -0.3408 -0.0206
  801loPI   C1B12813   1.824   2.643   6.796 -0.2672  0.1562 -0.1219
  801loPI   C2B12814   1.794   2.641   7.232  0.1738 -0.1310  0.0554
  801loPI   C3B12815   1.760   2.734   7.676 -0.0111  0.0509  0.3296
  801loPI   C4B12816   1.726   2.749   8.100  0.1088 -0.0440 -0.0747
  802loPI    C112817  11.463  14.051   5.625  0.0601  0.0023  0.0906
  802loPI    C212818  11.608  14.254   5.312  0.0626 -0.0167  0.0794
  802loPI    C312819  11.618  13.854   5.314 -0.1607 -0.0240 -0.0047
  802loPI   PO412820  11.541  14.088   5.812 -0.4961  0.0360 -0.1189
  802loPI   GL112821  11.522  13.838   6.157 -0.4061  0.0467 -0.0426
  802loPI   GL212822  11.214  13.938   6.295 -0.1425  0.2315 -0.1991
  802loPI   C1A12823  11.560  13.883   6.616  0.2851  0.1616  0.1299
  802loPI   C2A12824  11.469  13.743   6.967 -0.0172  0.2255 -0.0980
  802loPI   C3A12825  11.508  13.845   7.423 -0.0039 -0.3891  0.1448
  802loPI   C4A12826  11.421  13.952   7.806 -0.0669  0.0886 -0.3051
  802loPI   C5A12827  11.379  14.214   8.168  0.4212  0.1862 -0.2622
  802loPI   C6A12828  11.163  14.442   8.444  0.0893  0.1299  0.1425
  802loPI   C1B12829  11.016  13.965   6.726  0.0301 -0.0298 -0.0879
  802loPI   C2B12830  11.051  14.122   7.124  0.0921  0.0116 -0.4205
  802loPI   C3B12831  11.029  14.022   7.566  0.0163  0.1821 -0.0277
  802loPI   C4B12832  10.828  13.907   7.855 -0.1969  0.1174  0.1082
  803loPI    C112833  13.800  11.528   5.500 -0.0765  0.1013  0.0175
  803loPI    C212834  13.528  11.767   5.331 -0.1318 -0.0290 -0.0795
  803loPI    C312835  13.824  11.613   5.110 -0.0440  0.0217  0.0019
  803loPI   PO412836  13.700  11.342   5.679 -0.1631 -0.2957  0.2425
  803loPI   GL112837  13.542  11.481   6.114 -0.4024  0.1116 -0.2622
  803loPI   GL212838  13.807  11.156   6.138 -0.1212  0.0395 -0.0207
  803loPI   C1A12839  13.790  11.592   6.437  0.0830  0.1522  0.0378
  803loPI   C2A12840  13.611  11.585   6.810 -0.0064  0.2794  0.0809
  803loPI   C3A12841  13.571  11.637   7.288  0.1866 -0.2106 -0.1137
  803loPI   C4A12842  13.565  11.499   7.752  0.0439 -0.1286  0.1039
  803loPI   C5A12843  13.511  11.616   8.120 -0.0868  0.0258  0.1412
  803loPI   C6A12844  13.877  11.592   8.353 -0.2216  0.0806 -0.0095
  803loPI   C1B12845  13.789  11.142   6.521  0.0748  0.0305  0.0733
  803loPI   C2B12846  13.778  11.112   6.977  0.4653  0.0674 -0.2022
  803loPI   C3B12847  13.660  11.070   7.395 -0.0448  0.3498  0.0900
  803loPI   C4B12848  13.634  11.022   7.866  0.1540 -0.2082  0.1501
  804loPI    C112849   9.732   2.589   5.337  0.0947  0.0063  0.0137
  804loPI    C212850   9.860   2.258   5.154  0.1898  0.1308 -0.1476
  804loPI    C312851   9.602   2.501   4.969 -0.0530  0.0342  0.0584
  804loPI   PO412852   9.729   2.502   5.599 -0.1247  0.1498 -0.1963
  804loPI   GL112853   9.645   2.737   6.005  0.3098  0.0696  0.1628
  804loPI   GL212854   9.890   2.812   6.044  0.0074 -0.0064 -0.3712
  804loPI   C1A12855   9.438   2.617   6.318 -0.0842  0.1788  0.1104
  804loPI   C2A12856   9.485   2.545   6.579 -0.3276  0.0975  0.0542
  804loPI   C3A12857   9.522   2.612   7.011 -0.0987 -0.0650 -0.0117
  804loPI   C4A12858   9.569   2.663   7.423 -0.4301 -0.2351  0.1531
  804loPI   C5A12859   9.640   2.678   7.814  0.3753 -0.2207  0.0527
  804loPI   C6A12860   9.759   2.909   8.283 -0.3759  0.2939  0.2466
  804loPI   C1B12861   9.910   2.973   6.495 -0.3238  0.2211 -0.0428
  804loPI   C2B12862   9.886   2.951   7.030 -0.2769 -0.0489  0.1441
  804loPI   C3B12863  10.033   2.899   7.511 -0.0127 -0.1377 -0.0315
  804loPI   C4B12864  10.089   2.847   7.935  0.0040 -0.0956 -0.0109
  805loPI    C112865   2.326  12.899   5.560 -0.1831  0.1575 -0.1280
  805loPI    C212866   2.662  13.064   5.418 -0.0179 -0.1276 -0.0772
  805loPI    C312867   2.363  12.971   5.169  0.0044 -0.0195 -0.1448
  805loPI   PO412868   2.450  12.747   5.812  0.1598  0.1159  0.1434
  805loPI   GL112869   2.466  12.818   6.127 -0.0445 -0.2246  0.1102
  805loPI   GL212870   2.211  12.648   6.278 -0.3091 -0.0960  0.0170
  805loPI   C1A12871   2.590  12.949   6.513  0.2585  0.0037  0.0572
  805loPI   C2A12872   2.574  12.980   7.024  0.0958 -0.0455  0.0620
  805loPI   C3A12873   2.508  12.980   7.458  0.0666  0.0861 -0.0778
  805loPI   C4A12874   2.556  12.849   7.787 -0.0674  0.1218  0.0419
  805loPI   C5A12875   2.474  12.890   8.224  0.0992 -0.2601  0.2097
  805loPI   C6A12876   2.243  12.796   8.576  0.0334  0.2157  0.2437
  805loPI   C1B12877   2.236  12.689   6.762 -0.1070  0.1647 -0.1129
  805loPI   C2B12878   2.223  12.550   7.208  0.3213  0.1306  0.0018
  805loPI   C3B12879   2.112  12.638   7.635 -0.2694  0.1576 -0.0705
  805loPI   C4B12880   2.001  12.643   8.140 -0.2530 -0.1655  0.2129
  806loPI    C112881  12.865   3.233   5.516  0.0517 -0.2312  0.1365
  806loPI    C212882  13.113   3.431   5.272 -0.1333 -0.0084  0.1259
  806loPI    C312883  12.831   3.192   5.120 -0.0627 -0.0957  0.1315
  806loPI   PO412884  12.915   3.326   5.826  0.0527 -0.0939  0.1797
  806loPI   GL112885  12.686   3.643   5.980  0.0615 -0.3227  0.3204
  806loPI   GL212886  12.577   3.382   6.191  0.2711  0.0404  0.3495
  806loPI   C1A12887  12.543   3.786   6.469  0.4792 -0.2403 -0.0715
  806loPI   C2A12888  12.554   3.871   6.892  0.0520 -0.0402  0.0230
  806loPI   C3A12889  12.575   3.815   7.334 -0.2900 -0.2683  0.2281
  806loPI   C4A12890  12.501   3.717   7.728  0.1261  0.3062  0.1898
  806loPI   C5A12891  12.506   3.879   8.190 -0.1218  0.1978 -0.0297
  806loPI   C6A12892  12.288   3.786   8.545  0.0630  0.0131 -0.0050
  806loPI   C1B12893  12.687   3.333   6.621  0.0405 -0.0345  0.0647
  806loPI   C2B12894  12.671   3.319   7.018  0.3447  0.0963 -0.0995
  806loPI   C3B12895  12.663   3.250   7.486 -0.0265  0.1057 -0.1235
  806loPI   C4B12896  12.537   3.286   7.953  0.1935  0.2242 -0.0440
  807loPI    C112897  16.408  13.648   5.725 -0.1169  0.0555 -0.1749
  807loPI    C212898  16.045  13.668   5.559 -0.1394  0.2941 -0.1007
  807loPI    C312899  16.370  13.733   5.336 -0.1266 -0.1366 -0.2168
  807loPI   PO412900  16.373  13.807   6.011 -0.3206  0.1517 -0.2068
  807loPI   GL112901  16.240  13.932   6.386 -0.0216  0.1351 -0.0145
  807loPI   GL212902  15.923  14.117   6.517  0.1969  0.3225  0.1370
  807loPI   C1A12903  16.457  13.894   6.736  0.2832  0.0444 -0.1981
  807loPI   C2A12904  16.527  13.872   7.184  0.0672  0.0507  0.2553
  807loPI   C3A12905  16.524  13.958   7.644 -0.3085 -0.0388 -0.0323
  807loPI   C4A12906  16.481  13.834   8.061 -0.0330 -0.3967  0.3139
  807loPI   C5A12907  16.682  13.727   8.537 -0.0529  0.3423  0.0630
  807loPI   C6A12908  16.493  13.774   8.893 -0.2208  0.0015  0.2470
  807loPI   C1B12909  16.057  14.079   6.934 -0.2174 -0.0741 -0.0319
  807loPI   C2B12910  15.979  14.098   7.387 -0.0033  0.0091 -0.3624
  807loPI   C3B12911  16.040  14.028   7.801  0.1729 -0.0960  0.1153
  807loPI   C4B12912  15.928  14.036   8.185 -0.0582  0.0667 -0.0101
  808loPI    C112913   2.085  15.962   5.585  0.1064 -0.2202 -0.0127
  808loPI    C212914   2.369  15.804   5.352  0.2856  0.0579  0.0131
  808loPI    C312915   2.113  16.072   5.201 -0.1378 -0.3856 -0.0805
  808loPI   PO412916   2.172  16.053   5.782 -0.0437  0.3517  0.1732
  808loPI   GL112917   2.067  16.245   6.141 -0.3203 -0.1405  0.2561
  808loPI   GL212918   1.669  16.157   6.327  0.1522 -0.2473 -0.0764
  808loPI   C1A12919   2.089  15.964   6.496  0.1183 -0.1506  0.3847
  808loPI   C2A12920   2.068  16.014   6.874 -0.1438 -0.0197  0.0354
  808loPI   C3A12921   2.008  16.100   7.324  0.4124  0.2636 -0.0008
  808loPI   C4A12922   1.992  16.173   7.762 -0.3761 -0.0808  0.0391
  808loPI   C5A12923   1.898  15.953   8.202 -0.1325 -0.2353  0.2427
  808loPI   C6A12924   2.045  15.848   8.599 -0.0882 -0.2918 -0.1557
  808loPI   C1B12925   1.562  16.199   6.721  0.3622 -0.0425  0.0262
  808loPI   C2B12926   1.480  16.232   7.116 -0.0843  0.0556 -0.0212
  808loPI   C3B12927   1.540  16.272   7.524 -0.0203 -0.0622  0.3300
  808loPI   C4B12928   1.520  16.208   7.935  0.1196 -0.2518 -0.0437
  809loPI    C112929   8.787  13.728   5.710 -0.2511  0.0198 -0.1416
  809loPI    C212930   8.931  13.439   5.473  0.1166  0.1556 -0.0901
  809loPI    C312931   8.565  13.587   5.408  0.0873 -0.0330 -0.3718
  809loPI   PO412932   8.714  13.622   5.938  0.1935  0.1544 -0.0176
  809loPI   GL112933   8.398  13.462   6.149  0.1497 -0.0084 -0.1032
  809loPI   GL212934   8.135  13.638   6.205 -0.2146  0.1020 -0.2071
  809loPI   C1A12935   8.456  13.536   6.561  0.1313  0.2097 -0.2496
  809loPI   C2A12936   8.375  13.551   6.961 -0.0783  0.0829 -0.0968
  809loPI   C3A12937   8.380  13.600   7.414 -0.0105  0.1233  0.2715
  809loPI   C4A12938   8.202  13.608   7.703 -0.1143 -0.0478 -0.1449
  809loPI   C5A12939   8.262  13.704   8.134 -0.0942 -0.5649  0.5063
  809loPI   C6A12940   8.173  13.723   8.609  0.0824  0.1702 -0.0803
  809loPI   C1B12941   7.959  13.645   6.598 -0.0504  0.2928 -0.0521
  809loPI   C2B12942   7.876  13.688   7.039 -0.0835 -0.3349  0.2691
  809loPI   C3B12943   7.774  13.817   7.526  0.1760 -0.0415  0.0393
  809loPI   C4B12944   7.770  13.841   7.907  0.0015 -0.2557 -0.0345
  810loPI    C112945  11.399   4.220   5.452  0.1884 -0.2848  0.0550
  810loPI    C212946  11.434   4.126   5.065  0.1455 -0.0249 -0.0140
  810loPI    C312947  11.759   4.216   5.279  0.1555 -0.0395 -0.0229
  810loPI   PO412948  11.286   4.015   5.586  0.1345  0.1630  0.1644
  810loPI   GL112949  11.190   3.951   6.005 -0.1605 -0.1422 -0.2336
  810loPI   GL212950  11.431   4.139   6.068 -0.0455 -0.0973  0.1805
  810loPI   C1A12951  11.108   3.907   6.469 -0.0203 -0.2301 -0.2584
  810loPI   C2A12952  11.175   3.860   6.943 -0.0732 -0.0415 -0.0379
  810loPI   C3A12953  11.083   3.840   7.375 -0.2291 -0.0093 -0.0520
  810loPI   C4A12954  11.099   3.856   7.870 -0.3083  0.0170  0.2452
  810loPI   C5A12955  11.234   3.811   8.299  0.1668  0.1346  0.2940
  810loPI   C6A12956  11.068   3.561   8.562  0.2306 -0.3889  0.0626
  810loPI   C1B12957  11.616   4.141   6.512  0.2027  0.0496 -0.1046
  810loPI   C2B12958  11.579   4.183   6.981 -0.2262 -0.3044  0.1162
  810loPI   C3B12959  11.546   4.101   7.367  0.1525  0.0615  0.3229
  810loPI   C4B12960  11.525   4.160   7.788 -0.1612 -0.2037  0.1798
  811loPI    C112961  13.039   9.087   5.491 -0.1846  0.0787 -0.0178
  811loPI    C212962  12.781   8.890   5.258  0.1375 -0.2906 -0.0734
  811loPI    C312963  12.823   9.286   5.220  0.0042 -0.3098 -0.4674
  811loPI   PO412964  13.043   9.004   5.751 -0.0246  0.1651  0.1774
  811loPI   GL112965  12.772   8.952   6.124 -0.0525  0.1332 -0.1435
  811loPI   GL212966  12.483   8.948   6.113 -0.1065 -0.0883 -0.1205
  811loPI   C1A12967  12.765   9.091   6.591 -0.1382 -0.1317  0.0561
  811loPI   C2A12968  12.627   9.102   6.996  0.2533  0.0862 -0.0692
  811loPI   C3A12969  12.636   9.081   7.423 -0.1216  0.2585 -0.0853
  811loPI   C4A12970  12.607   9.049   7.812  0.2816 -0.1910 -0.4673
  811loPI   C5A12971  12.370   8.976   8.269 -0.1390  0.0317 -0.1415
  811loPI   C6A12972  12.002   9.115   8.480  0.0264 -0.1162 -0.2059
  811loPI   C1B12973  12.327   8.815   6.457  0.0998  0.2771  0.0407
  811loPI   C2B12974  12.229   8.786   6.838 -0.2500 -0.0780 -0.1254
  811loPI   C3B12975  12.283   8.654   7.348 -0.1398 -0.1245 -0.0409
  811loPI   C4B12976  12.265   8.692   7.868 -0.0276 -0.0208  0.0569
  812loPI    C112977   8.674  17.251   5.704  0.1460  0.0322  0.0479
  812loPI    C212978   8.646  16.949   5.444  0.2292 -0.0799  0.1681
  812loPI    C312979   8.727  17.318   5.313 -0.3635 -0.0105 -0.0357
  812loPI   PO412980   8.756  16.996   5.935 -0.1184 -0.1105  0.1636
  812loPI   GL112981   8.870  16.897   6.342  0.0227  0.3694 -0.0940
  812loPI   GL212982   9.077  17.035   6.376  0.1009  0.0031  0.0419
  812loPI   C1A12983   8.702  16.856   6.739 -0.1487  0.0984  0.0094
  812loPI   C2A12984   8.669  16.823   7.140  0.1626 -0.0992  0.0566
  812loPI   C3A12985   8.692  16.815   7.545 -0.3909 -0.0570 -0.4470
  812loPI   C4A12986   8.714  16.857   7.918  0.0198 -0.2065 -0.2255
  812loPI   C5A12987   8.442  16.782   8.304  0.1984  0.2225 -0.3540
  812loPI   C6A12988   8.215  16.419   8.337 -0.1927 -0.0309 -0.3450
  812loPI   C1B12989   9.169  17.106   6.774 -0.0722  0.1924 -0.0897
  812loPI   C2B12990   9.114  17.106   7.112  0.0147  0.0361  0.2405
  812loPI   C3B12991   9.083  17.230   7.537 -0.1273  0.1751 -0.0262
  812loPI   C4B12992   9.124  17.143   7.962  0.0621 -0.1446 -0.1872
  813loPI    C112993  12.556  16.260   5.417  0.1352  0.1979 -0.0007
  813loPI    C212994  12.925  16.301   5.267  0.1649 -0.1225 -0.0240
  813loPI    C312995  12.718  15.965   5.200 -0.1240  0.0448  0.0087
  813loPI   PO412996  12.606  16.418   5.641 -0.0613 -0.0965  0.1848
  813loPI   GL112997  12.521  16.507   6.089 -0.1193 -0.0354  0.0329
  813loPI   GL212998  12.254  16.704   6.165  0.1261 -0.0613 -0.0062
  813loPI   C1A12999  12.543  16.315   6.470  0.0734 -0.0360 -0.4133
  813loPI   C2A13000  12.378  16.351   6.734 -0.1322  0.1226 -0.2478
  813loPI   C3A13001  12.330  16.323   7.191 -0.2275  0.0634 -0.0927
  813loPI   C4A13002  12.417  16.283   7.585  0.1895 -0.0735 -0.3417
  813loPI   C5A13003  12.533  16.287   8.052  0.0195 -0.0523  0.0268
  813loPI   C6A13004  12.390  16.386   8.457 -0.0096 -0.2818  0.0813
  813loPI   C1B13005  12.272  16.798   6.580 -0.2143  0.1407 -0.3150
  813loPI   C2B13006  12.277  16.799   7.025 -0.0430  0.1696 -0.1593
  813loPI   C3B13007  12.411  16.767   7.356 -0.0479  0.2083 -0.0623
  813loPI   C4B13008  12.400  16.720   7.764  0.1946 -0.0964  0.0164
  814loPI    C113009   2.978   9.990   5.675  0.2195  0.0060 -0.0879
  814loPI    C213010   2.936   9.903   5.287 -0.0034  0.2447 -0.1202
  814loPI    C313011   2.655  10.116   5.475  0.1081  0.1388  0.1715
  814loPI   PO413012   3.108   9.741   5.774  0.2207 -0.0590 -0.0473
  814loPI   GL113013   3.412   9.672   6.065  0.1487  0.0459  0.1239
  814loPI   GL213014   3.656   9.417   6.152 -0.0917 -0.4568  0.2437
  814loPI   C1A13015   3.516   9.760   6.470  0.1860  0.0828  0.1008
  814loPI   C2A13016   3.567   9.733   6.914  0.1346  0.1514  0.2179
  814loPI   C3A13017   3.517   9.706   7.345  0.1200  0.4139  0.1134
  814loPI   C4A13018   3.355   9.616   7.847 -0.3589  0.3438 -0.2976
  814loPI   C5A13019   3.069   9.669   8.073 -0.0690  0.2285  0.1019
  814loPI   C6A13020   2.940   9.738   8.385 -0.2587 -0.1863 -0.2645
  814loPI   C1B13021   3.532   9.208   6.572 -0.1400 -0.0606 -0.0812
  814loPI   C2B13022   3.525   9.251   7.039  0.0852  0.0133 -0.0461
  814loPI   C3B13023   3.432   9.220   7.502  0.0466 -0.0980  0.2183
  814loPI   C4B13024   3.477   9.153   8.028 -0.0047 -0.2967 -0.0325
  815loPI    C113025  12.462  12.762   5.522 -0.2589  0.0424  0.0836
  815loPI    C213026  12.158  12.696   5.269 -0.1029  0.0514 -0.1087
  815loPI    C313027  12.534  12.703   5.133 -0.0232  0.1423  0.1107
  815loPI   PO413028  12.445  12.643   5.688 -0.0365 -0.2082 -0.3458
  815loPI   GL113029  12.312  12.524   6.088 -0.2452 -0.2410  0.1362
  815loPI   GL213030  12.171  12.177   6.026  0.0006 -0.1084 -0.1200
  815loPI   C1A13031  12.165  12.610   6.422  0.3479  0.1379 -0.1612
  815loPI   C2A13032  12.157  12.622   6.869  0.3499 -0.1073  0.2116
  815loPI   C3A13033  12.128  12.550   7.273 -0.0856 -0.3343 -0.1669
  815loPI   C4A13034  12.077  12.681   7.748 -0.1787  0.1360 -0.0374
  815loPI   C5A13035  11.925  12.782   8.166  0.1401  0.1618  0.1211
  815loPI   C6A13036  12.034  12.830   8.615  0.0184 -0.1599 -0.1120
  815loPI   C1B13037  12.285  12.115   6.446  0.2172  0.2925  0.4149
  815loPI   C2B13038  12.279  12.164   6.908 -0.1290  0.0356 -0.0367
  815loPI   C3B13039  12.165  12.047   7.341 -0.1758 -0.0184 -0.0559
  815loPI   C4B13040  12.212  12.183   7.739 -0.1836 -0.0323  0.1579
  816loPI    C113041   0.404   1.677   5.417  0.1451 -0.0526 -0.0625
  816loPI    C213042   0.380   1.331   5.218 -0.0954 -0.0828  0.0155
  816loPI    C313043   0.435   1.674   5.018  0.5411 -0.2022 -0.0347
  816loPI   PO413044   0.561   1.584   5.629 -0.1804  0.0485  0.4331
  816loPI   GL113045   0.476   1.421   6.113 -0.1665 -0.2102 -0.0349
  816loPI   GL213046   0.336   1.117   6.182 -0.2891  0.0125 -0.2614
  816loPI   C1A13047   0.667   1.628   6.488 -0.1789 -0.5162 -0.0634
  816loPI   C2A13048   0.569   1.612   6.944 -0.3920  0.0048 -0.2042
  816loPI   C3A13049   0.548   1.662   7.368  0.2954  0.1516  0.0975
  816loPI   C4A13050   0.521   1.688   7.769  0.0733 -0.1743 -0.0166
  816loPI   C5A13051   0.507   1.726   8.239 -0.0995 -0.0120 -0.0784
  816loPI   C6A13052   0.830   1.597   8.535  0.1631 -0.2982 -0.1313
  816loPI   C1B13053   0.267   1.311   6.605  0.3658  0.1468  0.0939
  816loPI   C2B13054   0.136   1.375   7.037 -0.1652  0.0940 -0.0063
  816loPI   C3B13055   0.149   1.438   7.439  0.1081 -0.2393 -0.0573
  816loPI   C4B13056   0.128   1.418   7.919 -0.0536  0.4534  0.0968
  817loPI    C113057  14.272   3.248   5.188  0.1356  0.1123 -0.1930
  817loPI    C213058  14.352   3.032   4.860  0.0951 -0.1384 -0.0404
  817loPI    C313059  13.973   3.126   4.951  0.1180  0.0595 -0.1440
  817loPI   PO413060  14.313   3.176   5.382 -0.3049  0.4041  0.1997
  817loPI   GL113061  14.306   3.115   5.925 -0.1450  0.1789 -0.1571
  817loPI   GL213062  14.062   2.992   6.090  0.0975  0.0991  0.2508
  817loPI   C1A13063  14.498   3.079   6.379  0.1790 -0.1589  0.1782
  817loPI   C2A13064  14.438   3.077   6.848 -0.0175 -0.1632  0.0716
  817loPI   C3A13065  14.419   3.178   7.314 -0.1556  0.0014 -0.1064
  817loPI   C4A13066  14.517   3.186   7.687 -0.0233 -0.3393 -0.1877
  817loPI   C5A13067  14.488   3.165   8.204 -0.2172  0.2070  0.0190
  817loPI   C6A13068  14.881   3.352   8.312 -0.0876  0.1367 -0.2718
  817loPI   C1B13069  14.083   2.793   6.580 -0.2465 -0.2622  0.1526
  817loPI   C2B13070  14.091   2.752   7.019  0.3264  0.0490 -0.2173
  817loPI   C3B13071  14.034   2.890   7.303  0.1994  0.0693  0.2628
  817loPI   C4B13072  14.157   2.846   7.693  0.0224  0.0278  0.0717
  818loPI    C113073  15.122   9.806   5.616 -0.0307  0.2221  0.1169
  818loPI    C213074  14.914   9.541   5.399  0.1382  0.0679  0.1408
  818loPI    C313075  15.063   9.869   5.225  0.0653  0.0670  0.0763
  818loPI   PO413076  15.148   9.796   5.879 -0.2100  0.0152 -0.0309
  818loPI   GL113077  14.869  10.001   6.149 -0.3626  0.0382 -0.1114
  818loPI   GL213078  14.822   9.717   6.316  0.0874 -0.1632 -0.4605
  818loPI   C1A13079  14.765  10.174   6.625  0.1499 -0.0319  0.0658
  818loPI   C2A13080  14.808  10.240   7.084 -0.0751  0.1345  0.1632
  818loPI   C3A13081  14.696  10.190   7.499  0.0900 -0.1964  0.0619
  818loPI   C4A13082  14.660  10.289   7.909  0.1262  0.0894 -0.3632
  818loPI   C5A13083  14.500  10.535   8.308  0.1496 -0.1506 -0.0859
  818loPI   C6A13084  14.413  10.840   8.644 -0.0711 -0.3449  0.2517
  818loPI   C1B13085  14.867   9.654   6.723  0.0283  0.0163  0.0446
  818loPI   C2B13086  14.875   9.712   7.096  0.0756 -0.0607  0.2139
  818loPI   C3B13087  14.762   9.655   7.439  0.1135 -0.0603  0.0611
  818loPI   C4B13088  14.784   9.776   7.895  0.0112 -0.2936 -0.0980
  819loPI    C113089   1.975   2.014   5.456  0.1484 -0.0581 -0.1017
  819loPI    C213090   1.907   1.722   5.192 -0.0903  0.0020 -0.1086
  819loPI    C313091   2.271   1.768   5.350 -0.0244 -0.2302 -0.1900
  819loPI   PO413092   1.876   1.914   5.732 -0.4207 -0.2217  0.1798
  819loPI   GL113093   2.108   1.856   6.006  0.0460  0.2315 -0.1941
  819loPI   GL213094   1.908   1.633   6.177  0.3457 -0.1324 -0.2587
  819loPI   C1A13095   2.317   1.914   6.445  0.1198  0.0331 -0.0201
  819loPI   C2A13096   2.393   1.914   6.801  0.2595 -0.3181  0.0872
  819loPI   C3A13097   2.361   1.940   7.246  0.2929  0.0651 -0.0295
  819loPI   C4A13098   2.265   2.089   7.646 -0.3386 -0.0764  0.2426
  819loPI   C5A13099   2.258   2.056   8.039 -0.1090 -0.0319 -0.1161
  819loPI   C6A13100   2.301   2.010   8.510  0.1122  0.1057  0.2979
  819loPI   C1B13101   1.964   1.643   6.656  0.1070 -0.0139  0.1487
  819loPI   C2B13102   1.979   1.654   7.093 -0.0231  0.0721 -0.0274
  819loPI   C3B13103   1.927   1.734   7.434  0.3453 -0.2762 -0.2347
  819loPI   C4B13104   1.912   1.691   7.783  0.1339  0.0529  0.0599
  820loPI    C113105   6.888   9.160   5.490  0.0388 -0.0490 -0.1464
  820loPI    C213106   7.135   9.117   5.178 -0.1398 -0.0229 -0.2939
  820loPI    C313107   6.740   9.133   5.119 -0.1798 -0.0957 -0.0576
  820loPI   PO413108   7.030   9.011   5.740  0.1431  0.0363  0.2121
  820loPI   GL113109   7.046   9.032   6.150  0.0320 -0.0719  0.1794
  820loPI   GL213110   6.947   8.789   6.190  0.0680 -0.0111  0.2167
  820loPI   C1A13111   7.208   9.283   6.461  0.0312  0.3191  0.0472
  820loPI   C2A13112   7.168   9.328   6.872 -0.2297  0.0124  0.0954
  820loPI   C3A13113   7.177   9.227   7.347 -0.0024 -0.1382  0.2144
  820loPI   C4A13114   7.083   9.203   7.863  0.1302 -0.3834 -0.1170
  820loPI   C5A13115   7.018   9.232   8.279  0.0271  0.2050 -0.1380
  820loPI   C6A13116   6.770   9.079   8.572 -0.1673  0.0830  0.0616
  820loPI   C1B13117   7.284   8.775   6.487 -0.0282 -0.0244 -0.2222
  820loPI   C2B13118   7.374   8.754   6.908  0.0539 -0.0031 -0.1309
  820loPI   C3B13119   7.267   8.728   7.315  0.0724  0.1940  0.1577
  820loPI   C4B13120   7.221   8.711   7.760 -0.2796 -0.1626 -0.2673
  821loPI    C113121  11.521   8.670   5.564 -0.0765 -0.2896  0.0582
  821loPI    C213122  11.834   8.514   5.370  0.2718  0.1640  0.2351
  821loPI    C313123  11.475   8.522   5.196  0.4214 -0.0835 -0.0963
  821loPI   PO413124  11.633   8.536   5.867  0.1900 -0.1071  0.4000
  821loPI   GL113125  11.601   8.193   6.181  0.1724 -0.2739 -0.1718
  821loPI   GL213126  11.953   7.989   6.255 -0.0440  0.6176 -0.1981
  821loPI   C1A13127  11.437   8.088   6.639 -0.2132 -0.1920 -0.1670
  821loPI   C2A13128  11.482   8.069   7.083  0.0915  0.1352  0.2750
  821loPI   C3A13129  11.446   8.069   7.520  0.0492  0.3399 -0.0302
  821loPI   C4A13130  11.508   8.052   7.972 -0.0548  0.0355  0.0318
  821loPI   C5A13131  11.755   8.173   8.263 -0.0930 -0.0086  0.1469
  821loPI   C6A13132  11.963   8.221   8.598  0.4444  0.1711  0.2760
  821loPI   C1B13133  11.975   7.937   6.708  0.0589 -0.1026  0.0637
  821loPI   C2B13134  11.943   7.914   7.126 -0.0287 -0.1752 -0.1887
  821loPI   C3B13135  12.035   7.920   7.541  0.0115 -0.2701 -0.0029
  821loPI   C4B13136  11.979   7.832   7.948  0.2128 -0.1008 -0.1470
  822loPI    C113137   3.038  17.366   5.702  0.2107  0.0779 -0.0769
  822loPI    C213138   3.054  17.085   5.419 -0.0008  0.1365 -0.1491
  822loPI    C313139   2.700  17.229   5.537  0.0848  0.1081  0.1502
  822loPI   PO413140   3.051  17.316   5.912  0.2858  0.2517  0.0956
  822loPI   GL113141   2.732  17.420   6.289 -0.1374  0.1011 -0.0346
  822loPI   GL213142   2.761  17.228   6.455 -0.2321 -0.0313 -0.2324
  822loPI   C1A13143   2.678  17.691   6.650 -0.1768  0.1754 -0.0292
  822loPI   C2A13144   2.639  17.681   6.957 -0.1483 -0.0571 -0.0606
  822loPI   C3A13145   2.680  17.754   7.365  0.2635  0.0282  0.1141
  822loPI   C4A13146   2.547  17.670   7.763 -0.2850 -0.0744  0.1098
  822loPI   C5A13147   2.566  17.815   8.130  0.1968  0.2241 -0.0795
  822loPI   C6A13148   2.730  17.752   8.481  0.0233  0.0331 -0.0190
  822loPI   C1B13149   2.747  17.149   6.875  0.1414  0.3634 -0.2268
  822loPI   C2B13150   2.738  17.244   7.355  0.0768 -0.2360  0.0062
  822loPI   C3B13151   2.742  17.201   7.803  0.1634  0.2450  0.0487
  822loPI   C4B13152   2.703  17.277   8.240 -0.2791  0.0775  0.0129
  823loPI    C113153  12.067  17.260   5.438  0.2050 -0.1345 -0.1698
  823loPI    C213154  11.741  17.342   5.220 -0.0610  0.0080  0.2675
  823loPI    C313155  12.094  17.285   5.040 -0.3052 -0.0549 -0.2066
  823loPI   PO413156  12.006  17.463   5.679 -0.0879 -0.4253 -0.0072
  823loPI   GL113157  12.250  17.705   5.968  0.2653  0.0527  0.0897
  823loPI   GL213158  12.230  17.347   6.173 -0.0555 -0.2428  0.1030
  823loPI   C1A13159  12.139  17.792   6.401 -0.2664 -0.0270  0.1167
  823loPI   C2A13160  12.232  17.875   6.828  0.0187 -0.1927 -0.1051
  823loPI   C3A13161  12.273  17.885   7.305  0.0562  0.2651  0.2103
  823loPI   C4A13162  12.292  17.787   7.808 -0.3420 -0.2262  0.2014
  823loPI   C5A13163  12.406  17.682   8.251  0.3526 -0.1574 -0.4071
  823loPI   C6A13164  12.176  17.519   8.628  0.1052  0.1843  0.0872
  823loPI   C1B13165  12.290  17.353   6.636 -0.2451 -0.0932 -0.0143
  823loPI   C2B13166  12.317  17.409   7.131 -0.0053  0.2864  0.0388
  823loPI   C3B13167  12.308  17.337   7.524 -0.0851  0.2900  0.3252
  823loPI   C4B13168  12.377  17.270   7.919 -0.1957 -0.1391 -0.3454
  824loPI    C113169   8.107  13.577   5.637 -0.0062 -0.1252 -0.1135
  824loPI    C213170   7.802  13.570   5.379  0.0079 -0.1159 -0.1306
  824loPI    C313171   8.121  13.799   5.304 -0.0285 -0.0414 -0.0587
  824loPI   PO413172   8.005  13.382   5.805 -0.1222  0.2665 -0.0093
  824loPI   GL113173   7.700  13.383   6.185 -0.5082  0.1158 -0.1043
  824loPI   GL213174   7.572  13.026   6.330  0.0335 -0.0640  0.1344
  824loPI   C1A13175   7.496  13.469   6.599 -0.0991  0.2611 -0.0848
  824loPI   C2A13176   7.466  13.492   7.099  0.3252 -0.0998 -0.3151
  824loPI   C3A13177   7.331  13.534   7.555 -0.2189  0.0341 -0.2537
  824loPI   C4A13178   7.399  13.505   7.919 -0.1533  0.1733 -0.2837
  824loPI   C5A13179   7.390  13.453   8.284 -0.1474 -0.0885 -0.0209
  824loPI   C6A13180   7.341  13.132   8.622  0.0733 -0.0815  0.1513
  824loPI   C1B13181   7.570  12.928   6.824  0.1539  0.1973  0.2337
  824loPI   C2B13182   7.447  12.968   7.215  0.2258 -0.2556  0.0819
  824loPI   C3B13183   7.432  13.004   7.734 -0.0733 -0.4176  0.2242
  824loPI   C4B13184   7.613  13.024   8.197  0.0760 -0.1661  0.1897
  825loPI    C113185   9.013   2.676   5.287 -0.0301 -0.1461  0.0907
  825loPI    C213186   9.285   2.383   5.293  0.0867 -0.0422 -0.0580
  825loPI    C313187   9.099   2.476   4.952  0.2103  0.2018 -0.0618
  825loPI   PO413188   8.899   2.557   5.509  0.0249 -0.1779  0.3119
  825loPI   GL113189   8.869   2.745   5.776 -0.0891 -0.1305 -0.0125
  825loPI   GL213190   8.634   2.886   5.855 -0.0959 -0.3596  0.0773
  825loPI   C1A13191   9.044   2.842   6.164  0.4210 -0.2171  0.0408
  825loPI   C2A13192   9.046   2.811   6.568 -0.4539 -0.1757  0.3118
  825loPI   C3A13193   8.944   2.779   6.985 -0.0526 -0.0750  0.1087
  825loPI   C4A13194   9.050   2.777   7.419  0.0479 -0.1129  0.0761
  825loPI   C5A13195   9.160   2.814   7.844 -0.2215  0.2234 -0.1474
  825loPI   C6A13196   8.941   2.733   8.270 -0.2863  0.0873  0.2605
  825loPI   C1B13197   8.552   3.011   6.306  0.2356 -0.0407  0.1333
  825loPI   C2B13198   8.580   3.009   6.739 -0.2842 -0.0120 -0.1570
  825loPI   C3B13199   8.492   2.911   7.206  0.0632  0.0041  0.1350
  825loPI   C4B13200   8.543   2.970   7.615 -0.1270 -0.0034  0.2506
  826loPI    C113201   6.785   6.950   5.385  0.0226  0.0431  0.0120
  826loPI    C213202   6.864   6.855   5.005 -0.1310 -0.1648  0.0304
  826loPI    C313203   7.072   6.685   5.301 -0.0486 -0.0442  0.0423
  826loPI   PO413204   6.664   6.960   5.596 -0.0718 -0.1970  0.0551
  826loPI   GL113205   6.582   7.015   6.115  0.0269 -0.1429 -0.1336
  826loPI   GL213206   6.874   7.076   6.121 -0.2764 -0.1638 -0.2066
  826loPI   C1A13207   6.660   7.151   6.600  0.1627  0.1806  0.3443
  826loPI   C2A13208   6.576   7.159   6.941 -0.2245  0.0985  0.1046
  826loPI   C3A13209   6.529   7.043   7.377  0.1685 -0.0904  0.0399
  826loPI   C4A13210   6.470   7.151   7.752 -0.1813  0.0810 -0.2633
  826loPI   C5A13211   6.516   7.274   8.247 -0.0911  0.0969 -0.2640
  826loPI   C6A13212   6.420   7.404   8.737  0.1574  0.0255  0.1829
  826loPI   C1B13213   7.089   7.082   6.425 -0.2107 -0.1197  0.1042
  826loPI   C2B13214   7.144   6.925   6.818  0.3571 -0.1990  0.2531
  826loPI   C3B13215   7.054   6.919   7.280  0.2916  0.2975  0.0207
  826loPI   C4B13216   6.946   6.900   7.661 -0.1750  0.0076  0.0392
  827loPI    C113217  17.713   1.424   5.880  0.0661 -0.0990 -0.1194
  827loPI    C213218  17.601   1.647   5.567  0.0914 -0.3294 -0.2957
  827loPI    C313219  17.653   1.253   5.523  0.3781 -0.3204 -0.0697
  827loPI   PO413220  17.504   1.552   6.041  0.0586 -0.0029  0.2929
  827loPI   GL113221  17.390   1.455   6.341 -0.0536  0.0197  0.1863
  827loPI   GL213222  17.552   1.119   6.384 -0.1017 -0.2221 -0.1027
  827loPI   C1A13223  17.459   1.531   6.760 -0.0029 -0.0128  0.0197
  827loPI   C2A13224  17.432   1.554   7.217 -0.3365 -0.1350  0.1369
  827loPI   C3A13225  17.424   1.499   7.639  0.1679 -0.3161  0.2217
  827loPI   C4A13226  17.406   1.535   8.071 -0.0816  0.2321 -0.0720
  827loPI   C5A13227  17.268   1.349   8.448  0.1972 -0.0809 -0.0360
  827loPI   C6A13228  17.091   0.943   8.735  0.0839  0.0399  0.3337
  827loPI   C1B13229  17.577   1.042   6.811 -0.0469  0.2808  0.1585
  827loPI   C2B13230  17.539   1.056   7.263  0.0070 -0.6382  0.1403
  827loPI   C3B13231  17.454   0.974   7.596  0.0880  0.2580 -0.1549
  827loPI   C4B13232  17.297   0.953   8.119 -0.3046 -0.1048 -0.0298
  828loPI    C113233  12.239   0.317   5.357  0.1860 -0.0766 -0.0841
  828loPI    C213234  12.005  -0.001   5.292  0.0364 -0.0599  0.3414
  828loPI    C313235  12.304   0.082   5.040 -0.1575 -0.3177  0.0177
  828loPI   PO413236  12.329   0.361   5.678  0.1695  0.1065 -0.2698
  828loPI   GL113237  12.106   0.452   6.079  0.2102 -0.2564  0.1654
  828loPI   GL213238  11.844   0.685   6.018  0.0459  0.0561 -0.1412
  828loPI   C1A13239  12.116   0.564   6.500  0.1975  0.2880 -0.0907
  828loPI   C2A13240  12.201   0.590   6.948  0.1356  0.2009  0.0519
  828loPI   C3A13241  12.134   0.641   7.419  0.2401 -0.0313 -0.0269
  828loPI   C4A13242  12.277   0.551   7.840  0.1291 -0.2061 -0.0776
  828loPI   C5A13243  12.208   0.462   8.287  0.1515  0.1091 -0.2236
  828loPI   C6A13244  11.962   0.409   8.607  0.1924 -0.0834 -0.2066
  828loPI   C1B13245  11.697   0.795   6.397  0.2304 -0.0185 -0.2447
  828loPI   C2B13246  11.724   0.741   6.903  0.0267  0.1543 -0.1371
  828loPI   C3B13247  11.671   0.807   7.281 -0.4196  0.3549  0.2247
  828loPI   C4B13248  11.599   0.815   7.721 -0.0776  0.1056  0.2359
  829loPI    C113249  10.284   2.744   5.662 -0.0465 -0.2051  0.0222
  829loPI    C213250  10.542   2.525   5.447 -0.1207 -0.1907 -0.0820
  829loPI    C313251  10.193   2.638   5.287  0.0471  0.2669 -0.1416
  829loPI   PO413252  10.438   2.871   5.824 -0.2407 -0.0389 -0.1836
  829loPI   GL113253  10.571   2.683   6.201 -0.1015  0.1356 -0.1052
  829loPI   GL213254  10.310   2.752   6.342  0.2082  0.3461  0.0959
  829loPI   C1A13255  10.840   2.540   6.500 -0.0318  0.0566 -0.1285
  829loPI   C2A13256  10.945   2.473   6.825 -0.0045 -0.0219 -0.0105
  829loPI   C3A13257  10.886   2.531   7.287 -0.4397 -0.3746  0.0566
  829loPI   C4A13258  10.970   2.521   7.644  0.5007  0.1145 -0.0934
  829loPI   C5A13259  10.913   2.438   8.056 -0.1260 -0.2032 -0.0975
  829loPI   C6A13260  10.688   2.099   8.333  0.0694  0.0777 -0.0363
  829loPI   C1B13261  10.371   2.732   6.817  0.0779 -0.0851  0.2093
  829loPI   C2B13262  10.465   2.716   7.285 -0.2127 -0.0718  0.1648
  829loPI   C3B13263  10.512   2.686   7.710  0.0880 -0.2269 -0.0881
  829loPI   C4B13264  10.712   2.868   8.144  0.3088 -0.2455  0.2875
  830loPI    C113265  10.240  11.999   5.453 -0.1818 -0.0557  0.1235
  830loPI    C213266   9.865  11.868   5.408 -0.1926  0.0209 -0.0148
  830loPI    C313267  10.135  11.807   5.119 -0.0923 -0.0523  0.0930
  830loPI   PO413268  10.239  12.050   5.803  0.0766 -0.0662  0.3990
  830loPI   GL113269  10.194  12.051   6.172  0.0123  0.0117 -0.0023
  830loPI   GL213270  10.454  12.158   6.384  0.0185 -0.0855 -0.0053
  830loPI   C1A13271  10.070  11.847   6.528 -0.1214 -0.0212  0.0549
  830loPI   C2A13272  10.025  12.011   6.992  0.1319  0.0988 -0.0377
  830loPI   C3A13273   9.917  12.013   7.367  0.1180 -0.1693 -0.0154
  830loPI   C4A13274   9.856  11.960   7.834 -0.2539 -0.0842 -0.0272
  830loPI   C5A13275   9.905  12.049   8.218 -0.1884  0.3154 -0.1057
  830loPI   C6A13276   9.813  12.341   8.519 -0.1817 -0.2354  0.4437
  830loPI   C1B13277  10.359  12.281   6.766 -0.1356 -0.0302  0.2814
  830loPI   C2B13278  10.363  12.359   7.241 -0.1063  0.1716  0.1042
  830loPI   C3B13279  10.282  12.312   7.659  0.0391 -0.1271  0.1356
  830loPI   C4B13280  10.349  12.222   8.090 -0.2483  0.0199 -0.0620
  831loPI    C113281   2.186  13.438   5.756  0.0237 -0.1099 -0.0237
  831loPI    C213282   2.388  13.605   5.454 -0.3306  0.2784 -0.0554
  831loPI    C313283   2.095  13.343   5.378 -0.0436 -0.0605 -0.0201
  831loPI   PO413284   2.390  13.343   5.884 -0.0376  0.0071 -0.3220
  831loPI   GL113285   2.354  13.344   6.287 -0.2059  0.1464  0.2178
  831loPI   GL213286   2.456  13.657   6.403  0.2839 -0.0455  0.2518
  831loPI   C1A13287   2.083  13.167   6.617  0.0508  0.2150  0.0931
  831loPI   C2A13288   2.068  13.137   7.037  0.1808 -0.2868 -0.3215
  831loPI   C3A13289   2.034  13.089   7.426 -0.0660 -0.2809 -0.2452
  831loPI   C4A13290   2.082  13.108   7.877  0.2044  0.1823  0.0866
  831loPI   C5A13291   1.978  13.107   8.342  0.0945 -0.1971  0.0019
  831loPI   C6A13292   1.577  13.154   8.533  0.1377  0.0040  0.3930
  831loPI   C1B13293   2.499  13.497   6.779 -0.1352  0.0559 -0.0744
  831loPI   C2B13294   2.387  13.459   7.257 -0.3096  0.0655 -0.2286
  831loPI   C3B13295   2.462  13.403   7.770  0.0436  0.1753  0.4028
  831loPI   C4B13296   2.466  13.399   8.189 -0.1349 -0.1794  0.1493
  832loPI    C113297   7.925  17.489   5.568  0.0869 -0.2051  0.0735
  832loPI    C213298   7.826  17.183   5.329  0.2745 -0.2103  0.0001
  832loPI    C313299   8.211  17.268   5.396  0.2238 -0.0081  0.0441
  832loPI   PO413300   7.806  17.466   5.835  0.0589  0.2260 -0.1226
  832loPI   GL113301   7.565  17.403   6.116 -0.2825 -0.0340 -0.1508
  832loPI   GL213302   7.816  17.104   6.199  0.1099  0.1894  0.0510
  832loPI   C1A13303   7.244  17.476   6.473 -0.0244  0.0584 -0.1321
  832loPI   C2A13304   7.290  17.344   6.890 -0.1732  0.1284  0.0245
  832loPI   C3A13305   7.229  17.451   7.310 -0.0389 -0.1491  0.2569
  832loPI   C4A13306   7.132  17.432   7.697 -0.2824 -0.2510 -0.0707
  832loPI   C5A13307   7.278  17.593   8.094  0.2193  0.2206 -0.2028
  832loPI   C6A13308   7.513  17.240   8.365  0.1024 -0.2431  0.0923
  832loPI   C1B13309   7.835  17.256   6.623  0.3341 -0.2739 -0.1040
  832loPI   C2B13310   7.792  17.204   7.089  0.2923 -0.3399  0.0034
  832loPI   C3B13311   7.651  17.272   7.489  0.2771  0.1442 -0.0016
  832loPI   C4B13312   7.734  17.248   7.920  0.0002 -0.1844  0.2529
  833loPI    C113313  17.110   1.024   5.426 -0.0904  0.0370 -0.1092
  833loPI    C213314  17.045   0.911   5.048 -0.1465  0.1028 -0.1194
  833loPI    C313315  17.270   1.233   5.125  0.1932 -0.1371 -0.0834
  833loPI   PO413316  16.909   0.941   5.629  0.1043 -0.1187  0.0851
  833loPI   GL113317  16.958   0.814   6.055 -0.1982  0.0737 -0.0760
  833loPI   GL213318  16.912   0.471   6.035  0.2016 -0.0931  0.0382
  833loPI   C1A13319  17.060   0.765   6.542  0.0892  0.2331 -0.0683
  833loPI   C2A13320  17.127   0.704   7.049 -0.3267 -0.1028 -0.1665
  833loPI   C3A13321  17.183   0.626   7.419  0.0614 -0.0182  0.2495
  833loPI   C4A13322  17.036   0.619   7.832 -0.0693 -0.1410  0.1945
  833loPI   C5A13323  16.887   0.750   8.318  0.0652 -0.0949  0.1157
  833loPI   C6A13324  16.675   0.619   8.635  0.0794  0.0309  0.0497
  833loPI   C1B13325  16.745   0.438   6.509  0.0039  0.0779 -0.1488
  833loPI   C2B13326  16.719   0.388   6.996 -0.1477  0.0827 -0.1971
  833loPI   C3B13327  16.729   0.366   7.451  0.0353  0.0253  0.2071
  833loPI   C4B13328  16.710   0.225   7.886  0.0378  0.1223  0.0615
  834loPI    C113329   5.903  16.194   5.672 -0.0187 -0.1264  0.0560
  834loPI    C213330   5.954  16.090   5.290  0.0673 -0.0357  0.0422
  834loPI    C313331   5.608  16.252   5.409 -0.0100 -0.1916  0.0319
  834loPI   PO413332   6.049  16.004   5.847 -0.0549 -0.3615  0.0992
  834loPI   GL113333   6.341  16.169   6.209  0.1085  0.1451 -0.3269
  834loPI   GL213334   6.142  15.949   6.314  0.1606  0.1690  0.0965
  834loPI   C1A13335   6.504  16.256   6.632 -0.0168 -0.0159  0.1058
  834loPI   C2A13336   6.595  16.214   7.040 -0.0164 -0.0709  0.2152
  834loPI   C3A13337   6.497  16.188   7.532 -0.1652  0.0527 -0.0897
  834loPI   C4A13338   6.565  16.286   8.045  0.0872 -0.1788  0.1468
  834loPI   C5A13339   6.574  16.382   8.526 -0.0269  0.0654 -0.0164
  834loPI   C6A13340   6.228  16.430   8.879  0.2633  0.0987 -0.1909
  834loPI   C1B13341   6.141  15.929   6.705  0.2522  0.3229  0.0631
  834loPI   C2B13342   6.182  15.835   7.203 -0.1086 -0.0332  0.2291
  834loPI   C3B13343   6.056  15.882   7.562  0.4002 -0.2470  0.0721
  834loPI   C4B13344   6.139  15.877   7.939  0.2793  0.0147 -0.1150
  835loPI    C113345   8.608  16.105   5.373 -0.0933  0.0532  0.0714
  835loPI    C213346   8.798  15.784   5.227 -0.3848 -0.0796 -0.0230
  835loPI    C313347   8.984  16.027   5.484 -0.1669 -0.3336  0.0635
  835loPI   PO413348   8.316  15.997   5.525  0.0329  0.0764 -0.0893
  835loPI   GL113349   8.122  15.811   5.910 -0.2626  0.0700  0.3223
  835loPI   GL213350   7.922  15.524   5.971  0.3818  0.0443 -0.1024
  835loPI   C1A13351   8.322  15.986   6.263  0.0083 -0.0394  0.0188
  835loPI   C2A13352   8.434  16.090   6.677 -0.0316 -0.3265 -0.1182
  835loPI   C3A13353   8.406  15.976   7.095  0.1373 -0.0656 -0.1721
  835loPI   C4A13354   8.381  15.966   7.554 -0.2595 -0.1688 -0.1706
  835loPI   C5A13355   8.363  15.987   8.078  0.2518  0.0332 -0.2245
  835loPI   C6A13356   8.583  15.560   8.336 -0.0121  0.2768 -0.0195
  835loPI   C1B13357   7.936  15.693   6.354 -0.0113  0.2195 -0.3015
  835loPI   C2B13358   8.066  15.676   6.819  0.1107 -0.1932  0.1097
  835loPI   C3B13359   8.012  15.654   7.173 -0.0000 -0.2707 -0.2517
  835loPI   C4B13360   7.945  15.658   7.651 -0.1891  0.0951  0.1871
  836loPI    C113361  13.661  17.231   5.865 -0.1819 -0.3115  0.3154
  836loPI    C213362  13.991  17.019   5.788 -0.1144 -0.1556  0.1683
  836loPI    C313363  13.685  17.013   5.531  0.0573  0.2586 -0.0563
  836loPI   PO413364  13.642  17.258   6.096 -0.1559  0.0178 -0.2387
  836loPI   GL113365  13.638  17.180   6.531  0.0735  0.1268  0.2345
  836loPI   GL213366  13.639  16.854   6.397  0.3162  0.1223 -0.0082
  836loPI   C1A13367  13.585  17.238   6.912 -0.1617  0.2901  0.0329
  836loPI   C2A13368  13.707  17.362   7.326  0.0425 -0.1816 -0.1900
  836loPI   C3A13369  13.731  17.307   7.754 -0.2691  0.5004 -0.1992
  836loPI   C4A13370  13.747  17.376   8.126  0.2721 -0.2468  0.0839
  836loPI   C5A13371  14.015  17.427   8.417 -0.1604 -0.0367 -0.3434
  836loPI   C6A13372  14.463  17.488   8.408  0.1182  0.0000 -0.2311
  836loPI   C1B13373  13.751  16.798   6.807 -0.0679 -0.0897 -0.2950
  836loPI   C2B13374  13.777  16.840   7.311 -0.1312 -0.3179  0.2865
  836loPI   C3B13375  13.791  16.747   7.672 -0.1171  0.0532  0.0254
  836loPI   C4B13376  13.860  16.780   8.113  0.0487  0.4123 -0.0028
  837loPI    C113377  16.566   2.501   5.416  0.0248  0.1491 -0.0346
  837loPI    C213378  16.314   2.451   5.110 -0.0420 -0.0957  0.0575
  837loPI    C313379  16.706   2.493   5.042 -0.0640 -0.0833 -0.0645
  837loPI   PO413380  16.513   2.672   5.624 -0.0784  0.1987 -0.0524
  837loPI   GL113381  16.613   2.788   6.013  0.0343 -0.0573 -0.2761
  837loPI   GL213382  16.818   2.686   6.088 -0.2151 -0.0932 -0.3547
  837loPI   C1A13383  16.335   2.883   6.428  0.0235  0.0831 -0.0110
  837loPI   C2A13384  16.311   2.898   6.794  0.2062  0.0591 -0.0809
  837loPI   C3A13385  16.308   2.899   7.181  0.2106  0.0430 -0.0680
  837loPI   C4A13386  16.243   2.917   7.644 -0.0211 -0.0219  0.0559
  837loPI   C5A13387  16.257   2.922   7.998  0.0394 -0.2501 -0.0559
  837loPI   C6A13388  16.570   2.962   8.313 -0.0095 -0.0094  0.2449
  837loPI   C1B13389  16.811   2.737   6.587  0.2047 -0.2311 -0.1792
  837loPI   C2B13390  16.732   2.738   7.070 -0.1961 -0.1088 -0.0101
  837loPI   C3B13391  16.709   2.641   7.489  0.1462  0.0724  0.0958
  837loPI   C4B13392  16.678   2.782   7.870  0.1044  0.1928  0.0012
  838loPI    C113393  12.556   3.688   5.475  0.0500 -0.1957  0.0376
  838loPI    C213394  12.572   4.010   5.239 -0.0352 -0.1015  0.1589
  838loPI    C313395  12.659   3.649   5.091 -0.0312 -0.0357 -0.0012
  838loPI   PO413396  12.321   3.736   5.635 -0.0306  0.0834 -0.0414
  838loPI   GL113397  12.306   3.925   6.024 -0.0287  0.0468 -0.0874
  838loPI   GL213398  12.497   4.245   6.165 -0.3526 -0.0701  0.1242
  838loPI   C1A13399  12.082   3.929   6.330  0.5186 -0.0994 -0.0446
  838loPI   C2A13400  12.072   4.013   6.747  0.0145 -0.1173 -0.0500
  838loPI   C3A13401  12.082   3.956   7.241 -0.2329  0.3706  0.1166
  838loPI   C4A13402  12.015   3.990   7.656  0.0353  0.4214  0.1826
  838loPI   C5A13403  11.979   4.015   8.112 -0.4310  0.0770 -0.2484
  838loPI   C6A13404  11.747   3.803   8.436  0.1583 -0.3023  0.3363
  838loPI   C1B13405  12.393   4.296   6.536 -0.3750  0.3244  0.2221
  838loPI   C2B13406  12.436   4.378   6.998  0.0335  0.1137  0.4458
  838loPI   C3B13407  12.524   4.318   7.429  0.1570 -0.1759 -0.2105
  838loPI   C4B13408  12.426   4.280   7.964  0.1773  0.2495 -0.0108
  839loPI    C113409   2.873  15.239   5.802  0.0101  0.1792  0.0428
  839loPI    C213410   2.691  15.429   5.502  0.1337  0.0556 -0.1122
  839loPI    C313411   2.629  15.038   5.557 -0.2943  0.1770  0.3400
  839loPI   PO413412   2.915  15.420   5.964  0.1669  0.3008 -0.1465
  839loPI   GL113413   3.044  15.561   6.402 -0.2982 -0.1664  0.0506
  839loPI   GL213414   2.988  15.872   6.172  0.2208 -0.1722  0.0168
  839loPI   C1A13415   3.059  15.658   6.813 -0.0181  0.1477  0.0913
  839loPI   C2A13416   2.946  15.668   7.201 -0.0289  0.0039  0.1695
  839loPI   C3A13417   2.970  15.671   7.592  0.0158 -0.3509  0.0927
  839loPI   C4A13418   2.918  15.622   8.038  0.1894 -0.0213 -0.1731
  839loPI   C5A13419   2.802  15.684   8.523 -0.2576  0.0856  0.0997
  839loPI   C6A13420   2.860  15.872   8.885  0.2108  0.3853 -0.1656
  839loPI   C1B13421   2.931  16.151   6.603  0.3094  0.1606  0.0179
  839loPI   C2B13422   2.915  16.130   7.103 -0.2127 -0.1202  0.0031
  839loPI   C3B13423   2.873  16.198   7.568 -0.0944  0.0169  0.0105
  839loPI   C4B13424   2.937  16.113   7.953  0.1399  0.0829  0.0449
  840loPI    C113425  13.399  14.058   5.315 -0.0991 -0.0408  0.2235
  840loPI    C213426  13.054  13.967   5.136 -0.0640  0.1990  0.0295
  840loPI    C313427  13.389  13.998   4.920  0.0319  0.2152  0.1794
  840loPI   PO413428  13.409  13.968   5.474 -0.0655 -0.1271 -0.3001
  840loPI   GL113429  13.267  13.861   5.906  0.2244  0.1169  0.2630
  840loPI   GL213430  13.004  13.787   6.034 -0.0534  0.2441 -0.3446
  840loPI   C1A13431  13.292  14.107   6.218  0.0170  0.0203 -0.1070
  840loPI   C2A13432  13.270  14.140   6.606 -0.0164 -0.2988  0.3154
  840loPI   C3A13433  13.231  14.082   7.013 -0.0391  0.2059  0.2321
  840loPI   C4A13434  13.225  14.105   7.453 -0.0651 -0.0905  0.1919
  840loPI   C5A13435  13.343  14.101   7.935  0.0181 -0.1081 -0.2430
  840loPI   C6A13436  13.691  14.019   8.233 -0.2104  0.1942  0.3430
  840loPI   C1B13437  12.864  13.756   6.493 -0.0426 -0.1050 -0.2645
  840loPI   C2B13438  12.844  13.816   6.979  0.2562 -0.0809  0.2379
  840loPI   C3B13439  12.808  13.815   7.366 -0.4484 -0.0158 -0.0541
  840loPI   C4B13440  12.916  13.837   7.872  0.0970  0.0946  0.4748
  841loPI    C113441  12.320   0.857   5.506  0.0526  0.0578 -0.0028
  841loPI    C213442  12.346   1.220   5.341  0.0248  0.0595 -0.0035
  841loPI    C313443  12.210   0.912   5.126 -0.0564  0.0714  0.0303
  841loPI   PO413444  12.221   0.906   5.775  0.0483  0.3279  0.0718
  841loPI   GL113445  12.394   0.978   6.132 -0.0749 -0.1089  0.2496
  841loPI   GL213446  12.101   1.059   6.224  0.0649  0.2427 -0.2557
  841loPI   C1A13447  12.589   0.859   6.561  0.2058  0.3397 -0.0837
  841loPI   C2A13448  12.549   0.943   6.984 -0.2746  0.0640  0.0970
  841loPI   C3A13449  12.503   0.974   7.427 -0.0827  0.2406  0.1847
  841loPI   C4A13450  12.601   1.040   7.835  0.2379 -0.2597 -0.1213
  841loPI   C5A13451  12.456   0.904   8.245  0.2208 -0.0663 -0.0157
  841loPI   C6A13452  12.343   0.766   8.698  0.2192  0.1317  0.1104
  841loPI   C1B13453  12.093   1.065   6.672  0.1094  0.1281  0.1078
  841loPI   C2B13454  12.037   1.164   7.096  0.0920 -0.1565  0.2070
  841loPI   C3B13455  12.027   1.142   7.561  0.0319  0.0299  0.0640
  841loPI   C4B13456  12.029   1.090   7.958 -0.1089  0.0604  0.1088
  842loPI    C113457   4.332   2.498   5.324 -0.1300 -0.0378 -0.0960
  842loPI    C213458   4.372   2.825   5.098 -0.0273  0.1362  0.1686
  842loPI    C313459   4.550   2.484   4.989 -0.0509  0.1936 -0.0561
  842loPI   PO413460   4.368   2.549   5.541  0.1862 -0.1071 -0.0893
  842loPI   GL113461   4.320   2.542   5.997  0.1815 -0.2828  0.0038
  842loPI   GL213462   4.225   2.775   6.213  0.0372 -0.4388  0.1429
  842loPI   C1A13463   4.625   2.497   6.408 -0.1356  0.2409  0.0945
  842loPI   C2A13464   4.625   2.535   6.842  0.0395 -0.0640 -0.3547
  842loPI   C3A13465   4.531   2.687   7.231 -0.0070 -0.5174 -0.1471
  842loPI   C4A13466   4.529   2.559   7.672  0.3335 -0.2472  0.0653
  842loPI   C5A13467   4.655   2.565   8.039  0.0921 -0.0655 -0.1332
  842loPI   C6A13468   4.729   2.312   8.353  0.1906  0.1005 -0.0991
  842loPI   C1B13469   4.001   2.793   6.605  0.2293 -0.2366 -0.1059
  842loPI   C2B13470   4.057   2.689   7.021 -0.1208 -0.0174  0.0593
  842loPI   C3B13471   4.067   2.801   7.455  0.1238 -0.1428 -0.2400
  842loPI   C4B13472   3.952   2.692   7.860  0.2816 -0.0244  0.1554
  843loPI    C113473  10.075  15.699   5.777 -0.2624 -0.0502 -0.1778
  843loPI    C213474  10.271  15.387   5.933  0.0195  0.1219 -0.1803
  843loPI    C313475  10.130  15.368   5.559 -0.0544 -0.0389 -0.1450
  843loPI   PO413476  10.006  15.950   5.972 -0.0472 -0.0816  0.4018
  843loPI   GL113477   9.603  15.861   6.210  0.1408 -0.4242 -0.0343
  843loPI   GL213478   9.173  15.942   6.113 -0.1375 -0.1706  0.1731
  843loPI   C1A13479   9.776  15.868   6.553 -0.2301 -0.0294 -0.0060
  843loPI   C2A13480   9.691  15.880   7.036 -0.1936  0.3515  0.1624
  843loPI   C3A13481   9.794  15.985   7.527  0.1987 -0.3038 -0.2889
  843loPI   C4A13482   9.803  16.007   7.947 -0.0684  0.1154 -0.2971
  843loPI   C5A13483   9.782  16.256   8.346 -0.2944  0.1884 -0.1106
  843loPI   C6A13484   9.458  16.539   8.479 -0.0212  0.1377 -0.1249
  843loPI   C1B13485   9.292  16.063   6.524 -0.1269  0.0019  0.3330
  843loPI   C2B13486   9.274  16.104   6.885  0.1372  0.0121  0.2575
  843loPI   C3B13487   9.275  16.095   7.403 -0.1735  0.1000  0.0584
  843loPI   C4B13488   9.364  16.220   7.820 -0.0904  0.0038 -0.1169
  844loPI    C113489   7.337   5.161   5.401 -0.4285  0.0279  0.1857
  844loPI    C213490   7.469   5.116   5.027  0.0881 -0.1005  0.3751
  844loPI    C313491   7.131   4.936   5.143 -0.0591 -0.0865 -0.0152
  844loPI   PO413492   7.370   5.389   5.501 -0.2509 -0.0336  0.1125
  844loPI   GL113493   7.507   5.372   5.931  0.0799 -0.1438 -0.0916
  844loPI   GL213494   7.249   5.363   6.120 -0.2440 -0.2819 -0.0510
  844loPI   C1A13495   7.799   5.158   6.234  0.0447 -0.0137 -0.1414
  844loPI   C2A13496   7.853   5.264   6.651 -0.0494 -0.3413 -0.3375
  844loPI   C3A13497   7.861   5.230   7.094 -0.2439  0.0500  0.2805
  844loPI   C4A13498   7.800   5.260   7.426  0.0059  0.3445 -0.2230
  844loPI   C5A13499   7.656   5.248   7.793  0.2120 -0.1788  0.0092
  844loPI   C6A13500   7.680   5.113   8.209  0.0429  0.2600  0.0989
  844loPI   C1B13501   7.394   5.414   6.531  0.0341 -0.1474 -0.1969
  844loPI   C2B13502   7.370   5.405   6.895 -0.0395  0.3476  0.1158
  844loPI   C3B13503   7.338   5.411   7.361 -0.4355  0.0502  0.0903
  844loPI   C4B13504   7.191   5.432   7.866 -0.1592  0.0026 -0.1436
  845loPI    C113505   9.021  16.550   5.444 -0.4380  0.4202  0.1319
  845loPI    C213506   8.702  16.554   5.202 -0.1502  0.2870 -0.2593
  845loPI    C313507   9.033  16.356   5.094 -0.1178 -0.0357  0.3844
  845loPI   PO413508   8.894  16.543   5.677  0.1413  0.1408  0.1052
  845loPI   GL113509   8.987  16.435   6.084  0.0786  0.1164 -0.1686
  845loPI   GL213510   9.238  16.501   6.299  0.0369  0.0516  0.0784
  845loPI   C1A13511   8.828  16.324   6.504  0.1019  0.1326  0.0993
  845loPI   C2A13512   8.733  16.348   6.963  0.2076 -0.2093  0.2954
  845loPI   C3A13513   8.864  16.310   7.405  0.2163  0.2809  0.2899
  845loPI   C4A13514   8.736  16.369   7.829  0.0306  0.1287 -0.2620
  845loPI   C5A13515   8.776  16.430   8.239 -0.2277  0.3238  0.2457
  845loPI   C6A13516   9.051  16.392   8.646 -0.1210 -0.2032  0.0165
  845loPI   C1B13517   9.132  16.604   6.789 -0.1824  0.3823  0.0284
  845loPI   C2B13518   9.198  16.587   7.170 -0.0281 -0.2548 -0.2421
  845loPI   C3B13519   9.230  16.755   7.632  0.0813 -0.0594 -0.1272
  845loPI   C4B13520   9.200  16.629   8.011  0.0908  0.0316  0.3084
  846loPI    C113521  13.838   4.110   5.392 -0.1276 -0.1654 -0.1152
  846loPI    C213522  14.017   4.013   5.047 -0.1314 -0.1717 -0.1154
  846loPI    C313523  13.706   4.265   5.048 -0.0880 -0.1179 -0.1092
  846loPI   PO413524  14.068   4.078   5.591  0.2674  0.0509  0.1725
  846loPI   GL113525  14.015   3.952   5.980 -0.0633 -0.0697 -0.0102
  846loPI   GL213526  14.323   4.184   6.116  0.0660 -0.1613 -0.0663
  846loPI   C1A13527  13.966   3.853   6.384  0.0113  0.1005  0.1416
  846loPI   C2A13528  13.979   3.767   6.800  0.1719  0.0666 -0.1283
  846loPI   C3A13529  13.957   3.878   7.219 -0.0597  0.1186 -0.0898
  846loPI   C4A13530  13.896   3.814   7.640 -0.0375  0.0480  0.1101
  846loPI   C5A13531  13.890   3.798   8.077  0.2095  0.1808  0.0864
  846loPI   C6A13532  13.916   3.351   8.254 -0.1042 -0.1494  0.1685
  846loPI   C1B13533  14.350   4.110   6.614 -0.1135 -0.0259 -0.3817
  846loPI   C2B13534  14.335   4.223   6.979  0.1659 -0.2159  0.1892
  846loPI   C3B13535  14.335   4.141   7.368  0.4634 -0.0793 -0.2278
  846loPI   C4B13536  14.349   4.202   7.817  0.2361 -0.1792  0.0707
  847loPI    C113537  17.711   3.595   5.668 -0.0561 -0.2330  0.1006
  847loPI    C213538  17.321   3.632   5.747 -0.0237  0.1140  0.1127
  847loPI    C313539  17.447   3.606   5.368 -0.0541  0.0549  0.1066
  847loPI   PO413540  17.808   3.565   5.892  0.1565  0.2240 -0.0053
  847loPI   GL113541  17.553   3.764   6.247 -0.0994 -0.0081  0.0951
  847loPI   GL213542  17.194   3.703   6.225 -0.1109 -0.1333 -0.1335
  847loPI   C1A13543  17.638   3.833   6.670  0.1367 -0.0706 -0.0838
  847loPI   C2A13544  17.566   3.812   7.140 -0.3024 -0.2287  0.0386
  847loPI   C3A13545  17.492   3.928   7.485 -0.0790 -0.0641 -0.3081
  847loPI   C4A13546  17.473   3.972   7.942  0.0907  0.2238 -0.1012
  847loPI   C5A13547  17.547   3.926   8.361 -0.0445 -0.0808 -0.1520
  847loPI   C6A13548  17.728   3.745   8.775  0.0141 -0.1724 -0.0486
  847loPI   C1B13549  17.127   3.534   6.585  0.0917  0.1049  0.2880
  847loPI   C2B13550  17.100   3.609   7.079  0.2014 -0.1836  0.1190
  847loPI   C3B13551  17.079   3.623   7.473 -0.1090  0.0317 -0.1943
  847loPI   C4B13552  17.125   3.606   7.994  0.1463 -0.0840  0.2343
  848loPI    C113553   4.976  13.558   5.569  0.1625  0.0447 -0.1607
  848loPI    C213554   4.707  13.741   5.336 -0.0750 -0.0038  0.0699
  848loPI    C313555   4.600  13.420   5.551  0.2285 -0.1612 -0.0083
  848loPI   PO413556   5.115  13.717   5.712  0.0214  0.0291 -0.1971
  848loPI   GL113557   5.235  13.663   6.188 -0.1254 -0.2290  0.2693
  848loPI   GL213558   5.312  13.386   6.414  0.1588  0.1884  0.2627
  848loPI   C1A13559   5.182  13.922   6.608  0.0861  0.0409  0.0998
  848loPI   C2A13560   5.204  13.921   6.980  0.0283  0.4098 -0.1354
  848loPI   C3A13561   5.088  13.923   7.429 -0.1495 -0.1592 -0.0736
  848loPI   C4A13562   5.081  13.865   7.930  0.0141 -0.0919 -0.0821
  848loPI   C5A13563   5.116  14.076   8.301 -0.3284  0.1105  0.2427
  848loPI   C6A13564   4.804  14.290   8.498 -0.0519 -0.1964  0.3328
  848loPI   C1B13565   5.302  13.416   6.830  0.0720  0.2232  0.0147
  848loPI   C2B13566   5.223  13.478   7.183 -0.0744  0.0569 -0.3374
  848loPI   C3B13567   5.178  13.438   7.626  0.0059 -0.0864  0.1063
  848loPI   C4B13568   5.058  13.409   8.125  0.0965 -0.1384  0.1175
  849loPI    C113569   1.774  11.133   5.559 -0.1154  0.3077 -0.1189
  849loPI    C213570   1.884  10.892   5.259 -0.0504  0.0776  0.0864
  849loPI    C313571   1.942  11.287   5.230  0.1114  0.0396 -0.1322
  849loPI   PO413572   1.776  10.948   5.771 -0.1613  0.1324  0.0491
  849loPI   GL113573   1.651  10.707   6.116  0.3039  0.0048  0.1061
  849loPI   GL213574   1.499  10.985   6.277  0.0763 -0.0553  0.0562
  849loPI   C1A13575   1.645  10.452   6.536 -0.0265  0.2950 -0.2242
  849loPI   C2A13576   1.523  10.426   6.993 -0.1881  0.4422  0.0606
  849loPI   C3A13577   1.531  10.342   7.496 -0.2019 -0.3933  0.1196
  849loPI   C4A13578   1.348  10.354   7.962  0.0549  0.3606  0.1712
  849loPI   C5A13579   1.234  10.563   8.376  0.2420  0.0047 -0.0518
  849loPI   C6A13580   1.202  10.754   8.786  0.1994  0.1838  0.1182
  849loPI   C1B13581   1.459  10.856   6.689  0.1577  0.0776  0.1617
  849loPI   C2B13582   1.438  10.943   7.081  0.2251 -0.2301 -0.0399
  849loPI   C3B13583   1.409  10.983   7.566  0.1212 -0.3778  0.1194
  849loPI   C4B13584   1.375  10.865   7.983  0.1328 -0.3149  0.1644
  850loPI    C113585   0.231   6.902   5.542  0.2473 -0.3595 -0.2481
  850loPI    C213586  -0.024   6.934   5.235 -0.1888  0.0202  0.1374
  850loPI    C313587   0.322   7.134   5.229 -0.0585 -0.2052 -0.2271
  850loPI   PO413588   0.090   6.931   5.800 -0.0256  0.0411 -0.2115
  850loPI   GL113589  -0.236   7.030   6.079 -0.3590  0.1269 -0.0141
  850loPI   GL213590  -0.388   7.237   5.981 -0.3631 -0.2082  0.1599
  850loPI   C1A13591  -0.143   6.755   6.488 -0.0253  0.2362  0.1592
  850loPI   C2A13592  -0.182   6.702   6.927 -0.1514  0.1211 -0.0080
  850loPI   C3A13593  -0.192   6.843   7.311 -0.0719  0.0489  0.2288
  850loPI   C4A13594  -0.265   6.827   7.768 -0.1909  0.1181 -0.0467
  850loPI   C5A13595  -0.287   6.739   8.140  0.2681 -0.1760  0.1050
  850loPI   C6A13596  -0.306   6.578   8.486 -0.1521  0.0025 -0.1595
  850loPI   C1B13597  -0.356   7.357   6.418  0.1395 -0.0144  0.2470
  850loPI   C2B13598  -0.234   7.180   6.777  0.0014 -0.3501  0.2345
  850loPI   C3B13599  -0.285   7.310   7.173 -0.1338  0.2366 -0.1854
  850loPI   C4B13600  -0.360   7.388   7.600 -0.0329  0.0294  0.4588
  851loPI    C113601  13.226   2.508   5.501  0.1715  0.0997 -0.1735
  851loPI    C213602  13.226   2.898   5.412  0.1559  0.0880 -0.2250
  851loPI    C313603  13.408   2.637   5.169  0.3706  0.0901 -0.0702
  851loPI   PO413604  13.320   2.423   5.720  0.2032  0.0686  0.0264
  851loPI   GL113605  13.414   2.421   6.212 -0.1573  0.1961 -0.2929
  851loPI   GL213606  13.742   2.482   6.447 -0.0534  0.1193  0.0842
  851loPI   C1A13607  13.223   2.682   6.583  0.1748 -0.0958  0.1489
  851loPI   C2A13608  13.195   2.695   6.936  0.2191 -0.1992  0.4207
  851loPI   C3A13609  13.302   2.659   7.375 -0.1592 -0.0565 -0.1682
  851loPI   C4A13610  13.288   2.623   7.738  0.1558 -0.0036 -0.1274
  851loPI   C5A13611  13.116   2.688   8.044 -0.1529 -0.0265  0.0317
  851loPI   C6A13612  13.240   2.745   8.492  0.0805  0.0875  0.1345
  851loPI   C1B13613  13.669   2.479   6.802  0.3167  0.2166  0.0026
  851loPI   C2B13614  13.744   2.422   7.218  0.0301  0.1099  0.0540
  851loPI   C3B13615  13.765   2.501   7.664 -0.2480 -0.2682 -0.2518
  851loPI   C4B13616  13.603   2.501   8.095 -0.0013  0.0632  0.1041
  852loPI    C113617  17.075   9.162   5.367  0.0987  0.1842 -0.1885
  852loPI    C213618  16.973   9.479   5.146  0.1701  0.3333 -0.0108
  852loPI    C313619  17.303   9.271   5.057 -0.0242  0.1386 -0.2956
  852loPI   PO413620  17.072   9.184   5.675  0.1632  0.1869 -0.1230
  852loPI   GL113621  17.143   9.116   6.235  0.0148  0.0447  0.0619
  852loPI   GL213622  17.338   8.899   6.371 -0.1551  0.0655 -0.1165
  852loPI   C1A13623  17.186   9.258   6.619 -0.1725  0.0222  0.1246
  852loPI   C2A13624  17.153   9.348   7.094  0.1614  0.0286  0.0308
  852loPI   C3A13625  17.065   9.367   7.522 -0.0414 -0.0872 -0.2585
  852loPI   C4A13626  17.028   9.386   7.956  0.1833 -0.1403  0.0537
  852loPI   C5A13627  17.233   9.393   8.362  0.0865 -0.2994 -0.0587
  852loPI   C6A13628  17.542   9.284   8.661 -0.4146 -0.1224 -0.0630
  852loPI   C1B13629  17.309   8.847   6.849  0.1190  0.1438 -0.2080
  852loPI   C2B13630  17.122   8.820   7.256  0.0588 -0.2640 -0.0498
  852loPI   C3B13631  17.174   8.808   7.655 -0.1060 -0.1635 -0.1105
  852loPI   C4B13632  17.143   8.908   7.958 -0.0169  0.0620 -0.2757
  853loPI    C113633  11.200   7.254   5.696  0.2190  0.1116 -0.1080
  853loPI    C213634  11.287   7.247   5.306 -0.0488 -0.0814 -0.1671
  853loPI    C313635  11.031   6.980   5.459 -0.1802  0.1829  0.0845
  853loPI   PO413636  11.179   7.407   5.756  0.1984 -0.3399  0.1012
  853loPI   GL113637  11.265   7.466   6.238 -0.0573 -0.2721 -0.4332
  853loPI   GL213638  10.922   7.321   6.199  0.2111 -0.1430  0.1867
  853loPI   C1A13639  11.259   7.308   6.614 -0.1437 -0.3048 -0.0118
  853loPI   C2A13640  11.131   7.214   7.032 -0.0238 -0.1559 -0.2672
  853loPI   C3A13641  11.116   7.196   7.505 -0.0789 -0.3885  0.2200
  853loPI   C4A13642  11.128   7.202   8.004 -0.0507 -0.0206 -0.1923
  853loPI   C5A13643  11.020   7.084   8.367 -0.3309 -0.3423  0.0727
  853loPI   C6A13644  11.192   6.853   8.790  0.0763  0.1977  0.0871
  853loPI   C1B13645  10.799   7.040   6.577  0.1436  0.2776 -0.0350
  853loPI   C2B13646  10.666   6.870   6.873  0.0577 -0.2180 -0.1365
  853loPI   C3B13647  10.741   6.847   7.277  0.1626 -0.0041  0.0704
  853loPI   C4B13648  10.722   6.900   7.703  0.3622  0.4328 -0.2661
  854loPI    C113649  14.366  11.394   5.294 -0.1607  0.3633  0.0280
  854loPI    C213650  14.277  11.586   4.955  0.0365  0.2498 -0.0899
  854loPI    C313651  14.579  11.324   4.963 -0.0933  0.1037  0.1237
  854loPI   PO413652  14.338  11.518   5.502  0.2214  0.3281 -0.0353
  854loPI   GL113653  14.450  11.564   5.992  0.3883 -0.0125  0.0468
  854loPI   GL213654  14.206  11.396   6.298  0.2112  0.2838  0.0549
  854loPI   C1A13655  14.644  11.680   6.410  0.2029  0.0361  0.4270
  854loPI   C2A13656  14.556  11.775   6.820  0.3833 -0.3710  0.3569
  854loPI   C3A13657  14.517  11.792   7.228  0.0483  0.0880 -0.0439
  854loPI   C4A13658  14.506  11.689   7.605  0.3525 -0.0837 -0.0163
  854loPI   C5A13659  14.554  11.581   8.036  0.2639 -0.1696 -0.3750
  854loPI   C6A13660  14.415  11.254   8.332 -0.3098  0.0326 -0.0651
  854loPI   C1B13661  14.211  11.390   6.723 -0.2403  0.1878  0.2373
  854loPI   C2B13662  14.130  11.471   7.152  0.1315  0.3850 -0.0743
  854loPI   C3B13663  13.983  11.456   7.520 -0.0103 -0.1034  0.2842
  854loPI   C4B13664  14.060  11.310   7.920  0.1484 -0.3068 -0.2955
  855loPI    C113665  17.578   6.570   5.562  0.1107  0.1525 -0.0979
  855loPI    C213666  17.369   6.329   5.321 -0.0253  0.0984  0.0723
  855loPI    C313667  17.751   6.411   5.239 -0.0793  0.1060 -0.1782
  855loPI   PO413668  17.392   6.572   5.775 -0.0492 -0.2671 -0.4403
  855loPI   GL113669  17.218   6.402   6.195  0.0043 -0.0837  0.1405
  855loPI   GL213670  17.239   6.071   6.282 -0.0219  0.3048 -0.0981
  855loPI   C1A13671  17.197   6.468   6.649  0.0520  0.4259 -0.2930
  855loPI   C2A13672  17.135   6.493   7.083  0.0211 -0.1839  0.5646
  855loPI   C3A13673  17.122   6.488   7.565 -0.2814 -0.2487 -0.0221
  855loPI   C4A13674  17.073   6.472   7.916  0.1826 -0.1359 -0.0224
  855loPI   C5A13675  16.990   6.658   8.166  0.1981 -0.0474 -0.2885
  855loPI   C6A13676  16.828   7.037   8.281 -0.1194 -0.0607 -0.0306
  855loPI   C1B13677  17.261   5.941   6.662  0.4128 -0.2628  0.3225
  855loPI   C2B13678  17.238   5.963   7.066  0.3344  0.0670  0.1283
  855loPI   C3B13679  17.199   5.993   7.478 -0.2604  0.2286 -0.1271
  855loPI   C4B13680  17.202   6.006   7.857  0.0795 -0.0739 -0.1799
  856loPI    C113681   8.735   2.140   5.624  0.0161  0.2072  0.0808
  856loPI    C213682   9.057   1.953   5.479 -0.1750 -0.0660  0.0009
  856loPI    C313683   8.801   2.131   5.230 -0.2421 -0.1070  0.0401
  856loPI   PO413684   8.794   2.100   5.903  0.0273  0.1790 -0.3143
  856loPI   GL113685   8.780   2.124   6.290 -0.0435  0.1176  0.0760
  856loPI   GL213686   8.966   2.340   6.269  0.1925  0.1168 -0.0677
  856loPI   C1A13687   8.725   1.809   6.598  0.2210 -0.0445  0.0107
  856loPI   C2A13688   8.825   1.873   6.964  0.0386 -0.1469 -0.0521
  856loPI   C3A13689   8.715   1.960   7.423 -0.4332  0.3730  0.0952
  856loPI   C4A13690   8.690   2.070   7.722 -0.1356 -0.0256  0.1651
  856loPI   C5A13691   8.774   2.158   8.200  0.0853 -0.0290 -0.1229
  856loPI   C6A13692   8.520   2.515   8.426 -0.0704 -0.0745 -0.0467
  856loPI   C1B13693   9.071   2.305   6.754  0.1601  0.2183 -0.1640
  856loPI   C2B13694   9.105   2.354   7.130 -0.1034 -0.2016 -0.0573
  856loPI   C3B13695   9.137   2.244   7.491 -0.3373  0.0036  0.0020
  856loPI   C4B13696   9.106   2.345   7.921 -0.0988  0.1083 -0.0394
  857loPI    C113697   0.892   7.160   5.321  0.0732 -0.0450  0.0242
  857loPI    C213698   1.118   7.356   5.056 -0.0642  0.2216  0.1004
  857loPI    C313699   0.778   7.520   5.188 -0.0904  0.0091  0.3028
  857loPI   PO413700   1.024   7.141   5.480 -0.2470 -0.0595 -0.1453
  857loPI   GL113701   1.083   7.152   5.878 -0.1092  0.4059 -0.2515
  857loPI   GL213702   1.081   6.890   6.034 -0.1549  0.0226  0.1535
  857loPI   C1A13703   1.058   7.274   6.351  0.1473  0.2321 -0.3875
  857loPI   C2A13704   1.130   7.239   6.903 -0.0047 -0.1668  0.1556
  857loPI   C3A13705   1.101   7.272   7.344  0.1488  0.0113  0.2167
  857loPI   C4A13706   1.194   7.190   7.767 -0.0342 -0.0519  0.0619
  857loPI   C5A13707   1.238   7.175   8.169 -0.0024  0.1760 -0.2249
  857loPI   C6A13708   1.018   7.314   8.582 -0.0864 -0.0180 -0.0802
  857loPI   C1B13709   1.272   6.793   6.516 -0.3366 -0.0256  0.0904
  857loPI   C2B13710   1.163   6.597   6.909  0.1139  0.1391 -0.4782
  857loPI   C3B13711   1.078   6.806   7.319 -0.1499  0.0696 -0.1532
  857loPI   C4B13712   0.993   6.759   7.674  0.0634  0.2181  0.2277
  858loPI    C113713   8.284   0.518   5.194 -0.0336  0.3831  0.0358
  858loPI    C213714   8.561   0.744   5.015 -0.0364  0.1565 -0.2615
  858loPI    C313715   8.516   0.361   4.909 -0.1339  0.0551  0.1304
  858loPI   PO413716   8.396   0.545   5.501 -0.1028 -0.1828  0.0474
  858loPI   GL113717   8.529   0.308   5.894 -0.0835 -0.0697 -0.2839
  858loPI   GL213718   8.311   0.439   6.037 -0.2460 -0.0781 -0.0321
  858loPI   C1A13719   8.601   0.121   6.300 -0.1936  0.0153  0.2100
  858loPI   C2A13720   8.570   0.152   6.731  0.2470  0.1453 -0.4760
  858loPI   C3A13721   8.544   0.101   7.124 -0.0604  0.0927  0.0394
  858loPI   C4A13722   8.511   0.127   7.542  0.1004  0.1467  0.1385
  858loPI   C5A13723   8.629   0.199   7.894  0.1640 -0.0791  0.0911
  858loPI   C6A13724   8.517   0.497   8.208 -0.1837 -0.0185  0.1150
  858loPI   C1B13725   8.573   0.572   6.434  0.0832  0.0244  0.0046
  858loPI   C2B13726   8.555   0.582   6.963 -0.0965 -0.3361  0.2609
  858loPI   C3B13727   8.451   0.625   7.380  0.2400 -0.0590  0.0943
  858loPI   C4B13728   8.530   0.724   7.762 -0.2900  0.0186  0.0070
  859loPI    C113729   4.242  12.593   5.586 -0.1105 -0.1535  0.0236
  859loPI    C213730   3.929  12.636   5.341 -0.2830 -0.2847  0.2171
  859loPI    C313731   4.296  12.588   5.190 -0.3429 -0.0484 -0.0112
  859loPI   PO413732   4.229  12.568   5.812 -0.1138  0.3091 -0.1795
  859loPI   GL113733   4.097  12.523   6.216  0.0941  0.1423  0.1884
  859loPI   GL213734   4.301  12.796   6.331 -0.2029 -0.0087  0.0911
  859loPI   C1A13735   4.009  12.431   6.639 -0.0994  0.0247 -0.1783
  859loPI   C2A13736   3.929  12.452   7.064  0.0645 -0.0796 -0.0730
  859loPI   C3A13737   4.013  12.433   7.461  0.0124  0.0600 -0.4175
  859loPI   C4A13738   3.937  12.315   7.791  0.2640 -0.2217  0.1468
  859loPI   C5A13739   3.980  12.180   8.240  0.2889  0.0452  0.0141
  859loPI   C6A13740   3.892  12.408   8.553 -0.1714 -0.0153 -0.0016
  859loPI   C1B13741   4.437  12.823   6.763 -0.0389 -0.3722  0.0912
  859loPI   C2B13742   4.432  12.718   7.272  0.0383 -0.1892  0.1193
  859loPI   C3B13743   4.351  12.775   7.733  0.1518  0.1497 -0.1889
  859loPI   C4B13744   4.245  12.588   8.103 -0.1238  0.1499  0.3937
  860loPI    C113745   9.848   9.116   5.548 -0.0104  0.0268 -0.1675
  860loPI    C213746   9.514   9.079   5.330 -0.2043 -0.0462  0.1363
  860loPI    C313747   9.840   9.246   5.169 -0.3716 -0.0143 -0.1778
  860loPI   PO413748   9.777   9.165   5.737 -0.1418 -0.1140 -0.0574
  860loPI   GL113749   9.739   9.020   6.112  0.3447 -0.1440 -0.0071
  860loPI   GL213750   9.954   9.131   6.189  0.5078 -0.3430 -0.1228
  860loPI   C1A13751   9.506   8.894   6.456 -0.0241  0.1167 -0.2825
  860loPI   C2A13752   9.587   8.773   6.889 -0.2020 -0.1146 -0.1711
  860loPI   C3A13753   9.531   8.848   7.346  0.1108 -0.2469  0.0281
  860loPI   C4A13754   9.452   8.839   7.815 -0.0051 -0.0562 -0.0593
  860loPI   C5A13755   9.316   8.843   8.270  0.1639 -0.0146 -0.1921
  860loPI   C6A13756   9.318   8.967   8.763 -0.2548 -0.0805  0.1223
  860loPI   C1B13757   9.910   9.156   6.616 -0.1677 -0.0471  0.4487
  860loPI   C2B13758   9.951   9.167   7.053  0.1048 -0.1650 -0.1645
  860loPI   C3B13759   9.948   9.163   7.487 -0.0543 -0.2460 -0.1761
  860loPI   C4B13760   9.908   9.182   7.865  0.0537  0.1666 -0.2674
  861loPI    C113761  10.681   0.318   5.250 -0.2003  0.0175  0.1852
  861loPI    C213762  10.436   0.413   4.948  0.0736  0.1938  0.0138
  861loPI    C313763  10.550   0.034   5.000  0.0083  0.1595 -0.0908
  861loPI   PO413764  10.572   0.440   5.446  0.2580  0.4220  0.1060
  861loPI   GL113765  10.530   0.526   5.866  0.4497  0.3238  0.0017
  861loPI   GL213766  10.729   0.417   5.886 -0.0321  0.2342 -0.3370
  861loPI   C1A13767  10.487   0.751   6.234  0.0151  0.1037  0.0293
  861loPI   C2A13768  10.630   0.764   6.613  0.1618  0.1539 -0.0685
  861loPI   C3A13769  10.794   0.698   6.915  0.1441  0.2913  0.0780
  861loPI   C4A13770  10.773   0.693   7.368  0.0321  0.0642  0.1040
  861loPI   C5A13771  10.725   0.633   7.810  0.1831 -0.1107 -0.1895
  861loPI   C6A13772  10.904   0.546   8.309 -0.2587  0.2416 -0.0745
  861loPI   C1B13773  10.773   0.300   6.329  0.0573 -0.0673  0.1368
  861loPI   C2B13774  10.791   0.192   6.761 -0.5096 -0.0990  0.0491
  861loPI   C3B13775  10.900   0.240   7.225 -0.0358 -0.2638 -0.1187
  861loPI   C4B13776  10.786   0.110   7.657  0.1242  0.0334  0.1592
  862loPI    C113777  10.252   3.876   5.425 -0.0879 -0.1992 -0.1496
  862loPI    C213778  10.593   3.983   5.246 -0.0716 -0.0246 -0.0167
  862loPI    C313779  10.243   4.042   5.061 -0.0441 -0.0045 -0.0627
  862loPI   PO413780  10.325   3.825   5.672  0.0959  0.1912 -0.0062
  862loPI   GL113781  10.288   3.524   5.957 -0.0461  0.0753  0.2109
  862loPI   GL213782  10.234   3.262   6.056  0.2980  0.2175 -0.2805
  862loPI   C1A13783  10.289   3.711   6.352 -0.1509 -0.0231 -0.0708
  862loPI   C2A13784  10.236   3.743   6.820  0.3198  0.1757  0.0834
  862loPI   C3A13785  10.218   3.730   7.212 -0.1491 -0.1626  0.0224
  862loPI   C4A13786  10.409   3.715   7.615 -0.0385 -0.1088  0.0426
  862loPI   C5A13787  10.252   3.768   8.003 -0.1080 -0.4152  0.0138
  862loPI   C6A13788   9.892   3.662   8.294  0.0803 -0.0194 -0.3063
  862loPI   C1B13789  10.351   3.225   6.509  0.0586 -0.0516  0.0575
  862loPI   C2B13790  10.336   3.196   6.923  0.2444  0.4043 -0.0048
  862loPI   C3B13791  10.417   3.323   7.320  0.2846 -0.0686 -0.0968
  862loPI   C4B13792  10.379   3.199   7.735  0.1567 -0.1669 -0.0220
  863loPI    C113793   9.895   8.133   5.529  0.1199 -0.2180 -0.0100
  863loPI    C213794   9.765   7.837   5.293  0.0436 -0.0672 -0.1595
  863loPI    C313795   9.784   8.211   5.152  0.0459  0.0162  0.0585
  863loPI   PO413796   9.721   8.106   5.737  0.1294  0.0507  0.0591
  863loPI   GL113797   9.530   8.164   6.132  0.2428 -0.2793  0.0738
  863loPI   GL213798   9.615   7.807   6.145 -0.1863  0.1566  0.4500
  863loPI   C1A13799   9.578   8.408   6.535  0.1211 -0.0436 -0.1627
  863loPI   C2A13800   9.611   8.277   7.036  0.0726  0.0585 -0.1377
  863loPI   C3A13801   9.593   8.368   7.312 -0.0008 -0.1087  0.0120
  863loPI   C4A13802   9.564   8.386   7.793  0.2011  0.0898 -0.1742
  863loPI   C5A13803   9.672   8.193   8.261  0.1263  0.1568 -0.0280
  863loPI   C6A13804   9.459   7.990   8.510 -0.1110  0.2441 -0.1646
  863loPI   C1B13805   9.638   7.881   6.587 -0.1027  0.2155  0.1991
  863loPI   C2B13806   9.750   7.821   7.026 -0.1528  0.0408  0.1216
  863loPI   C3B13807   9.687   7.806   7.501  0.2094  0.1381  0.0653
  863loPI   C4B13808   9.644   7.814   7.861  0.0363  0.1204 -0.0439
  864loPI    C113809  16.067   5.710   5.592 -0.0608 -0.0103 -0.1578
  864loPI    C213810  16.225   5.493   5.295  0.2167  0.0492 -0.0569
  864loPI    C313811  15.937   5.760   5.217  0.0723 -0.1520 -0.2238
  864loPI   PO413812  16.213   5.768   5.732 -0.0243  0.2220  0.0007
  864loPI   GL113813  16.356   5.901   6.090  0.1603 -0.2018 -0.2648
  864loPI   GL213814  16.212   6.222   6.164  0.1119 -0.0359  0.0211
  864loPI   C1A13815  16.405   5.738   6.620 -0.0830 -0.1994 -0.1308
  864loPI   C2A13816  16.350   5.729   7.028 -0.4183  0.0472 -0.0089
  864loPI   C3A13817  16.353   5.902   7.346  0.2138  0.3413 -0.0698
  864loPI   C4A13818  16.323   5.870   7.744  0.0082  0.1910  0.2002
  864loPI   C5A13819  16.228   5.871   8.161 -0.2008 -0.2386 -0.2393
  864loPI   C6A13820  16.068   5.822   8.659 -0.2466  0.2187  0.0311
  864loPI   C1B13821  16.294   6.214   6.671 -0.2195 -0.1129  0.0339
  864loPI   C2B13822  16.305   6.314   7.111 -0.0389  0.0279  0.1304
  864loPI   C3B13823  16.264   6.381   7.494  0.1223 -0.0643 -0.1709
  864loPI   C4B13824  16.175   6.338   7.902 -0.1836 -0.0583  0.0536
  865loPI    C113825  13.203   6.053   5.311 -0.0417  0.3277 -0.0247
  865loPI    C213826  13.115   6.180   4.942  0.0074  0.1364 -0.1034
  865loPI    C313827  13.487   6.220   5.084 -0.0304  0.2830 -0.0434
  865loPI   PO413828  13.054   6.108   5.471 -0.3223 -0.1378  0.1915
  865loPI   GL113829  13.123   6.269   5.836 -0.2716 -0.2766 -0.0051
  865loPI   GL213830  13.023   6.032   6.017 -0.0024  0.2154 -0.0561
  865loPI   C1A13831  13.199   6.439   6.303  0.2795 -0.0417  0.0833
  865loPI   C2A13832  13.084   6.552   6.756 -0.3091  0.0277 -0.1822
  865loPI   C3A13833  13.019   6.611   7.241 -0.0052  0.0051  0.1329
  865loPI   C4A13834  13.056   6.544   7.562 -0.1195  0.2918 -0.0270
  865loPI   C5A13835  13.047   6.299   7.966  0.0834  0.0785 -0.4537
  865loPI   C6A13836  12.934   6.460   8.374  0.1755  0.5196  0.0601
  865loPI   C1B13837  13.222   5.841   6.360 -0.0775 -0.4639 -0.1075
  865loPI   C2B13838  13.154   6.062   6.709 -0.1133 -0.1715  0.2059
  865loPI   C3B13839  13.175   6.154   7.166 -0.2676 -0.1294  0.0593
  865loPI   C4B13840  13.149   6.025   7.510  0.1118  0.0281 -0.2060
  866loPI    C113841   2.298   7.275   5.486 -0.2618 -0.1291 -0.0269
  866loPI    C213842   2.316   6.945   5.261 -0.1760 -0.1196 -0.0342
  866loPI    C313843   1.973   7.149   5.289 -0.1751 -0.0945 -0.1943
  866loPI   PO413844   2.430   7.215   5.673 -0.0294  0.2241 -0.1972
  866loPI   GL113845   2.441   7.342   6.080 -0.1170  0.0287  0.0042
  866loPI   GL213846   2.203   7.105   6.189  0.1537 -0.1296 -0.2276
  866loPI   C1A13847   2.436   7.644   6.386 -0.3184  0.0740  0.0566
  866loPI   C2A13848   2.511   7.770   6.813  0.1518  0.0005 -0.2156
  866loPI   C3A13849   2.405   7.685   7.320  0.1830 -0.2542  0.2418
  866loPI   C4A13850   2.331   7.694   7.778 -0.1427 -0.3494 -0.2187
  866loPI   C5A13851   2.451   7.466   8.206 -0.1840  0.3791  0.1809
  866loPI   C6A13852   2.330   7.419   8.674  0.1718 -0.1446  0.2796
  866loPI   C1B13853   2.070   7.388   6.526 -0.0227  0.3895  0.2080
  866loPI   C2B13854   2.058   7.416   7.000 -0.0930  0.0403 -0.2296
  866loPI   C3B13855   1.901   7.336   7.339  0.3397  0.0382  0.1777
  866loPI   C4B13856   1.950   7.391   7.766 -0.0165  0.2476 -0.0670
  867loPI    C113857   2.607   5.705   5.617 -0.2343 -0.1479 -0.2282
  867loPI    C213858   2.743   6.022   5.415 -0.0513 -0.1291 -0.0784
  867loPI    C313859   2.696   5.671   5.229 -0.2406 -0.0200 -0.2414
  867loPI   PO413860   2.816   5.638   5.794 -0.1554  0.2108 -0.2626
  867loPI   GL113861   2.772   5.795   6.184  0.1629  0.2399  0.0714
  867loPI   GL213862   2.502   5.815   6.147  0.2094 -0.1632  0.2329
  867loPI   C1A13863   2.724   5.483   6.496  0.2211  0.0064 -0.0248
  867loPI   C2A13864   2.677   5.686   6.887  0.1119 -0.2628 -0.0299
  867loPI   C3A13865   2.668   5.583   7.286  0.1326 -0.2626  0.1115
  867loPI   C4A13866   2.695   5.672   7.708 -0.1049  0.2050  0.1462
  867loPI   C5A13867   2.805   5.542   8.161  0.2745  0.0126  0.1624
  867loPI   C6A13868   2.729   5.378   8.563 -0.0630  0.1008  0.1619
  867loPI   C1B13869   2.317   5.759   6.426  0.2376  0.0712 -0.1762
  867loPI   C2B13870   2.252   5.883   6.924 -0.1484  0.1907 -0.0153
  867loPI   C3B13871   2.150   5.772   7.292 -0.1302 -0.0107  0.0171
  867loPI   C4B13872   2.206   5.805   7.656  0.3575  0.0856 -0.2521
  868loPI    C113873  11.755   2.497   5.413  0.0707 -0.3878 -0.2289
  868loPI    C213874  12.070   2.387   5.634 -0.0290  0.1374  0.1949
  868loPI    C313875  12.118   2.473   5.246  0.2777 -0.1301  0.1692
  868loPI   PO413876  11.690   2.714   5.482 -0.2617  0.1521 -0.0056
  868loPI   GL113877  11.707   2.839   5.910  0.2143  0.1106 -0.2138
  868loPI   GL213878  11.841   2.674   6.016 -0.3077  0.0411 -0.2971
  868loPI   C1A13879  11.665   3.124   6.244  0.0431  0.0016 -0.1089
  868loPI   C2A13880  11.701   3.193   6.685 -0.4514  0.0493 -0.1769
  868loPI   C3A13881  11.714   3.207   7.167  0.0712  0.4091 -0.2053
  868loPI   C4A13882  11.754   3.183   7.676 -0.0553  0.1221  0.0031
  868loPI   C5A13883  11.924   3.002   8.117  0.0815 -0.1914  0.2087
  868loPI   C6A13884  11.834   2.635   8.286 -0.0055 -0.0112  0.0253
  868loPI   C1B13885  11.819   2.711   6.396 -0.0838 -0.1774  0.0361
  868loPI   C2B13886  11.746   2.754   6.821  0.0342  0.2728 -0.2421
  868loPI   C3B13887  11.796   2.598   7.261  0.0488 -0.2575 -0.3669
  868loPI   C4B13888  11.860   2.617   7.724  0.0795  0.1465 -0.0159
  869loPI    C113889  13.445   4.700   5.791 -0.0011 -0.3716  0.0600
  869loPI    C213890  13.212   4.795   5.480  0.3715  0.0346 -0.1061
  869loPI    C313891  13.512   4.533   5.434  0.2094 -0.1732  0.0039
  869loPI   PO413892  13.331   4.729   5.966  0.0409  0.0933  0.1109
  869loPI   GL113893  13.273   4.450   6.341  0.5118 -0.1331  0.1128
  869loPI   GL213894  13.472   4.223   6.291  0.1712 -0.1723 -0.1220
  869loPI   C1A13895  13.421   4.484   6.786  0.3363  0.1715  0.2796
  869loPI   C2A13896  13.436   4.531   7.255  0.1891  0.1106 -0.1618
  869loPI   C3A13897  13.334   4.517   7.699  0.4235  0.0070 -0.0491
  869loPI   C4A13898  13.402   4.428   8.127  0.2129 -0.0512  0.2609
  869loPI   C5A13899  13.605   4.624   8.511  0.3270  0.0577  0.1068
  869loPI   C6A13900  14.097   4.597   8.760 -0.2084 -0.0815 -0.1462
  869loPI   C1B13901  13.485   3.980   6.727  0.1470  0.2720  0.0440
  869loPI   C2B13902  13.458   3.989   7.263 -0.0649 -0.1359 -0.1775
  869loPI   C3B13903  13.410   3.953   7.704 -0.0488 -0.0684 -0.1032
  869loPI   C4B13904  13.219   3.952   8.206 -0.2887  0.0974  0.3634
  870loPI    C113905   8.273  14.508   5.687 -0.1295  0.0296  0.0544
  870loPI    C213906   8.358  14.875   5.553 -0.0067  0.0437  0.1677
  870loPI    C313907   8.614  14.574   5.490 -0.1125 -0.0260  0.0648
  870loPI   PO413908   8.182  14.535   5.882  0.1152 -0.0486  0.0592
  870loPI   GL113909   7.994  14.588   6.293 -0.0783  0.0817  0.1107
  870loPI   GL213910   7.707  14.805   6.294  0.2932 -0.0997  0.1662
  870loPI   C1A13911   8.134  14.617   6.674 -0.0712  0.0255  0.0523
  870loPI   C2A13912   8.161  14.678   7.095 -0.0381  0.1655  0.2062
  870loPI   C3A13913   8.047  14.683   7.534 -0.0292  0.1937 -0.0707
  870loPI   C4A13914   7.998  14.716   7.864 -0.0396  0.1888  0.1964
  870loPI   C5A13915   7.989  14.828   8.304 -0.0653 -0.1716 -0.0104
  870loPI   C6A13916   8.241  15.144   8.421  0.1426  0.1405  0.0334
  870loPI   C1B13917   7.652  14.873   6.727 -0.3995  0.4304 -0.2048
  870loPI   C2B13918   7.718  14.934   7.164  0.0599  0.0989 -0.0658
  870loPI   C3B13919   7.648  14.924   7.564 -0.0566  0.2597  0.0747
  870loPI   C4B13920   7.542  14.824   8.030 -0.0971  0.2149 -0.0580
  871loPI    C113921  11.226   1.658   5.441 -0.2033 -0.0829  0.0072
  871loPI    C213922  11.294   1.856   5.100 -0.0517 -0.0149  0.0761
  871loPI    C313923  11.480   1.509   5.171  0.1287  0.1067  0.2079
  871loPI   PO413924  11.246   1.780   5.610 -0.1653  0.1236  0.1466
  871loPI   GL113925  11.030   2.038   5.967 -0.0748  0.0500  0.1630
  871loPI   GL213926  11.348   1.904   6.079  0.0639 -0.1874 -0.0538
  871loPI   C1A13927  11.058   2.036   6.493 -0.0549 -0.0687  0.0344
  871loPI   C2A13928  11.082   2.004   6.894  0.3557 -0.0548 -0.0301
  871loPI   C3A13929  10.999   2.061   7.338 -0.0430  0.3146 -0.1321
  871loPI   C4A13930  11.039   2.045   7.805 -0.0761 -0.2258  0.0829
  871loPI   C5A13931  11.097   1.996   8.126  0.0690 -0.0572  0.1961
  871loPI   C6A13932  11.115   2.285   8.539 -0.1884 -0.3023 -0.2302
  871loPI   C1B13933  11.530   1.865   6.472  0.0682  0.0424 -0.0402
  871loPI   C2B13934  11.576   1.826   6.941  0.1247  0.0914 -0.0835
  871loPI   C3B13935  11.509   1.875   7.403 -0.0110 -0.0467  0.2077
  871loPI   C4B13936  11.528   1.872   7.845  0.0585  0.0605  0.0072
  872loPI    C113937   4.989   7.863   5.437  0.0112 -0.2572 -0.0045
  872loPI    C213938   4.995   7.995   5.059 -0.0329 -0.0310  0.0716
  872loPI    C313939   5.283   7.749   5.190 -0.0197 -0.1140 -0.1090
  872loPI   PO413940   4.984   7.997   5.560 -0.0987  0.0669 -0.0155
  872loPI   GL113941   5.129   7.969   5.956  0.2143 -0.0171  0.2618
  872loPI   GL213942   5.284   7.738   6.088 -0.3482  0.2508 -0.2211
  872loPI   C1A13943   5.159   8.165   6.408 -0.2147  0.1882  0.0345
  872loPI   C2A13944   5.074   8.181   6.721 -0.1401  0.0751 -0.2062
  872loPI   C3A13945   5.104   8.077   7.178 -0.1883 -0.0739 -0.0247
  872loPI   C4A13946   5.055   8.145   7.655  0.2147 -0.1796  0.3591
  872loPI   C5A13947   4.961   8.122   8.110  0.1524  0.0136  0.0097
  872loPI   C6A13948   5.041   7.818   8.258  0.0890  0.0367 -0.1603
  872loPI   C1B13949   5.210   7.629   6.561 -0.3376 -0.1084  0.0794
  872loPI   C2B13950   5.080   7.598   6.994  0.1878 -0.1952  0.1868
  872loPI   C3B13951   5.052   7.671   7.434 -0.1084 -0.0623  0.1178
  872loPI   C4B13952   5.064   7.527   7.829  0.4072 -0.0292  0.2820
  873loPI    C113953   4.692  14.625   5.477 -0.2878 -0.1015  0.0366
  873loPI    C213954   4.507  14.863   5.214 -0.2212 -0.0068  0.0751
  873loPI    C313955   4.897  14.782   5.172 -0.2699 -0.2046 -0.0049
  873loPI   PO413956   4.663  14.704   5.693 -0.0439  0.0301  0.1594
  873loPI   GL113957   4.870  14.638   6.106  0.0461  0.0496  0.1392
  873loPI   GL213958   5.060  14.788   6.281 -0.0727 -0.3166  0.1985
  873loPI   C1A13959   4.616  14.661   6.480 -0.0906  0.1995 -0.1005
  873loPI   C2A13960   4.638  14.663   6.927  0.2523 -0.0329  0.0802
  873loPI   C3A13961   4.560  14.608   7.346 -0.1154  0.1704 -0.0196
  873loPI   C4A13962   4.402  14.595   7.846  0.1081  0.3936  0.0218
  873loPI   C5A13963   4.593  14.638   8.231  0.0112 -0.1203 -0.0681
  873loPI   C6A13964   4.782  14.775   8.567  0.0169 -0.1002 -0.0155
  873loPI   C1B13965   5.000  14.911   6.635  0.2627 -0.1656  0.1372
  873loPI   C2B13966   5.035  14.953   7.079 -0.1143  0.3718 -0.0043
  873loPI   C3B13967   4.904  14.969   7.469  0.2547 -0.0155  0.2202
  873loPI   C4B13968   4.823  14.808   7.795 -0.0248 -0.0705  0.2278
  874loPI    C113969   1.009   3.483   5.771  0.0216 -0.0319 -0.0139
  874loPI    C213970   1.064   3.792   5.522  0.2220  0.0149  0.0864
  874loPI    C313971   1.304   3.472   5.502 -0.0703 -0.1983 -0.1098
  874loPI   PO413972   1.053   3.522   6.008  0.0711  0.2091 -0.1075
  874loPI   GL113973   1.354   3.484   6.322 -0.0822 -0.1382  0.0713
  874loPI   GL213974   1.242   3.877   6.365  0.4175  0.2851  0.0096
  874loPI   C1A13975   1.280   3.323   6.740 -0.1637 -0.0637 -0.0697
  874loPI   C2A13976   1.236   3.390   7.128  0.1720 -0.0776 -0.1230
  874loPI   C3A13977   1.154   3.296   7.500 -0.1758  0.0365 -0.2190
  874loPI   C4A13978   1.142   3.379   7.926 -0.2492  0.1270  0.0056
  874loPI   C5A13979   1.133   3.497   8.334  0.1108 -0.1347 -0.0357
  874loPI   C6A13980   1.068   3.827   8.711 -0.1336 -0.2320  0.0159
  874loPI   C1B13981   1.196   3.894   6.861  0.0161  0.0339  0.0701
  874loPI   C2B13982   1.176   3.876   7.310 -0.0850 -0.1556  0.2528
  874loPI   C3B13983   1.111   3.914   7.741 -0.0112  0.3916 -0.0904
  874loPI   C4B13984   1.063   3.980   8.218 -0.1296  0.3014  0.1112
  875loPI    C113985  12.664   5.687   5.452  0.0591  0.1587  0.0631
  875loPI    C213986  12.963   5.649   5.189 -0.1429  0.0776 -0.1583
  875loPI    C313987  12.709   5.957   5.161 -0.0196  0.2049  0.0936
  875loPI   PO413988  12.822   5.673   5.689 -0.0030  0.2403  0.0183
  875loPI   GL113989  12.765   5.526   6.145  0.2093 -0.3004 -0.0945
  875loPI   GL213990  13.066   5.397   6.299 -0.3141  0.1033 -0.0660
  875loPI   C1A13991  12.767   5.750   6.481 -0.0864 -0.1280 -0.1934
  875loPI   C2A13992  12.677   5.656   6.946  0.0066 -0.0850  0.1226
  875loPI   C3A13993  12.780   5.677   7.408  0.3961 -0.2197 -0.0991
  875loPI   C4A13994  12.771   5.610   7.856 -0.1386  0.2216  0.0377
  875loPI   C5A13995  12.902   5.812   8.221  0.1171 -0.1930  0.0697
  875loPI   C6A13996  13.088   5.590   8.585 -0.1952  0.2791  0.1746
  875loPI   C1B13997  13.185   5.483   6.702 -0.2497 -0.0073  0.0945
  875loPI   C2B13998  13.150   5.479   7.134 -0.2295 -0.0558  0.0449
  875loPI   C3B13999  13.234   5.514   7.589 -0.1042  0.2044 -0.3676
  875loPI   C4B14000  13.286   5.566   8.023  0.0767  0.1562 -0.1277
  876loPI    C114001   6.728  16.745   5.731  0.4397 -0.1335 -0.1213
  876loPI    C214002   6.615  17.044   5.489  0.0863 -0.0399  0.1507
  876loPI    C314003   6.471  16.675   5.432  0.0153 -0.0212  0.2067
  876loPI   PO414004   6.659  16.828   5.968 -0.0895  0.2537  0.0493
  876loPI   GL114005   6.667  16.553   6.271 -0.1704 -0.0799 -0.2782
  876loPI   GL214006   6.964  16.684   6.475  0.5143  0.0345  0.0873
  876loPI   C1A14007   6.461  16.778   6.579 -0.0057  0.2157 -0.3759
  876loPI   C2A14008   6.456  16.755   7.071  0.0160  0.0366  0.0284
  876loPI   C3A14009   6.410  16.757   7.485 -0.2379 -0.4088 -0.2245
  876loPI   C4A14010   6.444  16.789   7.966  0.2387  0.0074  0.1288
  876loPI   C5A14011   6.510  16.956   8.377  0.1495  0.0577 -0.1360
  876loPI   C6A14012   6.583  17.073   8.756 -0.1995 -0.1233  0.0765
  876loPI   C1B14013   6.875  16.569   6.850 -0.1363  0.2246  0.0004
  876loPI   C2B14014   6.866  16.550   7.350 -0.0806  0.1270  0.0278
  876loPI   C3B14015   6.860  16.619   7.746  0.3161  0.1515 -0.1512
  876loPI   C4B14016   6.927  16.597   8.225  0.1456  0.3654  0.1022
  877loPI    C114017   6.193   3.512   5.822 -0.2890 -0.1206 -0.4478
  877loPI    C214018   6.429   3.740   5.593  0.0569 -0.0758 -0.0605
  877loPI    C314019   6.092   3.892   5.746  0.1157  0.0712 -0.0751
  877loPI   PO414020   6.447   3.423   5.965  0.3828  0.3120 -0.2625
  877loPI   GL114021   6.709   3.556   6.246  0.0929  0.2541  0.0515
  877loPI   GL214022   6.348   3.401   6.438 -0.3385  0.0536  0.1265
  877loPI   C1A14023   6.669   3.770   6.571 -0.1518  0.3160  0.0420
  877loPI   C2A14024   6.573   3.775   6.940  0.1679  0.0929  0.1498
  877loPI   C3A14025   6.638   3.817   7.392 -0.1192  0.1844  0.0545
  877loPI   C4A14026   6.687   3.807   7.826  0.1813  0.2208  0.2312
  877loPI   C5A14027   6.738   3.868   8.224 -0.1212 -0.0579 -0.0150
  877loPI   C6A14028   6.654   4.089   8.569 -0.0835 -0.0472 -0.1230
  877loPI   C1B14029   6.252   3.397   6.818 -0.0064 -0.2726  0.2656
  877loPI   C2B14030   6.258   3.479   7.281 -0.1735 -0.0967  0.3155
  877loPI   C3B14031   6.191   3.392   7.668 -0.2786 -0.2995  0.4225
  877loPI   C4B14032   6.320   3.397   8.056  0.0001  0.3335  0.0532
  878loPI    C114033  14.461  15.956   5.386  0.0375 -0.1645 -0.0432
  878loPI    C214034  14.274  15.972   5.033 -0.1158  0.0506  0.0454
  878loPI    C314035  14.665  16.054   5.056 -0.0805 -0.0763 -0.0908
  878loPI   PO414036  14.324  16.130   5.574  0.1233 -0.1935 -0.2989
  878loPI   GL114037  14.211  16.156   6.075 -0.0993 -0.1273  0.3823
  878loPI   GL214038  14.435  16.151   6.085  0.0316 -0.0403  0.2507
  878loPI   C1A14039  14.303  15.722   6.322 -0.1699 -0.0076 -0.0646
  878loPI   C2A14040  14.351  15.614   6.711 -0.0585  0.1667 -0.1564
  878loPI   C3A14041  14.296  15.671   7.165 -0.1849 -0.1783  0.2868
  878loPI   C4A14042  14.389  15.658   7.609 -0.1323  0.0584  0.0688
  878loPI   C5A14043  14.499  15.599   8.102 -0.1031 -0.1556 -0.2376
  878loPI   C6A14044  14.714  15.336   8.353  0.1714  0.1280  0.1785
  878loPI   C1B14045  14.258  16.222   6.564  0.0243  0.0519 -0.0873
  878loPI   C2B14046  14.198  16.195   6.991 -0.1724  0.3036 -0.2990
  878loPI   C3B14047  14.252  16.107   7.459  0.1198 -0.0595  0.0733
  878loPI   C4B14048  14.305  16.090   7.860 -0.0935  0.0375  0.0799
  879loPI    C114049  14.638  10.950   5.324 -0.2440 -0.0981  0.1151
  879loPI    C214050  14.357  10.883   5.047 -0.0594  0.0944 -0.1244
  879loPI    C314051  14.742  10.813   4.963 -0.0181 -0.0274  0.1514
  879loPI   PO414052  14.472  10.948   5.557  0.0111  0.0917 -0.2476
  879loPI   GL114053  14.573  11.000   6.089 -0.0954  0.3130 -0.3304
  879loPI   GL214054  14.646  11.183   6.350 -0.0387  0.0559  0.0462
  879loPI   C1A14055  14.238  10.834   6.418 -0.3282  0.0920  0.0138
  879loPI   C2A14056  14.239  10.441   6.609 -0.0448  0.2253  0.3007
  879loPI   C3A14057  14.319  10.370   7.045 -0.0782  0.1095 -0.3140
  879loPI   C4A14058  14.161  10.331   7.378  0.0811 -0.0350  0.0933
  879loPI   C5A14059  14.167  10.350   7.828  0.1692  0.2464  0.1809
  879loPI   C6A14060  14.061  10.163   8.165 -0.0429 -0.3552 -0.2062
  879loPI   C1B14061  14.713  11.298   6.743 -0.0222  0.1248  0.0044
  879loPI   C2B14062  14.637  11.320   7.084  0.2115  0.1408 -0.0931
  879loPI   C3B14063  14.456  11.113   7.401 -0.0113 -0.2181 -0.3110
  879loPI   C4B14064  14.478  11.100   7.849 -0.2065  0.0244  0.4784
  880loPI    C114065   9.304   8.063   5.329 -0.0122 -0.0852 -0.1019
  880loPI    C214066   9.367   7.829   5.012  0.1419  0.1197 -0.2254
  880loPI    C314067   9.329   8.224   4.964  0.4758  0.1893  0.0432
  880loPI   PO414068   9.312   7.847   5.562 -0.1009  0.4700  0.0159
  880loPI   GL114069   9.139   7.848   6.027  0.0854  0.5436 -0.1921
  880loPI   GL214070   9.214   7.538   6.217 -0.0699 -0.0635  0.2235
  880loPI   C1A14071   9.128   7.949   6.456  0.0141  0.2660 -0.3491
  880loPI   C2A14072   9.212   8.048   6.848  0.1064 -0.1447  0.0209
  880loPI   C3A14073   9.272   7.979   7.261  0.2064  0.0157 -0.2583
  880loPI   C4A14074   9.189   7.951   7.653  0.2910 -0.0727  0.3315
  880loPI   C5A14075   9.239   8.070   8.054 -0.1676 -0.0352  0.0343
  880loPI   C6A14076   8.956   7.808   8.352 -0.1843  0.1723 -0.0713
  880loPI   C1B14077   9.251   7.505   6.662 -0.0413  0.1015  0.0517
  880loPI   C2B14078   9.342   7.521   7.053  0.0687  0.1395 -0.0790
  880loPI   C3B14079   9.234   7.510   7.456  0.1455 -0.3190  0.0278
  880loPI   C4B14080   9.174   7.427   7.902  0.2354  0.0002  0.0687
  881loPI    C114081   0.427   2.205   5.568 -0.1315  0.1401 -0.0209
  881loPI    C214082   0.378   2.446   5.252 -0.2063  0.0708 -0.0625
  881loPI    C314083   0.586   2.106   5.214 -0.1045  0.1262 -0.0049
  881loPI   PO414084   0.514   2.247   5.731 -0.2088 -0.0954  0.1021
  881loPI   GL114085   0.552   2.163   6.150 -0.0098 -0.5683 -0.2490
  881loPI   GL214086   0.776   1.856   6.043 -0.1847  0.0019 -0.1887
  881loPI   C1A14087   0.533   2.127   6.663 -0.3130 -0.3134  0.1257
  881loPI   C2A14088   0.500   2.135   7.055 -0.1535 -0.2377  0.0086
  881loPI   C3A14089   0.504   2.168   7.452 -0.2185 -0.2695 -0.0895
  881loPI   C4A14090   0.429   2.209   7.870  0.1031  0.0271 -0.0090
  881loPI   C5A14091   0.463   2.223   8.246  0.1210  0.0950  0.0648
  881loPI   C6A14092   0.405   2.065   8.643 -0.2826 -0.0134  0.0852
  881loPI   C1B14093   0.957   2.010   6.458 -0.3462 -0.0970 -0.2097
  881loPI   C2B14094   0.993   2.024   6.927  0.0830 -0.1348 -0.0737
  881loPI   C3B14095   1.032   2.031   7.404 -0.1162 -0.0706  0.4318
  881loPI   C4B14096   0.912   2.089   7.839 -0.2474  0.3047  0.0646
  882loPI    C114097   4.351   1.521   5.400 -0.0306  0.0709 -0.0951
  882loPI    C214098   4.090   1.553   5.098 -0.2573  0.0034  0.0902
  882loPI    C314099   4.306   1.219   5.141  0.1317  0.1979 -0.2739
  882loPI   PO414100   4.330   1.548   5.664 -0.3839 -0.2641 -0.1554
  882loPI   GL114101   4.188   1.648   6.128 -0.0469 -0.3931 -0.0293
  882loPI   GL214102   3.859   1.761   6.164  0.1911  0.2272 -0.1348
  882loPI   C1A14103   4.280   1.730   6.603 -0.0779 -0.1295 -0.4301
  882loPI   C2A14104   4.213   1.750   7.112  0.0660 -0.1845  0.1274
  882loPI   C3A14105   4.227   1.770   7.569 -0.2369 -0.2663  0.0783
  882loPI   C4A14106   4.198   1.795   8.001 -0.1314  0.0086  0.1330
  882loPI   C5A14107   4.372   1.930   8.369 -0.2074 -0.1502  0.1205
  882loPI   C6A14108   4.123   1.891   8.637 -0.0333 -0.2167  0.1573
  882loPI   C1B14109   3.793   1.862   6.574  0.1130  0.2590  0.0062
  882loPI   C2B14110   3.745   1.913   7.043 -0.2900  0.0169  0.0762
  882loPI   C3B14111   3.641   1.892   7.523  0.0419 -0.0578  0.0685
  882loPI   C4B14112   3.686   1.933   7.943  0.1098 -0.1948 -0.2106
  883loPI    C114113   0.962  14.261   5.741 -0.2454  0.1272 -0.1007
  883loPI    C214114   0.985  13.867   5.808  0.1209  0.1778  0.1028
  883loPI    C314115   0.734  14.009   5.531  0.2619 -0.2295 -0.2444
  883loPI   PO414116   1.057  14.327   5.964  0.2662  0.3380  0.3968
  883loPI   GL114117   1.170  14.075   6.313 -0.0642 -0.0244 -0.1621
  883loPI   GL214118   1.385  14.212   6.308  0.2446 -0.0078 -0.1750
  883loPI   C1A14119   1.003  13.916   6.699  0.0272 -0.0396  0.0170
  883loPI   C2A14120   1.023  14.004   7.088  0.1044  0.2075  0.1385
  883loPI   C3A14121   1.011  14.034   7.575  0.1606  0.0370  0.1307
  883loPI   C4A14122   0.926  14.084   7.928  0.0625  0.1166  0.2458
  883loPI   C5A14123   0.944  14.249   8.325 -0.0843  0.2750  0.0107
  883loPI   C6A14124   0.987  14.339   8.772  0.2022  0.0326  0.1402
  883loPI   C1B14125   1.485  14.424   6.698 -0.0453  0.0480  0.0678
  883loPI   C2B14126   1.389  14.443   7.146 -0.1886 -0.0805  0.1058
  883loPI   C3B14127   1.433  14.323   7.509  0.0908  0.0130  0.0150
  883loPI   C4B14128   1.338  14.357   7.952 -0.0421 -0.1918  0.0194
  884loPI    C114129   2.013   1.411   5.595 -0.0493  0.1030  0.0803
  884loPI    C214130   1.847   1.047   5.609 -0.0701  0.1127  0.0860
  884loPI    C314131   1.888   1.236   5.258  0.2435 -0.0347  0.0397
  884loPI   PO414132   2.194   1.413   5.748 -0.3989 -0.0606 -0.0824
  884loPI   GL114133   2.219   1.261   6.150 -0.4819 -0.2758 -0.0480
  884loPI   GL214134   2.387   1.485   6.278  0.5272 -0.1334  0.1953
  884loPI   C1A14135   2.103   1.163   6.505  0.3324 -0.1887  0.0150
  884loPI   C2A14136   2.074   1.159   6.953 -0.0648 -0.0585  0.2119
  884loPI   C3A14137   2.055   1.191   7.364  0.2166  0.2459 -0.0646
  884loPI   C4A14138   1.982   1.176   7.795 -0.3431  0.0017 -0.1362
  884loPI   C5A14139   1.875   1.242   8.126  0.0868  0.0505 -0.0620
  884loPI   C6A14140   1.602   1.307   8.500  0.0733 -0.1909  0.0844
  884loPI   C1B14141   2.451   1.476   6.683  0.0444  0.0650  0.4954
  884loPI   C2B14142   2.434   1.455   7.127  0.2943 -0.3867  0.0556
  884loPI   C3B14143   2.406   1.502   7.575  0.1532  0.1802  0.2960
  884loPI   C4B14144   2.358   1.490   8.014 -0.1838 -0.1190 -0.1113
  885loPI    C114145   0.622   8.630   5.625 -0.0815 -0.1012 -0.0855
  885loPI    C214146   0.984   8.734   5.489 -0.0077 -0.1720  0.0549
  885loPI    C314147   0.759   8.476   5.282  0.0409 -0.1627 -0.0097
  885loPI   PO414148   0.635   8.527   5.810 -0.3694  0.1235 -0.2238
  885loPI   GL114149   0.733   8.674   6.220 -0.2220  0.0346  0.1974
  885loPI   GL214150   0.399   8.450   6.260 -0.1997 -0.0299  0.1111
  885loPI   C1A14151   0.804   8.803   6.539  0.1102  0.4508  0.2569
  885loPI   C2A14152   0.888   8.747   6.914  0.1003  0.1199 -0.0848
  885loPI   C3A14153   0.833   8.740   7.407  0.5411  0.2667 -0.2265
  885loPI   C4A14154   0.777   8.893   7.742  0.0224  0.1096 -0.3755
  885loPI   C5A14155   0.791   8.751   8.229  0.1747  0.1352 -0.1759
  885loPI   C6A14156   0.893   8.750   8.776 -0.2405  0.2224  0.1399
  885loPI   C1B14157   0.581   8.338   6.668 -0.2553 -0.0520  0.0874
  885loPI   C2B14158   0.492   8.392   7.136  0.1790  0.0205  0.1241
  885loPI   C3B14159   0.370   8.510   7.528 -0.1623  0.0372 -0.1048
  885loPI   C4B14160   0.493   8.488   7.864  0.1716  0.0732  0.2518
  886loPI    C114161  10.750   9.736   5.233 -0.0028 -0.0999 -0.2083
  886loPI    C214162  10.517  10.059   5.194  0.0908 -0.0032  0.0157
  886loPI    C314163  10.915  10.098   5.184  0.1009 -0.1542 -0.2641
  886loPI   PO414164  10.656   9.661   5.454  0.0405 -0.1715 -0.0377
  886loPI   GL114165  10.592   9.655   5.920  0.1992 -0.2740  0.1451
  886loPI   GL214166  10.901   9.709   6.028  0.0271 -0.1258 -0.0198
  886loPI   C1A14167  10.525   9.496   6.294  0.1541  0.0113  0.2472
  886loPI   C2A14168  10.341   9.450   6.633  0.1849  0.0044 -0.2504
  886loPI   C3A14169  10.401   9.472   6.987  0.0670  0.1815 -0.2726
  886loPI   C4A14170  10.330   9.435   7.507 -0.0447 -0.0199 -0.0444
  886loPI   C5A14171  10.322   9.431   8.018  0.0561 -0.0335 -0.1540
  886loPI   C6A14172  10.254   9.219   8.475 -0.0204  0.1885  0.0968
  886loPI   C1B14173  10.879   9.839   6.399 -0.2394 -0.2110 -0.0550
  886loPI   C2B14174  10.770   9.827   6.857 -0.2695 -0.1148 -0.3223
  886loPI   C3B14175  10.756   9.723   7.315 -0.3072 -0.1785 -0.1215
  886loPI   C4B14176  10.759   9.797   7.740 -0.0787  0.5043 -0.2613
  887loPI    C114177  11.988   4.686   5.166 -0.0096 -0.4358  0.0261
  887loPI    C214178  12.382   4.627   5.207  0.0571 -0.1188 -0.1265
  887loPI    C314179  12.243   4.991   5.116 -0.2607 -0.2635 -0.2329
  887loPI   PO414180  11.894   4.653   5.465 -0.1752 -0.1612  0.2731
  887loPI   GL114181  11.836   4.852   5.914  0.0383  0.0400  0.3089
  887loPI   GL214182  11.569   4.724   6.171  0.0870  0.1382 -0.1322
  887loPI   C1A14183  11.948   4.514   6.265 -0.2334  0.0330  0.3134
  887loPI   C2A14184  11.956   4.503   6.729 -0.1308  0.1725  0.1110
  887loPI   C3A14185  11.999   4.474   7.229 -0.0829 -0.0042  0.3099
  887loPI   C4A14186  12.008   4.475   7.680 -0.2392 -0.0395 -0.1559
  887loPI   C5A14187  11.944   4.562   8.071  0.0017  0.1845  0.1434
  887loPI   C6A14188  11.646   4.401   8.282 -0.2917  0.0687  0.2884
  887loPI   C1B14189  11.478   4.721   6.593 -0.0764 -0.0304  0.3547
  887loPI   C2B14190  11.497   4.711   6.993 -0.0403 -0.0226  0.4551
  887loPI   C3B14191  11.532   4.579   7.409 -0.2690  0.1917  0.1179
  887loPI   C4B14192  11.461   4.686   7.850  0.0662  0.0347 -0.2600
  888loPI    C114193   4.281   3.048   5.578 -0.1784  0.0305  0.2721
  888loPI    C214194   4.178   3.360   5.349 -0.0455 -0.0088  0.1578
  888loPI    C314195   3.976   3.016   5.320  0.0512 -0.0540  0.0062
  888loPI   PO414196   4.259   3.044   5.791  0.1795 -0.0437  0.1375
  888loPI   GL114197   4.552   3.190   6.119  0.1304 -0.0830  0.2801
  888loPI   GL214198   4.839   3.394   6.230 -0.2724  0.1668 -0.2722
  888loPI   C1A14199   4.521   3.017   6.542  0.0200 -0.0544 -0.3290
  888loPI   C2A14200   4.474   3.044   6.928  0.2851  0.2854  0.0497
  888loPI   C3A14201   4.435   3.123   7.426  0.1446  0.0191 -0.1199
  888loPI   C4A14202   4.392   3.124   7.757 -0.1525  0.1356  0.1212
  888loPI   C5A14203   4.649   3.127   8.242 -0.0345  0.2827  0.0362
  888loPI   C6A14204   4.396   3.015   8.683 -0.1010  0.1667  0.0683
  888loPI   C1B14205   4.833   3.398   6.727  0.3849 -0.2687 -0.0492
  888loPI   C2B14206   4.881   3.459   7.187 -0.3516  0.1913  0.2618
  888loPI   C3B14207   4.785   3.448   7.621  0.1285 -0.0532 -0.2079
  888loPI   C4B14208   4.878   3.518   8.037  0.1216 -0.0914  0.0457
  889loPI    C114209   1.413   6.792   5.610 -0.2845 -0.0113 -0.0158
  889loPI    C214210   1.501   7.181   5.641  0.0031 -0.0840  0.1146
  889loPI    C314211   1.472   7.011   5.280  0.0554  0.0190  0.0610
  889loPI   PO414212   1.579   6.692   5.761 -0.0088 -0.1283 -0.1721
  889loPI   GL114213   1.492   6.555   6.153  0.0408  0.2870  0.2863
  889loPI   GL214214   1.717   6.482   6.337 -0.0419  0.1317  0.1705
  889loPI   C1A14215   1.269   6.295   6.555  0.2060 -0.0325  0.1697
  889loPI   C2A14216   1.206   6.087   6.981  0.2162  0.0607  0.3908
  889loPI   C3A14217   1.216   6.230   7.434  0.2087  0.1264  0.2549
  889loPI   C4A14218   1.194   6.269   7.904 -0.1009  0.2735 -0.2619
  889loPI   C5A14219   0.944   6.426   8.260  0.0338 -0.1830 -0.0785
  889loPI   C6A14220   0.777   6.459   8.650  0.0572 -0.1948 -0.1317
  889loPI   C1B14221   1.709   6.602   6.805 -0.1999 -0.0990 -0.1199
  889loPI   C2B14222   1.570   6.535   7.236  0.1134  0.1415  0.0886
  889loPI   C3B14223   1.491   6.591   7.729 -0.0456 -0.0758 -0.0434
  889loPI   C4B14224   1.344   6.700   8.161 -0.0417 -0.0225  0.0193
  890loPI    C114225  11.058  12.395   5.612  0.1164  0.1378 -0.1443
  890loPI    C214226  11.150  12.217   5.266 -0.0264  0.0142 -0.1201
  890loPI    C314227  10.984  12.581   5.266 -0.1998 -0.0641 -0.1895
  890loPI   PO414228  11.164  12.302   5.848 -0.1569  0.1715 -0.2576
  890loPI   GL114229  11.170  12.373   6.215  0.1968 -0.0446 -0.1826
  890loPI   GL214230  10.968  12.196   6.342  0.1537  0.1518  0.1585
  890loPI   C1A14231  11.269  12.488   6.579 -0.1321 -0.1620 -0.3204
  890loPI   C2A14232  11.278  12.447   6.990  0.1831  0.0132 -0.0829
  890loPI   C3A14233  11.254  12.494   7.406 -0.1185  0.0326 -0.0339
  890loPI   C4A14234  11.233  12.528   7.758  0.1270 -0.3439  0.0055
  890loPI   C5A14235  11.055  12.719   8.161 -0.2651  0.1941  0.3548
  890loPI   C6A14236  10.696  12.945   8.559  0.2405  0.0414 -0.0166
  890loPI   C1B14237  10.913  12.097   6.719  0.3947  0.1288 -0.0800
  890loPI   C2B14238  10.848  12.204   7.128 -0.1354  0.1330 -0.0028
  890loPI   C3B14239  10.723  12.116   7.556 -0.0418  0.0561  0.2000
  890loPI   C4B14240  10.841  12.305   7.885  0.2399  0.2391 -0.4403
  891loPI    C114241   1.909  16.416   5.595 -0.0240  0.1746 -0.0651
  891loPI    C214242   1.935  16.574   5.228  0.0797  0.2888 -0.0095
  891loPI    C314243   2.267  16.466   5.423  0.0076 -0.0462 -0.0659
  891loPI   PO414244   1.751  16.552   5.792 -0.2557 -0.1291  0.4113
  891loPI   GL114245   1.378  16.504   6.019 -0.2101  0.0304 -0.0783
  891loPI   GL214246   1.201  16.194   6.116 -0.1233  0.0227  0.1247
  891loPI   C1A14247   1.400  16.690   6.456  0.2783 -0.2805  0.0523
  891loPI   C2A14248   1.426  16.665   6.898  0.1126  0.1513  0.0024
  891loPI   C3A14249   1.424  16.743   7.408 -0.2451 -0.0258  0.1094
  891loPI   C4A14250   1.444  16.759   7.769  0.0701 -0.2163 -0.1749
  891loPI   C5A14251   1.300  16.581   8.118  0.1066 -0.1348  0.1482
  891loPI   C6A14252   1.169  16.167   8.315  0.0992  0.2067  0.0480
  891loPI   C1B14253   1.073  16.336   6.540  0.0148  0.1014 -0.3263
  891loPI   C2B14254   1.017  16.399   6.942  0.1186  0.0161  0.0810
  891loPI   C3B14255   1.015  16.397   7.303  0.1578 -0.0871 -0.0369
  891loPI   C4B14256   1.088  16.404   7.690  0.6524  0.0392  0.1644
  892loPI    C114257   1.351   1.140   5.399  0.1286 -0.0894 -0.0692
  892loPI    C214258   1.414   1.513   5.269  0.3249 -0.0846  0.0373
  892loPI    C314259   1.283   1.232   5.016 -0.0105  0.1012 -0.0004
  892loPI   PO414260   1.369   1.140   5.713  0.0713  0.0346 -0.1388
  892loPI   GL114261   1.239   1.261   6.119  0.2122  0.0146 -0.1941
  892loPI   GL214262   1.126   1.540   6.246 -0.2033  0.1251 -0.0030
  892loPI   C1A14263   1.279   0.943   6.381 -0.1576 -0.3477 -0.2718
  892loPI   C2A14264   1.253   0.945   6.763 -0.3829  0.1509 -0.1525
  892loPI   C3A14265   1.219   1.137   7.143  0.1687  0.0997 -0.0247
  892loPI   C4A14266   1.165   1.009   7.613 -0.1191  0.0189 -0.3620
  892loPI   C5A14267   1.029   0.929   7.964 -0.0004 -0.0175 -0.2980
  892loPI   C6A14268   1.114   1.273   8.300 -0.1557  0.2815  0.1047
  892loPI   C1B14269   1.131   1.580   6.654  0.0323  0.3384  0.0277
  892loPI   C2B14270   1.009   1.569   7.105  0.0550 -0.0139  0.0507
  892loPI   C3B14271   1.063   1.471   7.529  0.1023 -0.1227 -0.1204
  892loPI   C4B14272   0.976   1.538   7.924  0.1710  0.0871 -0.0940
  893loPI    C114273   4.968   5.243   5.571 -0.1544  0.1635 -0.0196
  893loPI    C214274   5.330   5.376   5.464 -0.0825 -0.0784 -0.0831
  893loPI    C314275   5.004   5.510   5.275 -0.0191  0.0668 -0.0911
  893loPI   PO414276   4.935   5.308   5.860 -0.2853 -0.5097 -0.0995
  893loPI   GL114277   4.809   5.111   6.167 -0.1920 -0.3003  0.0244
  893loPI   GL214278   4.552   4.884   6.244 -0.3187  0.0144 -0.2327
  893loPI   C1A14279   4.999   5.162   6.491 -0.0777  0.2913  0.2024
  893loPI   C2A14280   5.051   5.381   6.849 -0.1259 -0.0180 -0.3318
  893loPI   C3A14281   5.084   5.364   7.360  0.4152 -0.4946  0.0627
  893loPI   C4A14282   5.049   5.368   7.786  0.1269  0.1318 -0.0585
  893loPI   C5A14283   4.951   5.342   8.269 -0.1115  0.2840 -0.0578
  893loPI   C6A14284   4.940   5.322   8.669  0.2843  0.0187 -0.0357
  893loPI   C1B14285   4.632   4.883   6.718 -0.1608 -0.0896  0.1341
  893loPI   C2B14286   4.598   4.997   7.144 -0.2201 -0.3616  0.0834
  893loPI   C3B14287   4.686   5.089   7.577  0.3108  0.2906  0.1917
  893loPI   C4B14288   4.630   5.063   8.031 -0.2778  0.0366 -0.1310
  894loPI    C114289   5.073   9.901   5.688 -0.0984  0.1610  0.0066
  894loPI    C214290   5.129   9.674   5.363  0.2263 -0.0276  0.1891
  894loPI    C314291   5.071  10.068   5.325 -0.0855 -0.0983 -0.1153
  894loPI   PO414292   4.880   9.736   5.801  0.1604 -0.1267 -0.1765
  894loPI   GL114293   4.671   9.891   6.127  0.1052 -0.0226 -0.0046
  894loPI   GL214294   4.686   9.669   6.328 -0.0711  0.3966 -0.2021
  894loPI   C1A14295   4.805  10.163   6.459 -0.2113 -0.2809 -0.0953
  894loPI   C2A14296   4.837  10.143   6.877 -0.2762 -0.1383 -0.0928
  894loPI   C3A14297   4.696  10.187   7.223 -0.0351  0.1333  0.1709
  894loPI   C4A14298   4.681  10.173   7.614  0.1895 -0.0121 -0.0166
  894loPI   C5A14299   4.698  10.107   7.939 -0.0484  0.2831 -0.0795
  894loPI   C6A14300   4.789   9.790   8.280 -0.0890 -0.3101  0.2553
  894loPI   C1B14301   4.859   9.636   6.726 -0.1770 -0.0088  0.2279
  894loPI   C2B14302   4.846   9.688   7.163 -0.0781  0.1355 -0.2245
  894loPI   C3B14303   4.784   9.619   7.532 -0.0817 -0.0728 -0.0162
  894loPI   C4B14304   4.665   9.566   7.911  0.0828 -0.2255  0.2124
  895loPI    C114305   1.994  14.261   5.756 -0.0297  0.3050  0.0283
  895loPI    C214306   2.289  14.078   5.558 -0.1192 -0.0774  0.2398
  895loPI    C314307   1.982  14.236   5.357  0.0479  0.0021  0.0430
  895loPI   PO414308   2.044  14.167   6.034  0.0245 -0.0219  0.2028
  895loPI   GL114309   1.851  14.257   6.452 -0.0302 -0.0659 -0.0749
  895loPI   GL214310   1.843  14.558   6.418 -0.0500 -0.0546  0.2742
  895loPI   C1A14311   1.876  14.176   6.887 -0.2892  0.3088  0.0948
  895loPI   C2A14312   1.851  14.191   7.257  0.1029  0.1288  0.0478
  895loPI   C3A14313   1.870  14.207   7.702  0.3939 -0.2829  0.0970
  895loPI   C4A14314   1.859  14.098   8.128  0.0123  0.1168 -0.0559
  895loPI   C5A14315   1.961  14.120   8.606 -0.0576  0.2155  0.0548
  895loPI   C6A14316   1.986  14.296   8.997 -0.0834  0.1465  0.0051
  895loPI   C1B14317   1.802  14.801   6.894 -0.3878  0.0525 -0.1011
  895loPI   C2B14318   1.828  14.705   7.322  0.1311 -0.1847 -0.0810
  895loPI   C3B14319   1.785  14.692   7.735 -0.3130  0.0051  0.0756
  895loPI   C4B14320   1.657  14.661   8.158 -0.2380  0.3209 -0.0933
  896loPI    C114321   7.853   1.953   5.856  0.0259 -0.1836 -0.3254
  896loPI    C214322   7.625   1.651   5.727 -0.1916 -0.0109 -0.3513
  896loPI    C314323   7.938   1.772   5.509  0.0678 -0.3988 -0.2042
  896loPI   PO414324   7.907   1.927   6.049 -0.0616 -0.1796 -0.0126
  896loPI   GL114325   7.754   2.092   6.432 -0.0391 -0.1067 -0.1096
  896loPI   GL214326   7.905   2.310   6.428 -0.2701 -0.1028 -0.0953
  896loPI   C1A14327   7.404   1.865   6.667 -0.1875 -0.1790 -0.0084
  896loPI   C2A14328   7.342   1.961   7.083  0.0815  0.2690 -0.1214
  896loPI   C3A14329   7.296   1.959   7.487 -0.3728 -0.1881  0.1164
  896loPI   C4A14330   7.431   2.001   7.952 -0.0790  0.2223  0.1061
  896loPI   C5A14331   7.485   1.937   8.447 -0.4018 -0.0732 -0.0117
  896loPI   C6A14332   7.787   1.739   8.699 -0.0334  0.2904 -0.2808
  896loPI   C1B14333   7.813   2.340   6.871  0.0882 -0.1338  0.1107
  896loPI   C2B14334   7.719   2.252   7.364 -0.1764 -0.0274  0.0646
  896loPI   C3B14335   7.729   2.398   7.739  0.0961  0.1247 -0.1661
  896loPI   C4B14336   7.730   2.447   8.190 -0.2080 -0.2692  0.0928
  897loPI    C114337  13.005  11.839   5.530  0.0781 -0.1289 -0.1449
  897loPI    C214338  13.129  12.015   5.193  0.0005  0.2517  0.0198
  897loPI    C314339  12.745  11.912   5.235  0.0510  0.0122 -0.0870
  897loPI   PO414340  13.013  11.951   5.734 -0.2345  0.1949 -0.0539
  897loPI   GL114341  13.048  11.807   6.128 -0.1544  0.0895  0.1900
  897loPI   GL214342  12.760  11.936   6.246 -0.1695 -0.2102  0.2984
  897loPI   C1A14343  13.143  11.735   6.584  0.0978 -0.0533 -0.0066
  897loPI   C2A14344  13.124  11.802   7.005 -0.1368  0.0311  0.1611
  897loPI   C3A14345  13.092  11.757   7.479  0.0911  0.0674 -0.2308
  897loPI   C4A14346  13.070  11.705   7.937 -0.4268 -0.0300 -0.1782
  897loPI   C5A14347  12.955  11.677   8.348 -0.1701 -0.1444  0.0882
  897loPI   C6A14348  12.738  11.633   8.737 -0.3612 -0.0664  0.0484
  897loPI   C1B14349  12.676  11.964   6.758 -0.0781 -0.0746  0.2137
  897loPI   C2B14350  12.688  11.974   7.252 -0.1393  0.4385 -0.2203
  897loPI   C3B14351  12.591  11.821   7.658  0.1477 -0.0931  0.0137
  897loPI   C4B14352  12.557  11.859   8.130 -0.0221 -0.1844 -0.0255
  898loPI    C114353   5.807   4.866   5.363 -0.1248 -0.0761 -0.1177
  898loPI    C214354   6.192   4.865   5.255 -0.0258  0.0274  0.2196
  898loPI    C314355   5.908   4.780   4.986  0.2247  0.0415 -0.0546
  898loPI   PO414356   5.752   5.057   5.467  0.0266 -0.3534 -0.0802
  898loPI   GL114357   5.782   5.245   5.898  0.2311  0.0007 -0.0547
  898loPI   GL214358   5.504   5.450   5.886 -0.3908  0.3339  0.0526
  898loPI   C1A14359   5.852   5.429   6.305 -0.1258  0.1010  0.2548
  898loPI   C2A14360   5.914   5.490   6.702 -0.1622  0.1379 -0.2336
  898loPI   C3A14361   5.962   5.504   7.163 -0.0141  0.3652  0.1462
  898loPI   C4A14362   5.880   5.488   7.573 -0.1811 -0.1343 -0.0031
  898loPI   C5A14363   5.872   5.574   7.969 -0.0071 -0.0904  0.1806
  898loPI   C6A14364   5.915   5.996   8.295  0.3272  0.3347 -0.1715
  898loPI   C1B14365   5.372   5.456   6.331  0.0873  0.3335  0.3615
  898loPI   C2B14366   5.424   5.755   6.696  0.2035 -0.1019 -0.2641
  898loPI   C3B14367   5.457   5.692   7.123 -0.3240 -0.3822  0.4780
  898loPI   C4B14368   5.423   5.680   7.598 -0.0536  0.0380 -0.2023
  899loPI    C114369  15.586   2.474   5.477  0.1318  0.1555 -0.0212
  899loPI    C214370  15.500   2.734   5.186 -0.1041 -0.1574 -0.2383
  899loPI    C314371  15.765   2.442   5.121  0.0805 -0.0391 -0.0306
  899loPI   PO414372  15.662   2.558   5.684 -0.1359 -0.1052  0.1725
  899loPI   GL114373  15.575   2.535   6.070  0.1231 -0.1066 -0.1461
  899loPI   GL214374  15.435   2.873   6.066 -0.1995 -0.2842 -0.0178
  899loPI   C1A14375  15.561   2.261   6.423 -0.1476  0.0963  0.6131
  899loPI   C2A14376  15.541   2.219   6.856  0.2279 -0.2407 -0.2046
  899loPI   C3A14377  15.443   2.273   7.273 -0.0658  0.2376 -0.1267
  899loPI   C4A14378  15.497   2.339   7.719 -0.2249 -0.0373 -0.1298
  899loPI   C5A14379  15.438   2.387   8.100 -0.1386 -0.4514  0.0689
  899loPI   C6A14380  15.481   2.471   8.478 -0.2110 -0.1356 -0.2589
  899loPI   C1B14381  15.467   2.725   6.528 -0.1975  0.0120  0.0441
  899loPI   C2B14382  15.421   2.777   6.942 -0.0102  0.0419  0.1049
  899loPI   C3B14383  15.438   2.773   7.360  0.0563 -0.3488  0.3203
  899loPI   C4B14384  15.415   2.843   7.814  0.1976  0.1074 -0.2838
  900loPI    C114385   8.118   3.197   5.215 -0.3103  0.1163 -0.1081
  900loPI    C214386   7.780   2.988   5.170 -0.1799 -0.0935 -0.1276
  900loPI    C314387   8.134   2.804   5.140 -0.0656  0.0884  0.0760
  900loPI   PO414388   8.136   3.224   5.497 -0.1343 -0.2291 -0.0011
  900loPI   GL114389   8.186   3.453   5.884  0.0668  0.2795 -0.0373
  900loPI   GL214390   8.141   3.181   6.000 -0.0164 -0.2227 -0.3655
  900loPI   C1A14391   8.445   3.495   6.185 -0.5236  0.1764  0.4604
  900loPI   C2A14392   8.506   3.498   6.574 -0.2851 -0.0057  0.3768
  900loPI   C3A14393   8.436   3.431   7.086 -0.0065  0.2698 -0.0032
  900loPI   C4A14394   8.429   3.433   7.534  0.0192  0.0166 -0.3800
  900loPI   C5A14395   8.395   3.372   7.979 -0.0144  0.3443  0.0318
  900loPI   C6A14396   8.459   2.939   8.209  0.1579 -0.3166  0.3274
  900loPI   C1B14397   8.089   3.194   6.360  0.0441  0.1012 -0.0543
  900loPI   C2B14398   8.085   3.176   6.811 -0.1417  0.0510  0.2951
  900loPI   C3B14399   8.035   3.110   7.267  0.3471  0.1780 -0.0440
  900loPI   C4B14400   8.004   3.210   7.772  0.1532  0.0603 -0.1800
  901loPI    C114401   6.093  16.974   5.659  0.2375  0.2564  0.1123
  901loPI    C214402   6.149  17.116   5.289 -0.0537 -0.0824 -0.0677
  901loPI    C314403   5.782  17.109   5.448  0.0546 -0.0349  0.1891
  901loPI   PO414404   6.224  17.054   5.822 -0.1485 -0.1840 -0.0127
  901loPI   GL114405   6.258  17.066   6.222  0.1121  0.1247  0.0519
  901loPI   GL214406   6.043  16.831   6.242  0.2084 -0.0445  0.2537
  901loPI   C1A14407   6.330  17.233   6.578 -0.1871  0.0936 -0.0827
  901loPI   C2A14408   6.408  17.350   6.938 -0.0978  0.0478 -0.0577
  901loPI   C3A14409   6.444  17.258   7.354  0.0451 -0.0345  0.1310
  901loPI   C4A14410   6.250  17.212   7.780  0.1982 -0.2652  0.1013
  901loPI   C5A14411   6.159  17.285   8.100 -0.2903  0.2217  0.2073
  901loPI   C6A14412   6.149  17.256   8.576 -0.0024  0.2570 -0.0327
  901loPI   C1B14413   5.977  16.863   6.720 -0.1309  0.0963 -0.0397
  901loPI   C2B14414   5.990  16.887   7.267  0.2126 -0.0475  0.0533
  901loPI   C3B14415   5.889  16.897   7.600 -0.1903  0.1134  0.1074
  901loPI   C4B14416   5.869  16.904   7.957 -0.2387  0.2276 -0.3643
  902loPI    C114417   6.357  11.959   5.459  0.0901 -0.0208  0.1032
  902loPI    C214418   6.230  12.267   5.681  0.2468  0.0384  0.1120
  902loPI    C314419   6.424  12.334   5.338  0.0193 -0.0526 -0.0375
  902loPI   PO414420   6.474  11.817   5.606 -0.1654  0.5416  0.1946
  902loPI   GL114421   6.426  11.837   6.013  0.1699  0.0082  0.0178
  902loPI   GL214422   6.505  12.114   6.122  0.1277 -0.0649 -0.2448
  902loPI   C1A14423   6.288  11.978   6.498  0.0770  0.2531  0.1291
  902loPI   C2A14424   6.263  12.042   6.925 -0.0837 -0.0458 -0.1295
  902loPI   C3A14425   6.212  12.072   7.453  0.3317  0.1944  0.1828
  902loPI   C4A14426   6.232  11.953   7.848  0.4165 -0.2073 -0.0633
  902loPI   C5A14427   6.471  11.975   8.157  0.2136 -0.2223 -0.0378
  902loPI   C6A14428   6.838  12.312   8.224  0.2723 -0.2068 -0.1497
  902loPI   C1B14429   6.656  12.314   6.526  0.0899 -0.0766 -0.3769
  902loPI   C2B14430   6.750  12.315   7.012  0.1818  0.1019  0.1380
  902loPI   C3B14431   6.673  12.304   7.408 -0.1389 -0.2204 -0.0105
  902loPI   C4B14432   6.593  12.351   7.798 -0.1481 -0.0783  0.2290
  903loPI    C114433   5.767   1.801   5.468  0.0669 -0.1366 -0.0656
  903loPI    C214434   5.838   2.022   5.142 -0.0112 -0.0095  0.0026
  903loPI    C314435   5.981   1.649   5.167  0.1658  0.0510 -0.0914
  903loPI   PO414436   5.729   1.995   5.648 -0.1496 -0.1744  0.1891
  903loPI   GL114437   5.754   2.054   6.089 -0.0594  0.3744  0.1121
  903loPI   GL214438   5.507   2.199   6.175  0.2137 -0.0357  0.0294
  903loPI   C1A14439   5.927   2.034   6.479  0.1156 -0.0610 -0.1408
  903loPI   C2A14440   5.934   2.019   6.931  0.1900  0.1533  0.2702
  903loPI   C3A14441   5.975   2.035   7.310 -0.1530  0.4930  0.0624
  903loPI   C4A14442   5.917   1.974   7.645  0.0472 -0.0236 -0.0398
  903loPI   C5A14443   5.913   1.975   8.059  0.0544 -0.0190 -0.0444
  903loPI   C6A14444   6.061   1.964   8.489 -0.0611  0.0793 -0.4650
  903loPI   C1B14445   5.486   2.160   6.709  0.1666  0.1094 -0.2951
  903loPI   C2B14446   5.514   2.212   7.135  0.0829 -0.3474 -0.3566
  903loPI   C3B14447   5.501   2.341   7.520  0.0084 -0.0137  0.2159
  903loPI   C4B14448   5.559   2.371   7.930 -0.3468  0.2462 -0.2414
  904loPI    C114449  11.276   2.362   5.549  0.1214  0.1117 -0.0506
  904loPI    C214450  11.143   2.639   5.294 -0.2326 -0.0298 -0.0255
  904loPI    C314451  11.361   2.332   5.159 -0.0813  0.1064 -0.0953
  904loPI   PO414452  11.406   2.411   5.789  0.2575 -0.1839 -0.0261
  904loPI   GL114453  11.257   2.678   6.162  0.2523 -0.2277  0.0795
  904loPI   GL214454  11.441   2.359   6.283 -0.0400  0.0058 -0.0326
  904loPI   C1A14455  11.277   2.877   6.603  0.0045  0.0819  0.0147
  904loPI   C2A14456  11.271   2.805   7.056  0.1048 -0.3072 -0.1065
  904loPI   C3A14457  11.340   2.830   7.529 -0.0173 -0.1823  0.1449
  904loPI   C4A14458  11.380   2.861   7.983  0.2067  0.0365  0.2571
  904loPI   C5A14459  11.153   2.759   8.354  0.2294  0.0104 -0.0878
  904loPI   C6A14460  10.862   3.021   8.650  0.0536  0.3086  0.2217
  904loPI   C1B14461  11.425   2.362   6.685  0.0656  0.0465 -0.1787
  904loPI   C2B14462  11.381   2.293   7.110 -0.1796 -0.1331 -0.2127
  904loPI   C3B14463  11.431   2.349   7.534 -0.1896 -0.2588 -0.0065
  904loPI   C4B14464  11.369   2.373   7.960 -0.3065 -0.2166 -0.1935
  905loPI    C114465  16.158   0.471   5.434 -0.2165 -0.3006  0.0985
  905loPI    C214466  16.324   0.228   5.163  0.0406  0.0556 -0.0716
  905loPI    C314467  16.079   0.522   5.045  0.0704  0.1469  0.0909
  905loPI   PO414468  16.134   0.340   5.629 -0.3078  0.1029  0.1951
  905loPI   GL114469  16.303   0.418   6.131  0.1636  0.0326 -0.1298
  905loPI   GL214470  16.178   0.114   6.077 -0.1297 -0.0841  0.0567
  905loPI   C1A14471  16.221   0.591   6.503  0.1720 -0.0414 -0.1366
  905loPI   C2A14472  16.245   0.520   6.899 -0.0437  0.1377  0.2127
  905loPI   C3A14473  16.211   0.585   7.294 -0.0119 -0.0440 -0.2368
  905loPI   C4A14474  16.258   0.448   7.764 -0.2495  0.0954 -0.2796
  905loPI   C5A14475  16.394   0.489   8.224 -0.0076 -0.0389  0.1309
  905loPI   C6A14476  16.259   0.364   8.645 -0.0562 -0.0059 -0.1671
  905loPI   C1B14477  16.257   0.128   6.529 -0.1111 -0.0113  0.3136
  905loPI   C2B14478  16.274   0.003   6.929 -0.3199 -0.4016  0.1939
  905loPI   C3B14479  16.361   0.043   7.419  0.1516  0.3708  0.0567
  905loPI   C4B14480  16.367  -0.091   7.801  0.3326  0.0648 -0.3229
  906loPI    C114481  14.561   4.968   5.280 -0.0910 -0.3031  0.0072
  906loPI    C214482  14.259   4.932   5.021 -0.0429 -0.0107 -0.0926
  906loPI    C314483  14.486   5.262   5.019  0.1105 -0.1123  0.1600
  906loPI   PO414484  14.413   4.896   5.582  0.0693  0.1486  0.0878
  906loPI   GL114485  14.422   4.887   5.933  0.3611 -0.0816 -0.1402
  906loPI   GL214486  14.336   4.684   6.125  0.1777 -0.1543 -0.0579
  906loPI   C1A14487  14.668   4.887   6.389  0.0330 -0.2208  0.0607
  906loPI   C2A14488  14.652   4.894   6.764 -0.0272 -0.2048 -0.3205
  906loPI   C3A14489  14.635   4.978   7.214  0.2346  0.1696  0.0115
  906loPI   C4A14490  14.668   4.964   7.584  0.1337  0.0549 -0.0352
  906loPI   C5A14491  14.820   5.062   7.999 -0.0067  0.2277 -0.2584
  906loPI   C6A14492  15.126   4.793   8.156 -0.1566 -0.0339  0.0832
  906loPI   C1B14493  14.238   4.705   6.475 -0.2851 -0.0877  0.2546
  906loPI   C2B14494  14.206   4.728   6.876 -0.1371  0.0683 -0.2978
  906loPI   C3B14495  14.253   4.631   7.263  0.1285  0.1206  0.0038
  906loPI   C4B14496  14.266   4.682   7.732  0.1774  0.0748  0.0708
  907loPI    C114497   9.920   1.182   5.192  0.0741 -0.1495  0.0060
  907loPI    C214498  10.026   1.322   4.832 -0.0919  0.0199  0.0217
  907loPI    C314499   9.732   1.052   4.864  0.0225 -0.1062  0.0183
  907loPI   PO414500  10.142   1.180   5.324 -0.1646 -0.1835  0.2831
  907loPI   GL114501  10.146   1.219   5.800  0.3983 -0.0454 -0.2895
  907loPI   GL214502  10.114   1.059   6.039  0.0079 -0.1286  0.0559
  907loPI   C1A14503  10.158   1.460   6.278 -0.2135  0.1890 -0.0584
  907loPI   C2A14504  10.221   1.477   6.754 -0.1326  0.1581 -0.2403
  907loPI   C3A14505  10.273   1.394   7.145  0.1771  0.1837  0.3028
  907loPI   C4A14506  10.194   1.464   7.554 -0.1661  0.1153 -0.0633
  907loPI   C5A14507  10.185   1.429   7.966  0.0326  0.2851  0.1804
  907loPI   C6A14508  10.381   1.251   8.255 -0.0080 -0.2176  0.0700
  907loPI   C1B14509  10.185   1.004   6.558  0.0545  0.1497 -0.0834
  907loPI   C2B14510  10.227   0.851   6.959 -0.3353 -0.1055 -0.1145
  907loPI   C3B14511  10.317   0.886   7.441 -0.3714  0.1361  0.1535
  907loPI   C4B14512  10.243   0.895   7.900 -0.1296  0.3574  0.1425
  908loPI    C114513   8.427   4.875   5.547  0.2478  0.0014  0.2968
  908loPI    C214514   8.579   5.092   5.247  0.0031  0.0775  0.2253
  908loPI    C314515   8.550   4.694   5.212 -0.2787  0.1123  0.0333
  908loPI   PO414516   8.278   4.953   5.625  0.2085 -0.2441 -0.0535
  908loPI   GL114517   8.208   5.121   5.922  0.0948  0.0264 -0.1138
  908loPI   GL214518   8.301   5.430   6.022  0.2205 -0.1190  0.1423
  908loPI   C1A14519   8.285   4.979   6.355 -0.0750 -0.2697  0.2376
  908loPI   C2A14520   8.319   4.936   6.728  0.4064  0.2018  0.1383
  908loPI   C3A14521   8.285   4.940   7.133  0.1567 -0.0393  0.2011
  908loPI   C4A14522   8.192   4.946   7.535 -0.2479 -0.0033 -0.0016
  908loPI   C5A14523   8.221   5.020   8.050  0.0041 -0.0124  0.1154
  908loPI   C6A14524   8.150   5.347   8.397  0.1197  0.0481 -0.0960
  908loPI   C1B14525   8.218   5.495   6.436 -0.0373  0.1694  0.3567
  908loPI   C2B14526   8.181   5.583   6.849 -0.1349 -0.3202 -0.1667
  908loPI   C3B14527   8.180   5.604   7.336 -0.0709  0.1275 -0.2940
  908loPI   C4B14528   8.151   5.472   7.736 -0.0234  0.1923 -0.1097
  909loPI    C114529   5.455  12.779   5.373  0.1057 -0.1327  0.1327
  909loPI    C214530   5.086  12.688   5.247  0.0468  0.4168 -0.1171
  909loPI    C314531   5.390  12.441   5.168 -0.2191  0.0906 -0.1437
  909loPI   PO414532   5.455  12.831   5.602 -0.0037 -0.0421 -0.0200
  909loPI   GL114533   5.542  12.719   6.006  0.1868 -0.1232 -0.0142
  909loPI   GL214534   5.296  12.761   6.197 -0.0968  0.2009  0.1019
  909loPI   C1A14535   5.755  12.716   6.457  0.1014 -0.1310 -0.0977
  909loPI   C2A14536   5.791  12.688   6.875 -0.0718  0.0060  0.2060
  909loPI   C3A14537   5.738  12.706   7.267  0.2068  0.1216  0.0378
  909loPI   C4A14538   5.656  12.701   7.654 -0.3010  0.4975  0.1886
  909loPI   C5A14539   5.634  12.762   8.153  0.0950 -0.0252 -0.2977
  909loPI   C6A14540   5.661  12.559   8.558  0.1143  0.0166  0.2103
  909loPI   C1B14541   5.228  12.932   6.621  0.0980  0.1656 -0.1923
  909loPI   C2B14542   5.288  12.823   7.029  0.0133 -0.2175 -0.5213
  909loPI   C3B14543   5.271  12.968   7.475 -0.0792  0.1665  0.0622
  909loPI   C4B14544   5.242  12.870   7.873  0.1355  0.1016 -0.3282
  910loPI    C114545   7.441   0.108   6.045  0.1117  0.0580  0.0910
  910loPI    C214546   7.515   0.205   5.665 -0.2749  0.1383  0.0322
  910loPI    C314547   7.307  -0.126   5.750  0.1968 -0.1254  0.1957
  910loPI   PO414548   7.412   0.336   6.164  0.3667 -0.0758 -0.0288
  910loPI   GL114549   7.593   0.492   6.562  0.1552 -0.2380  0.1999
  910loPI   GL214550   7.691   0.079   6.510 -0.2543 -0.1240  0.0668
  910loPI   C1A14551   7.619   0.455   6.935  0.2485 -0.1543 -0.1859
  910loPI   C2A14552   7.487   0.555   7.349 -0.2619  0.0067 -0.1392
  910loPI   C3A14553   7.612   0.509   7.775  0.0288 -0.3141  0.0606
  910loPI   C4A14554   7.517   0.348   8.072  0.2059  0.0129 -0.3397
  910loPI   C5A14555   7.512   0.187   8.558  0.2081  0.1224  0.1331
  910loPI   C6A14556   7.186   0.160   8.814 -0.0586 -0.0434 -0.3075
  910loPI   C1B14557   7.658  -0.027   6.880 -0.2427 -0.0148  0.0545
  910loPI   C2B14558   7.709   0.006   7.205  0.0449  0.2807 -0.1668
  910loPI   C3B14559   7.723   0.070   7.649 -0.1124 -0.0381 -0.0823
  910loPI   C4B14560   7.782  -0.060   8.051  0.0796 -0.1667 -0.2425
  911loPI    C114561  15.782  12.932   5.287  0.0132  0.1787 -0.1819
  911loPI    C214562  15.390  12.936   5.202 -0.0646 -0.3179  0.1174
  911loPI    C314563  15.637  12.698   4.996  0.0994  0.0550 -0.1261
  911loPI   PO414564  15.819  12.897   5.522  0.3189  0.2370  0.4931
  911loPI   GL114565  15.835  12.833   5.995 -0.1220 -0.1773 -0.0571
  911loPI   GL214566  15.715  13.043   6.134 -0.1655 -0.2114 -0.0143
  911loPI   C1A14567  15.902  12.688   6.402  0.1030  0.3675  0.0882
  911loPI   C2A14568  15.810  12.762   6.822 -0.1294  0.0732 -0.0262
  911loPI   C3A14569  15.788  12.837   7.283  0.0703  0.0048  0.1718
  911loPI   C4A14570  15.801  12.654   7.704  0.0382 -0.2904  0.1834
  911loPI   C5A14571  15.773  12.724   8.099 -0.0610  0.0072  0.1504
  911loPI   C6A14572  15.828  12.725   8.603  0.3072 -0.2949 -0.1705
  911loPI   C1B14573  15.775  13.195   6.505  0.1318  0.1103  0.0008
  911loPI   C2B14574  15.764  13.284   6.964 -0.1638 -0.0181 -0.1246
  911loPI   C3B14575  15.746  13.327   7.405 -0.2012  0.1948 -0.0408
  911loPI   C4B14576  15.702  13.189   7.802 -0.0131 -0.4073 -0.0755
  912loPI    C114577  16.680   0.162   5.533  0.2091 -0.0994 -0.0317
  912loPI    C214578  16.958   0.448   5.506  0.1988 -0.0880 -0.0148
  912loPI    C314579  17.012   0.099   5.319  0.1569 -0.0313 -0.1336
  912loPI   PO414580  16.631   0.092   5.867 -0.2321  0.2524  0.1470
  912loPI   GL114581  16.742  -0.081   6.225  0.2554  0.1019 -0.0912
  912loPI   GL214582  17.021  -0.205   6.175 -0.0996 -0.0843 -0.0648
  912loPI   C1A14583  16.742  -0.030   6.692  0.0791 -0.3413 -0.0606
  912loPI   C2A14584  16.739  -0.094   7.134  0.1071  0.0484  0.4197
  912loPI   C3A14585  16.786  -0.208   7.590 -0.0309  0.0444 -0.0728
  912loPI   C4A14586  16.787  -0.243   8.044  0.1852 -0.2273  0.0629
  912loPI   C5A14587  17.049  -0.218   8.347 -0.0555  0.1123  0.0443
  912loPI   C6A14588  17.356  -0.246   8.741 -0.0070 -0.0600 -0.0184
  912loPI   C1B14589  17.236  -0.197   6.590  0.0632  0.2346  0.1592
  912loPI   C2B14590  17.299  -0.322   7.047  0.3252 -0.0586 -0.0909
  912loPI   C3B14591  17.283  -0.296   7.358 -0.0681 -0.2763 -0.4216
  912loPI   C4B14592  17.251  -0.312   7.750  0.0889  0.1698  0.0506
  913loPI    C114593  11.472   9.635   5.622  0.2281  0.0459  0.0208
  913loPI    C214594  11.368   9.307   5.418 -0.0346  0.0800  0.0962
  913loPI    C314595  11.248   9.668   5.293  0.3374  0.1598 -0.0432
  913loPI   PO414596  11.392   9.607   5.915 -0.3605  0.0306 -0.0620
  913loPI   GL114597  11.424   9.791   6.167  0.1907 -0.1393  0.3049
  913loPI   GL214598  11.636   9.934   6.293 -0.0957 -0.0564 -0.1865
  913loPI   C1A14599  11.316   9.689   6.649 -0.1195  0.1287  0.3121
  913loPI   C2A14600  11.236   9.607   7.086  0.1606 -0.3569 -0.1199
  913loPI   C3A14601  11.231   9.582   7.471  0.3719  0.1945 -0.0095
  913loPI   C4A14602  11.195   9.552   7.858 -0.0838  0.0706 -0.1754
  913loPI   C5A14603  11.217   9.386   8.310 -0.0093 -0.1021 -0.3406
  913loPI   C6A14604  11.547   9.356   8.594 -0.2141  0.1129  0.1837
  913loPI   C1B14605  11.721  10.024   6.705 -0.1375 -0.1172  0.1467
  913loPI   C2B14606  11.626   9.927   7.163 -0.1549  0.2386  0.1383
  913loPI   C3B14607  11.573   9.937   7.613 -0.2294  0.0920 -0.0307
  913loPI   C4B14608  11.579   9.844   8.043 -0.0355  0.0100  0.1824
  914loPI    C114609   2.690  11.494   5.659  0.1934 -0.2755  0.0349
  914loPI    C214610   2.482  11.367   5.342 -0.1350 -0.0484  0.1541
  914loPI    C314611   2.727  11.681   5.307 -0.1774 -0.0181  0.1264
  914loPI   PO414612   2.577  11.318   5.859  0.0680 -0.3319 -0.3080
  914loPI   GL114613   2.348  11.207   6.109  0.1264 -0.2826 -0.2230
  914loPI   GL214614   2.082  11.085   6.133 -0.0348 -0.0440 -0.1292
  914loPI   C1A14615   2.389  11.186   6.541 -0.2359 -0.0194  0.1205
  914loPI   C2A14616   2.341  11.105   6.990 -0.1250  0.0423 -0.4433
  914loPI   C3A14617   2.326  11.081   7.439  0.0012  0.1355  0.3243
  914loPI   C4A14618   2.227  11.143   7.822  0.1941 -0.0024  0.2506
  914loPI   C5A14619   1.886  10.949   8.177  0.0186 -0.1014 -0.0211
  914loPI   C6A14620   1.703  10.527   8.291  0.0081  0.1149 -0.5330
  914loPI   C1B14621   1.929  10.830   6.504  0.3167  0.0511  0.0866
  914loPI   C2B14622   1.954  10.676   6.964  0.1389 -0.2223  0.2452
  914loPI   C3B14623   1.826  10.750   7.379  0.1884  0.1796  0.1868
  914loPI   C4B14624   1.773  10.632   7.796 -0.0149  0.0696 -0.1812
  915loPI    C114625   1.994   0.596   5.551  0.0964  0.2074  0.1308
  915loPI    C214626   1.605   0.631   5.464  0.0693 -0.2564  0.0391
  915loPI    C314627   1.820   0.333   5.304  0.4638 -0.0087  0.0937
  915loPI   PO414628   2.012   0.589   5.818 -0.2399 -0.0377 -0.0111
  915loPI   GL114629   1.889   0.859   6.139  0.0171  0.0487  0.1150
  915loPI   GL214630   1.723   1.101   6.114  0.2519 -0.1963  0.0075
  915loPI   C1A14631   1.733   0.849   6.566  0.0273 -0.1535  0.2962
  915loPI   C2A14632   1.650   0.777   6.975 -0.1039  0.2362 -0.0648
  915loPI   C3A14633   1.622   0.878   7.360 -0.0818  0.0129 -0.0485
  915loPI   C4A14634   1.601   0.905   7.809 -0.1827 -0.0013 -0.0899
  915loPI   C5A14635   1.430   0.862   8.296 -0.2554 -0.2001 -0.0869
  915loPI   C6A14636   1.362   0.842   8.692 -0.0897 -0.0783 -0.0355
  915loPI   C1B14637   1.602   1.330   6.481  0.0123  0.3799 -0.2843
  915loPI   C2B14638   1.590   1.384   6.950  0.0118 -0.1102 -0.0235
  915loPI   C3B14639   1.524   1.457   7.377  0.1428 -0.0607  0.0880
  915loPI   C4B14640   1.432   1.358   7.870 -0.0048 -0.1003  0.1690
  916loPI    C114641  13.331  12.807   5.512  0.0516  0.0323  0.0424
  916loPI    C214642  13.538  13.148   5.549  0.0275  0.0722 -0.1748
  916loPI    C314643  13.405  13.033   5.190 -0.1153 -0.0788 -0.0751
  916loPI   PO414644  13.338  12.704   5.852  0.0479  0.0191 -0.0773
  916loPI   GL114645  13.176  12.897   6.243  0.2598  0.2045  0.3037
  916loPI   GL214646  13.456  12.633   6.380 -0.4231  0.0854  0.0993
  916loPI   C1A14647  13.021  12.808   6.688  0.2288 -0.1075  0.1869
  916loPI   C2A14648  13.019  12.853   7.172  0.0351 -0.5148  0.2626
  916loPI   C3A14649  12.944  12.699   7.674  0.2851 -0.1362  0.0137
  916loPI   C4A14650  12.963  12.749   8.002  0.2762 -0.4334 -0.1171
  916loPI   C5A14651  12.967  12.799   8.421 -0.3158 -0.1679 -0.0856
  916loPI   C6A14652  13.297  12.571   8.489  0.0247 -0.2438  0.0385
  916loPI   C1B14653  13.571  12.662   6.761 -0.1644 -0.0016  0.4250
  916loPI   C2B14654  13.579  12.663   7.113  0.1806 -0.3952  0.1461
  916loPI   C3B14655  13.493  12.588   7.565 -0.0682 -0.1103  0.2712
  916loPI   C4B14656  13.399  12.630   8.001 -0.0110 -0.0041 -0.7449
  917loPI    C114657   6.089   2.959   5.721  0.0685  0.0769 -0.0308
  917loPI    C214658   6.318   2.635   5.771  0.0990  0.0776 -0.1619
  917loPI    C314659   6.195   2.738   5.405 -0.1008  0.0846 -0.0940
  917loPI   PO414660   6.127   3.006   6.008 -0.4290 -0.0924 -0.0660
  917loPI   GL114661   5.871   3.121   6.320  0.0023 -0.1692  0.1000
  917loPI   GL214662   5.933   3.461   6.241 -0.1182  0.1724 -0.1934
  917loPI   C1A14663   5.858   3.052   6.731  0.1908 -0.1458  0.1306
  917loPI   C2A14664   5.734   3.018   7.175  0.0603 -0.1832 -0.4139
  917loPI   C3A14665   5.809   3.130   7.521  0.4416 -0.1439  0.0435
  917loPI   C4A14666   5.755   3.190   7.975  0.1128 -0.1209  0.2557
  917loPI   C5A14667   5.966   3.073   8.353 -0.1531 -0.3944 -0.0617
  917loPI   C6A14668   5.973   2.810   8.684 -0.0288  0.0523 -0.0983
  917loPI   C1B14669   5.798   3.531   6.661 -0.1453  0.3835 -0.1495
  917loPI   C2B14670   5.777   3.540   7.130  0.4102 -0.1415 -0.2071
  917loPI   C3B14671   5.736   3.644   7.595 -0.2684 -0.0802 -0.0133
  917loPI   C4B14672   5.788   3.683   8.028 -0.2612 -0.0239 -0.0225
  918loPI    C114673   4.755   1.775   5.562 -0.2192 -0.0258 -0.1779
  918loPI    C214674   4.789   2.154   5.439 -0.3406 -0.0859 -0.4029
  918loPI    C314675   4.908   1.855   5.201  0.0061 -0.1805 -0.1189
  918loPI   PO414676   4.859   1.793   5.823 -0.0431 -0.1711 -0.0572
  918loPI   GL114677   4.862   1.867   6.163  0.2108  0.2295 -0.0495
  918loPI   GL214678   4.562   2.008   6.321 -0.2220 -0.2222  0.0370
  918loPI   C1A14679   5.067   1.824   6.617  0.0072  0.1488  0.0618
  918loPI   C2A14680   5.094   1.899   7.071 -0.1445  0.1580  0.3433
  918loPI   C3A14681   5.165   1.943   7.400  0.0217 -0.0837 -0.1741
  918loPI   C4A14682   5.217   1.971   7.873  0.2945  0.2643  0.0619
  918loPI   C5A14683   5.219   2.151   8.236  0.0130  0.2604 -0.0487
  918loPI   C6A14684   5.062   2.307   8.748  0.2278  0.1153  0.0437
  918loPI   C1B14685   4.678   2.081   6.687  0.2076  0.0495  0.1811
  918loPI   C2B14686   4.594   2.142   7.132  0.0563  0.0570 -0.2456
  918loPI   C3B14687   4.674   2.123   7.559  0.0838  0.1319  0.1838
  918loPI   C4B14688   4.708   2.083   7.867 -0.1221 -0.0073 -0.1069
  919loPI    C114689   6.021  17.491   5.780  0.0125 -0.3275 -0.1512
  919loPI    C214690   6.339  17.510   5.538  0.0570 -0.1812 -0.0830
  919loPI    C314691   5.973  17.584   5.394  0.0871 -0.0616 -0.0985
  919loPI   PO414692   6.102  17.517   6.022 -0.0370  0.1715  0.3233
  919loPI   GL114693   6.208  17.731   6.360 -0.0905 -0.0666 -0.0607
  919loPI   GL214694   5.910  17.883   6.543 -0.1627  0.0144  0.0376
  919loPI   C1A14695   6.322  17.854   6.841  0.0300  0.2072  0.1096
  919loPI   C2A14696   6.243  17.758   7.260  0.2237 -0.0737 -0.0049
  919loPI   C3A14697   6.192  17.694   7.589 -0.0417 -0.0483 -0.2554
  919loPI   C4A14698   6.140  17.708   7.965  0.2221 -0.0315 -0.1195
  919loPI   C5A14699   6.383  17.961   8.274  0.0866 -0.0164 -0.1478
  919loPI   C6A14700   6.605  17.921   8.641 -0.2251 -0.0210 -0.2052
  919loPI   C1B14701   5.842  18.010   6.979  0.1151  0.1048 -0.0354
  919loPI   C2B14702   5.776  17.866   7.293  0.2288 -0.4497 -0.2165
  919loPI   C3B14703   5.722  17.854   7.691  0.0235 -0.1198  0.1376
  919loPI   C4B14704   5.663  17.835   8.068  0.0764  0.0030  0.1188
  920loPI    C114705   1.779  12.882   5.566  0.0316  0.2977 -0.0099
  920loPI    C214706   1.959  12.615   5.329 -0.0593  0.0898  0.1516
  920loPI    C314707   1.807  12.951   5.173  0.2330  0.1441 -0.0243
  920loPI   PO414708   1.574  12.789   5.716 -0.2102 -0.0355  0.0202
  920loPI   GL114709   1.512  12.959   6.163 -0.2304 -0.0756  0.2299
  920loPI   GL214710   1.663  12.706   6.266  0.0862 -0.0569 -0.0553
  920loPI   C1A14711   1.179  12.971   6.502  0.1876 -0.0674  0.1715
  920loPI   C2A14712   1.175  12.996   6.862  0.0778 -0.0021  0.0552
  920loPI   C3A14713   1.170  12.966   7.264  0.0883 -0.1389 -0.0431
  920loPI   C4A14714   1.110  13.049   7.750  0.1610 -0.2585 -0.0584
  920loPI   C5A14715   1.106  13.108   8.204 -0.2549  0.0346  0.2159
  920loPI   C6A14716   1.041  13.382   8.470 -0.1367 -0.1811 -0.1826
  920loPI   C1B14717   1.580  12.775   6.728  0.2436  0.1813  0.2757
  920loPI   C2B14718   1.669  12.843   7.214  0.0945  0.1132 -0.0106
  920loPI   C3B14719   1.656  12.837   7.676  0.1997 -0.0401 -0.0661
  920loPI   C4B14720   1.526  12.845   8.120 -0.0782 -0.0339 -0.2093
  921loPI    C114721   6.878   6.287   5.451 -0.1033 -0.1525  0.0355
  921loPI    C214722   6.552   6.136   5.278 -0.1242 -0.0633 -0.0037
  921loPI    C314723   6.853   6.272   5.053  0.0046 -0.2821  0.0328
  921loPI   PO414724   6.845   6.170   5.666  0.0136 -0.1256 -0.3227
  921loPI   GL114725   6.753   6.247   6.090 -0.2106 -0.0581 -0.0954
  921loPI   GL214726   6.676   6.551   6.232  0.0109  0.2053 -0.1788
  921loPI   C1A14727   6.763   6.123   6.492 -0.0012 -0.0961  0.2285
  921loPI   C2A14728   6.807   6.099   6.845 -0.0686 -0.2407 -0.3019
  921loPI   C3A14729   6.747   6.093   7.273  0.1630 -0.0574  0.1117
  921loPI   C4A14730   6.645   6.127   7.827  0.3703  0.1049 -0.0586
  921loPI   C5A14731   6.829   6.279   8.232  0.3964  0.1502 -0.0194
  921loPI   C6A14732   6.818   6.608   8.563  0.0951  0.2921 -0.0751
  921loPI   C1B14733   6.689   6.644   6.723 -0.0245 -0.1014 -0.0663
  921loPI   C2B14734   6.648   6.650   7.177 -0.2095  0.2071 -0.2836
  921loPI   C3B14735   6.578   6.604   7.626  0.0354 -0.3615 -0.3317
  921loPI   C4B14736   6.610   6.714   8.034  0.1269  0.1702 -0.0847
  922loPI    C114737   7.880  14.232   5.466 -0.4326  0.2161 -0.3128
  922loPI    C214738   8.177  14.285   5.204 -0.1205  0.0312 -0.0063
  922loPI    C314739   7.801  14.240   5.074 -0.0086  0.1921 -0.4034
  922loPI   PO414740   7.872  14.082   5.680  0.3766  0.2247 -0.5023
  922loPI   GL114741   7.903  14.132   6.079  0.1964  0.3507  0.1282
  922loPI   GL214742   7.602  13.922   6.313 -0.3864 -0.2799  0.0308
  922loPI   C1A14743   8.073  14.145   6.461 -0.1161  0.2481  0.3321
  922loPI   C2A14744   8.199  14.043   6.883 -0.0179 -0.0953  0.1500
  922loPI   C3A14745   8.229  14.124   7.301  0.0964 -0.3003 -0.0597
  922loPI   C4A14746   8.166  14.121   7.731  0.3480 -0.1729 -0.2022
  922loPI   C5A14747   8.110  14.241   8.097  0.0623  0.2298  0.1178
  922loPI   C6A14748   8.041  14.378   8.483  0.0587  0.0565  0.0837
  922loPI   C1B14749   7.481  13.947   6.799  0.0136 -0.0920 -0.0109
  922loPI   C2B14750   7.377  13.984   7.242 -0.0043 -0.2746 -0.1224
  922loPI   C3B14751   7.269  14.060   7.623  0.0087  0.0399  0.0584
  922loPI   C4B14752   7.318  13.982   8.141 -0.0346 -0.1982 -0.0697
  923loPI    C114753   8.096   7.466   5.305 -0.0452 -0.1938 -0.1428
  923loPI    C214754   8.071   7.835   5.152  0.3743 -0.0287  0.1672
  923loPI    C314755   8.258   7.546   4.948 -0.1419 -0.1368 -0.1743
  923loPI   PO414756   7.916   7.591   5.558  0.0150 -0.0517 -0.1838
  923loPI   GL114757   8.175   7.516   5.911 -0.1572  0.2093  0.2811
  923loPI   GL214758   8.408   7.334   6.097  0.2392  0.4118 -0.2664
  923loPI   C1A14759   7.968   7.557   6.239 -0.0792 -0.1312  0.0803
  923loPI   C2A14760   7.935   7.532   6.640  0.0975  0.0436  0.0384
  923loPI   C3A14761   7.852   7.506   7.098  0.1542  0.4797 -0.2118
  923loPI   C4A14762   7.846   7.500   7.522  0.1501  0.1471 -0.1308
  923loPI   C5A14763   7.765   7.476   7.952  0.1332 -0.0143  0.1150
  923loPI   C6A14764   7.730   7.551   8.401 -0.2939 -0.0198  0.0889
  923loPI   C1B14765   8.422   7.336   6.538  0.1636 -0.0670  0.0938
  923loPI   C2B14766   8.359   7.381   6.965  0.0895 -0.5296 -0.1907
  923loPI   C3B14767   8.369   7.330   7.434 -0.1677 -0.2935  0.1257
  923loPI   C4B14768   8.305   7.327   7.809  0.0887 -0.2843 -0.0772
  924loPI    C114769  10.032   4.624   5.307  0.3732 -0.2778  0.0089
  924loPI    C214770   9.982   4.871   4.995 -0.0278 -0.2629  0.0808
  924loPI    C314771  10.062   4.484   4.933 -0.3157 -0.3047 -0.0487
  924loPI   PO414772  10.045   4.782   5.512 -0.0094 -0.0705  0.0647
  924loPI   GL114773   9.748   4.774   5.865  0.1370  0.0169 -0.1102
  924loPI   GL214774   9.652   4.498   6.050  0.0120 -0.2210  0.0871
  924loPI   C1A14775   9.717   4.910   6.337  0.1628 -0.0238  0.4887
  924loPI   C2A14776   9.694   4.896   6.746  0.1509  0.1820 -0.0237
  924loPI   C3A14777   9.629   4.938   7.235 -0.0100  0.1686 -0.0129
  924loPI   C4A14778   9.553   4.851   7.640  0.3040  0.0754 -0.3791
  924loPI   C5A14779   9.656   4.973   8.065 -0.3298  0.0752  0.0010
  924loPI   C6A14780   9.838   5.285   8.429  0.1305 -0.0352  0.1641
  924loPI   C1B14781   9.715   4.399   6.500  0.2747 -0.1740 -0.3172
  924loPI   C2B14782   9.759   4.451   6.988 -0.0270  0.0661  0.2260
  924loPI   C3B14783   9.693   4.392   7.451  0.4121  0.0985  0.0006
  924loPI   C4B14784   9.528   4.316   7.780 -0.0073  0.1182  0.0678
  925loPI    C114785   0.785  12.706   5.371  0.1981 -0.3229 -0.2192
  925loPI    C214786   0.506  12.762   5.089 -0.1064  0.1276  0.1560
  925loPI    C314787   0.882  12.880   5.024 -0.0843 -0.1221 -0.2014
  925loPI   PO414788   0.700  12.748   5.561  0.2470  0.0615 -0.0817
  925loPI   GL114789   0.785  12.694   5.976 -0.1173  0.1397 -0.1989
  925loPI   GL214790   1.161  12.609   6.222  0.1256  0.1067  0.3074
  925loPI   C1A14791   0.756  12.640   6.462  0.1613 -0.1254  0.0033
  925loPI   C2A14792   0.774  12.626   6.828  0.1873  0.1620 -0.2046
  925loPI   C3A14793   0.750  12.701   7.247 -0.3098  0.1105 -0.0193
  925loPI   C4A14794   0.749  12.665   7.682 -0.0915  0.2668  0.1473
  925loPI   C5A14795   0.737  12.645   8.031  0.3176 -0.0591 -0.1580
  925loPI   C6A14796   1.083  12.561   8.406 -0.1022  0.0676 -0.2791
  925loPI   C1B14797   1.183  12.397   6.621 -0.0837  0.1924 -0.1608
  925loPI   C2B14798   1.255  12.525   7.001 -0.1715  0.4647  0.3515
  925loPI   C3B14799   1.228  12.508   7.480  0.1617 -0.2195 -0.1268
  925loPI   C4B14800   1.160  12.513   7.880 -0.4528 -0.1160 -0.3821
  926loPI    C114801  14.639   8.005   5.460  0.1207  0.0230  0.0443
  926loPI    C214802  14.755   8.238   5.157 -0.0822  0.1158  0.0363
  926loPI    C314803  15.020   8.001   5.339  0.0925  0.2375 -0.0563
  926loPI   PO414804  14.473   8.130   5.598  0.0455 -0.2361  0.1447
  926loPI   GL114805  14.579   8.187   6.090 -0.0157  0.0823  0.0778
  926loPI   GL214806  14.237   8.097   6.208 -0.0706 -0.2387 -0.0525
  926loPI   C1A14807  14.632   8.404   6.548  0.0123 -0.0157  0.1644
  926loPI   C2A14808  14.571   8.339   6.920  0.1413 -0.0330 -0.1579
  926loPI   C3A14809  14.505   8.310   7.338  0.0879  0.1883  0.1771
  926loPI   C4A14810  14.534   8.357   7.769  0.0179 -0.0872 -0.0020
  926loPI   C5A14811  14.344   8.373   8.197 -0.2160 -0.0882  0.0102
  926loPI   C6A14812  14.085   8.215   8.538  0.2024 -0.0350  0.8192
  926loPI   C1B14813  14.215   8.144   6.621  0.0136  0.0276 -0.0879
  926loPI   C2B14814  14.248   7.956   7.118 -0.1418  0.1927 -0.1899
  926loPI   C3B14815  14.162   8.035   7.528 -0.0604  0.1158  0.0532
  926loPI   C4B14816  14.089   8.061   7.897  0.2054  0.0240 -0.0728
  927loPI    C114817  17.514   8.493   5.619  0.0743 -0.2118  0.0741
  927loPI    C214818  17.165   8.381   5.459  0.0527 -0.1359  0.0681
  927loPI    C314819  17.266   8.768   5.468  0.1541 -0.1614  0.0343
  927loPI   PO414820  17.548   8.394   5.850  0.1650 -0.2898 -0.1995
  927loPI   GL114821  17.601   8.430   6.268 -0.2414  0.1843 -0.3621
  927loPI   GL214822  17.367   8.380   6.418  0.2086  0.2683  0.3689
  927loPI   C1A14823  17.822   8.118   6.570 -0.0963  0.0160 -0.1312
  927loPI   C2A14824  17.834   8.088   7.010 -0.2121  0.0550 -0.1042
  927loPI   C3A14825  17.820   8.166   7.402  0.2655  0.2718  0.0314
  927loPI   C4A14826  17.831   8.146   7.810 -0.0716 -0.0169 -0.0180
  927loPI   C5A14827  17.659   8.164   8.290 -0.0372 -0.1413  0.1920
  927loPI   C6A14828  17.521   8.410   8.655  0.2481 -0.4055  0.1000
  927loPI   C1B14829  17.368   8.367   6.801  0.3596  0.2551 -0.2032
  927loPI   C2B14830  17.383   8.330   7.209 -0.3223  0.0805  0.3666
  927loPI   C3B14831  17.220   8.318   7.675  0.0164  0.1133 -0.1829
  927loPI   C4B14832  17.216   8.413   8.085  0.0814 -0.1936  0.3345
  928loPI    C114833   2.282   3.781   5.679 -0.2649 -0.0665 -0.1858
  928loPI    C214834   2.253   4.175   5.741 -0.1416 -0.0970  0.0747
  928loPI    C314835   2.489   4.035   5.450 -0.0309  0.0148  0.1096
  928loPI   PO414836   2.306   3.717   6.037  0.3145  0.1951 -0.0239
  928loPI   GL114837   2.554   3.444   6.277  0.3577 -0.3825  0.0108
  928loPI   GL214838   2.605   3.793   6.468  0.2584  0.1971  0.2241
  928loPI   C1A14839   2.591   3.289   6.619 -0.0342  0.0735 -0.0922
  928loPI   C2A14840   2.666   3.215   6.987 -0.2062  0.3433 -0.1485
  928loPI   C3A14841   2.631   3.236   7.404  0.1581 -0.1570 -0.1945
  928loPI   C4A14842   2.588   3.292   7.952  0.1875  0.0064 -0.1201
  928loPI   C5A14843   2.519   3.191   8.394  0.3772  0.0196  0.0476
  928loPI   C6A14844   2.636   3.180   8.876 -0.0333 -0.0756  0.0058
  928loPI   C1B14845   2.584   3.692   6.900  0.2829 -0.2272  0.2205
  928loPI   C2B14846   2.462   3.775   7.423  0.0503  0.3890 -0.0443
  928loPI   C3B14847   2.482   3.823   7.877  0.2627 -0.1537 -0.1444
  928loPI   C4B14848   2.843   3.970   8.217  0.0894 -0.1047  0.0933
  929loPI    C114849  11.570   0.276   5.256  0.3751  0.1357  0.1728
  929loPI    C214850  11.629   0.031   4.946  0.1411 -0.1799  0.3709
  929loPI    C314851  11.460   0.389   4.888 -0.0402 -0.2976  0.1541
  929loPI   PO414852  11.487  -0.028   5.414  0.0969 -0.1455 -0.1301
  929loPI   GL114853  11.409   0.010   5.823  0.1407 -0.1365 -0.0808
  929loPI   GL214854  11.689  -0.147   6.094 -0.1728  0.2376  0.0650
  929loPI   C1A14855  11.256   0.008   6.341 -0.0667 -0.2261 -0.1947
  929loPI   C2A14856  11.289  -0.019   6.891 -0.0097 -0.2178 -0.1926
  929loPI   C3A14857  11.386   0.068   7.308 -0.2231  0.1540 -0.0074
  929loPI   C4A14858  11.394   0.021   7.795  0.1185 -0.0349  0.0798
  929loPI   C5A14859  11.342   0.071   8.139 -0.1861 -0.0976 -0.2083
  929loPI   C6A14860  11.518   0.493   8.358  0.1139  0.1522 -0.1853
  929loPI   C1B14861  11.644  -0.235   6.556 -0.1262  0.2474  0.1668
  929loPI   C2B14862  11.823  -0.138   6.982  0.1257  0.1837 -0.2163
  929loPI   C3B14863  11.821  -0.119   7.373 -0.1065 -0.2146  0.0453
  929loPI   C4B14864  11.888  -0.212   7.818 -0.0807  0.2797  0.0655
  930loPI    C114865   0.288  14.324   5.641  0.0322 -0.2368  0.0851
  930loPI    C214866   0.511  14.460   5.338 -0.0432 -0.0400  0.1168
  930loPI    C314867   0.317  14.112   5.303 -0.0084 -0.0443 -0.0402
  930loPI   PO414868   0.370  14.321   5.834  0.0739 -0.0538 -0.2233
  930loPI   GL114869   0.639  14.340   6.130  0.0687  0.1274 -0.3594
  930loPI   GL214870   0.686  14.129   6.331 -0.0016  0.0908 -0.0037
  930loPI   C1A14871   0.520  14.584   6.464 -0.2136  0.2915 -0.1563
  930loPI   C2A14872   0.450  14.648   6.798  0.0941  0.0345 -0.1959
  930loPI   C3A14873   0.442  14.722   7.260 -0.1040  0.1163  0.1398
  930loPI   C4A14874   0.355  14.747   7.685 -0.1217 -0.0280 -0.0474
  930loPI   C5A14875   0.386  14.761   8.143 -0.2729 -0.0285  0.1449
  930loPI   C6A14876   0.691  14.660   8.549 -0.1945 -0.0610 -0.3274
  930loPI   C1B14877   0.583  14.182   6.760 -0.1069 -0.1976 -0.0534
  930loPI   C2B14878   0.465  14.254   7.207  0.0223  0.0363 -0.1214
  930loPI   C3B14879   0.474  14.228   7.654  0.0612  0.0235 -0.3437
  930loPI   C4B14880   0.446  14.242   8.146 -0.0800  0.0790 -0.1936
  931loPI    C114881   0.331  17.233   5.852 -0.1410 -0.1395  0.1580
  931loPI    C214882   0.222  17.526   5.602 -0.0320 -0.2212  0.0132
  931loPI    C314883   0.354  17.178   5.457  0.2348 -0.1939  0.1843
  931loPI   PO414884   0.085  17.133   5.983 -0.1261  0.0073 -0.0564
  931loPI   GL114885  -0.187  17.274   6.351  0.0001  0.0917  0.1584
  931loPI   GL214886   0.155  17.246   6.523  0.0287  0.1180  0.2587
  931loPI   C1A14887  -0.372  17.030   6.685  0.0552  0.3019 -0.1094
  931loPI   C2A14888  -0.408  16.959   7.151  0.1191 -0.1712 -0.1658
  931loPI   C3A14889  -0.398  16.903   7.539  0.0199 -0.1049 -0.2480
  931loPI   C4A14890  -0.290  16.934   7.907  0.1018 -0.0446  0.1079
  931loPI   C5A14891  -0.434  16.918   8.283 -0.1849  0.0761 -0.0835
  931loPI   C6A14892  -0.654  17.066   8.632 -0.0040  0.1138 -0.1179
  931loPI   C1B14893   0.007  17.291   6.912  0.0145  0.3981  0.0055
  931loPI   C2B14894   0.017  17.308   7.364 -0.1101 -0.1070 -0.1933
  931loPI   C3B14895   0.065  17.317   7.744  0.1605  0.0964  0.0817
  931loPI   C4B14896   0.003  17.267   8.209 -0.0165  0.3505  0.1956
  932loPI    C114897  15.303  16.219   5.588  0.0013  0.0797 -0.1708
  932loPI    C214898  15.326  16.205   5.189 -0.2455 -0.0388 -0.1829
  932loPI    C314899  15.038  16.003   5.380  0.0227 -0.1864  0.0728
  932loPI   PO414900  15.314  16.489   5.669 -0.0866  0.5632 -0.2366
  932loPI   GL114901  15.366  16.569   6.055 -0.1020 -0.2051 -0.3734
  932loPI   GL214902  15.588  16.691   6.309  0.0549  0.0189  0.1574
  932loPI   C1A14903  15.215  16.383   6.494  0.1658  0.0780  0.0622
  932loPI   C2A14904  15.137  16.353   6.979 -0.0395  0.0504 -0.1811
  932loPI   C3A14905  15.107  16.346   7.483 -0.2249  0.1624  0.2149
  932loPI   C4A14906  15.224  16.246   7.916 -0.0601  0.0179  0.0617
  932loPI   C5A14907  15.303  16.413   8.291  0.1358 -0.2575  0.1720
  932loPI   C6A14908  15.169  16.458   8.691  0.1826  0.0091 -0.1049
  932loPI   C1B14909  15.640  16.628   6.733  0.1642 -0.1194 -0.0212
  932loPI   C2B14910  15.643  16.610   7.121 -0.4242  0.1827  0.0598
  932loPI   C3B14911  15.533  16.589   7.436  0.1202  0.0204  0.0769
  932loPI   C4B14912  15.646  16.518   7.809 -0.2353 -0.1416  0.1334
  933loPI    C114913  10.676   1.350   5.360  0.0699  0.0835  0.0938
  933loPI    C214914  10.972   1.408   5.098 -0.2194 -0.0235 -0.2648
  933loPI    C314915  10.601   1.336   4.967 -0.3130 -0.3772  0.1741
  933loPI   PO414916  10.843   1.363   5.598  0.1645 -0.0443  0.0912
  933loPI   GL114917  10.825   1.509   5.927 -0.1309  0.0165 -0.0905
  933loPI   GL214918  10.690   1.160   6.040 -0.2059 -0.0732 -0.0128
  933loPI   C1A14919  10.612   1.714   6.241 -0.1507  0.0016 -0.2249
  933loPI   C2A14920  10.659   1.796   6.712 -0.0327 -0.0555  0.2531
  933loPI   C3A14921  10.641   1.809   7.093  0.0916  0.1473  0.0139
  933loPI   C4A14922  10.621   1.748   7.487  0.1755  0.1035 -0.0329
  933loPI   C5A14923  10.658   1.711   7.991 -0.2110 -0.0467 -0.0560
  933loPI   C6A14924  10.838   1.635   8.362 -0.1471  0.1649  0.3617
  933loPI   C1B14925  10.694   1.262   6.458  0.0292  0.2574 -0.3912
  933loPI   C2B14926  10.728   1.222   6.814  0.0995 -0.0867  0.0044
  933loPI   C3B14927  10.722   1.181   7.271  0.0823  0.2367  0.0015
  933loPI   C4B14928  10.627   1.246   7.716 -0.0349  0.3486 -0.1942
  934loPI    C114929   6.902  13.538   5.638  0.1420 -0.1290 -0.1181
  934loPI    C214930   6.502  13.528   5.660  0.1482 -0.0254  0.0650
  934loPI    C314931   6.685  13.841   5.492  0.1629  0.1087  0.3261
  934loPI   PO414932   7.011  13.575   5.844 -0.0635  0.1315 -0.2692
  934loPI   GL114933   7.157  13.634   6.206 -0.1740  0.3041  0.0039
  934loPI   GL214934   7.061  13.943   6.313  0.1305 -0.0838  0.0778
  934loPI   C1A14935   7.030  13.630   6.732  0.3093  0.0148  0.2878
  934loPI   C2A14936   6.988  13.668   7.152  0.0491 -0.1525 -0.0465
  934loPI   C3A14937   6.907  13.739   7.727 -0.0853  0.3312 -0.1020
  934loPI   C4A14938   6.902  13.569   8.156  0.1201  0.1776 -0.0404
  934loPI   C5A14939   6.889  13.852   8.498  0.0335 -0.1928 -0.2078
  934loPI   C6A14940   6.777  14.094   8.802  0.0975  0.1568  0.0842
  934loPI   C1B14941   6.981  14.123   6.680  0.0964  0.1884 -0.0623
  934loPI   C2B14942   6.896  14.221   7.131 -0.1062  0.1862 -0.2881
  934loPI   C3B14943   6.840  14.207   7.474 -0.1642 -0.0592 -0.0990
  934loPI   C4B14944   6.739  14.188   7.962  0.1370  0.0591 -0.1725
  935loPI    C114945   7.634   1.126   5.876 -0.0775  0.0127 -0.2010
  935loPI    C214946   7.451   1.146   5.521  0.0636  0.0244 -0.2739
  935loPI    C314947   7.837   1.245   5.552  0.0525  0.0202 -0.1175
  935loPI   PO414948   7.510   1.309   6.053  0.1500 -0.2306 -0.2531
  935loPI   GL114949   7.689   1.388   6.446 -0.1893  0.0848 -0.0092
  935loPI   GL214950   7.859   1.588   6.467  0.0082  0.0151  0.1018
  935loPI   C1A14951   7.540   1.470   6.950  0.3827 -0.1980 -0.0047
  935loPI   C2A14952   7.445   1.443   7.410  0.0080  0.0420 -0.0384
  935loPI   C3A14953   7.467   1.448   7.873  0.1999 -0.1901 -0.0435
  935loPI   C4A14954   7.414   1.060   8.043 -0.1940 -0.0480  0.2423
  935loPI   C5A14955   7.386   0.726   8.332 -0.0295 -0.0932  0.1787
  935loPI   C6A14956   7.430   0.627   8.805 -0.0532  0.0287 -0.0254
  935loPI   C1B14957   7.896   1.797   6.821  0.2442 -0.0783  0.1083
  935loPI   C2B14958   7.815   1.783   7.191 -0.1259 -0.1454  0.4326
  935loPI   C3B14959   7.833   1.782   7.678 -0.2595  0.1395  0.1743
  935loPI   C4B14960   7.900   2.004   8.028 -0.2258  0.0848 -0.1117
  936loPI    C114961   2.656  10.687   5.617  0.0738 -0.0827  0.1284
  936loPI    C214962   2.777  11.036   5.463 -0.0702 -0.1561 -0.1586
  936loPI    C314963   2.899  10.693   5.299 -0.0908 -0.2392 -0.0021
  936loPI   PO414964   2.640  10.801   5.899  0.0409  0.0868  0.3616
  936loPI   GL114965   2.626  10.825   6.304 -0.2690  0.1157 -0.0230
  936loPI   GL214966   2.448  10.539   6.425  0.0524 -0.1822  0.0290
  936loPI   C1A14967   2.791  10.912   6.623 -0.2550 -0.1557 -0.4522
  936loPI   C2A14968   2.813  10.936   7.096  0.0509 -0.2068 -0.2087
  936loPI   C3A14969   2.765  10.884   7.579 -0.0474 -0.2146  0.1224
  936loPI   C4A14970   2.620  10.885   7.950  0.0800  0.0735  0.2508
  936loPI   C5A14971   2.399  10.947   8.231 -0.1335  0.4738 -0.1686
  936loPI   C6A14972   2.169  11.283   8.360 -0.2094 -0.0488 -0.0240
  936loPI   C1B14973   2.398  10.664   6.770 -0.0215 -0.1235 -0.2868
  936loPI   C2B14974   2.358  10.604   7.221 -0.0608  0.1208 -0.1426
  936loPI   C3B14975   2.270  10.586   7.662 -0.1530  0.0093 -0.0030
  936loPI   C4B14976   2.176  10.571   8.128 -0.1133 -0.0323  0.1621
  937loPI    C114977  10.712  11.977   5.464  0.2232 -0.0407  0.1410
  937loPI    C214978  10.891  11.848   5.130 -0.0628  0.0689 -0.0588
  937loPI    C314979  10.613  12.136   5.110 -0.0444  0.1145  0.2817
  937loPI   PO414980  10.834  11.945   5.606  0.2747  0.0767 -0.1593
  937loPI   GL114981  10.986  11.755   5.987 -0.0209  0.0857  0.1637
  937loPI   GL214982  10.631  11.795   6.034 -0.2128 -0.1101 -0.3366
  937loPI   C1A14983  11.011  11.627   6.503 -0.0783 -0.0543  0.1798
  937loPI   C2A14984  10.995  11.623   6.940  0.1908  0.0210 -0.0043
  937loPI   C3A14985  10.858  11.607   7.356 -0.0415  0.2641 -0.0233
  937loPI   C4A14986  10.889  11.643   7.793  0.0067  0.3305 -0.0298
  937loPI   C5A14987  10.846  11.900   8.151 -0.1038 -0.2388  0.0562
  937loPI   C6A14988  11.154  12.141   8.322  0.2361  0.1414  0.1138
  937loPI   C1B14989  10.578  11.687   6.506  0.2899 -0.2011  0.1354
  937loPI   C2B14990  10.506  11.835   6.986 -0.1593  0.4493 -0.0580
  937loPI   C3B14991  10.393  11.807   7.409  0.0192 -0.1657 -0.1724
  937loPI   C4B14992  10.366  11.764   7.832  0.1006 -0.1812 -0.0006
  938loPI    C114993   7.637   5.816   5.384  0.2492  0.0141 -0.0382
  938loPI    C214994   7.428   5.645   5.089 -0.0272  0.2818 -0.0015
  938loPI    C314995   7.789   5.800   5.014  0.1548 -0.1619 -0.0705
  938loPI   PO414996   7.565   5.893   5.502  0.2589 -0.0690  0.1090
  938loPI   GL114997   7.702   5.886   5.934 -0.0878  0.1419  0.1357
  938loPI   GL214998   7.781   6.193   6.145  0.0269  0.1610 -0.1016
  938loPI   C1A14999   7.767   5.646   6.233 -0.2831 -0.3702 -0.2218
  938loPI   C2A15000   7.766   5.816   6.604 -0.2670  0.2229  0.1188
  938loPI   C3A15001   7.731   5.721   7.030  0.1683 -0.0234  0.0680
  938loPI   C4A15002   7.701   5.749   7.486  0.1852  0.0958 -0.0819
  938loPI   C5A15003   7.764   5.693   7.930 -0.1583  0.1325  0.0748
  938loPI   C6A15004   7.522   5.642   8.221  0.0471  0.3484  0.0574
  938loPI   C1B15005   7.643   6.290   6.538  0.2916  0.2210  0.1275
  938loPI   C2B15006   7.672   6.300   6.911 -0.0968 -0.2029  0.1803
  938loPI   C3B15007   7.606   6.229   7.306  0.1363  0.0175 -0.2859
  938loPI   C4B15008   7.615   6.172   7.784  0.2102  0.1015  0.1106
  939loPI    C115009  13.794  12.142   5.516  0.0534  0.0060 -0.1530
  939loPI    C215010  13.417  12.274   5.537 -0.0101 -0.1957 -0.0030
  939loPI    C315011  13.670  12.435   5.273 -0.1834 -0.0171 -0.0626
  939loPI   PO415012  13.876  12.114   5.688 -0.0704 -0.0094 -0.0487
  939loPI   GL115013  13.722  12.323   5.985 -0.2125 -0.2361  0.1175
  939loPI   GL215014  13.877  12.506   6.116 -0.3144 -0.0130  0.1578
  939loPI   C1A15015  13.607  12.029   6.358  0.1287  0.4033  0.2356
  939loPI   C2A15016  13.623  12.085   6.814  0.0404 -0.1017 -0.0934
  939loPI   C3A15017  13.570  12.150   7.247 -0.1078  0.0635 -0.1589
  939loPI   C4A15018  13.524  12.063   7.676 -0.2440 -0.1134  0.3036
  939loPI   C5A15019  13.529  12.142   8.058  0.1176 -0.2722  0.1846
  939loPI   C6A15020  13.408  12.032   8.512 -0.0182  0.1305 -0.0532
  939loPI   C1B15021  13.969  12.434   6.557  0.1290  0.6695 -0.0254
  939loPI   C2B15022  14.014  12.440   7.025 -0.2849  0.2281  0.0770
  939loPI   C3B15023  14.016  12.415   7.468  0.3696 -0.0485 -0.0874
  939loPI   C4B15024  13.984  12.364   7.867  0.0528  0.0369  0.2832
  940loPI    C115025  13.776   5.593   5.663  0.0505  0.1208 -0.1687
  940loPI    C215026  13.800   5.961   5.509 -0.0853  0.0871 -0.2725
  940loPI    C315027  13.596   5.677   5.316 -0.1058 -0.0038 -0.1188
  940loPI   PO415028  13.856   5.592   5.891 -0.3241 -0.0300 -0.0764
  940loPI   GL115029  13.704   5.698   6.149 -0.1218 -0.2156 -0.0020
  940loPI   GL215030  13.625   6.026   5.995  0.1303  0.0513 -0.0409
  940loPI   C1A15031  13.657   5.708   6.608 -0.3886 -0.0100  0.0985
  940loPI   C2A15032  13.522   5.776   6.953 -0.5173  0.0908 -0.0489
  940loPI   C3A15033  13.590   5.864   7.394  0.0670  0.0695  0.3151
  940loPI   C4A15034  13.702   5.764   7.740  0.1995 -0.1537  0.1444
  940loPI   C5A15035  13.772   5.829   8.148  0.0919 -0.1709  0.3695
  940loPI   C6A15036  13.784   6.046   8.531 -0.1198 -0.0808  0.0788
  940loPI   C1B15037  13.625   6.247   6.470 -0.1664 -0.2946 -0.0912
  940loPI   C2B15038  13.630   6.284   6.940  0.0892  0.1762 -0.1417
  940loPI   C3B15039  13.577   6.361   7.399  0.1043 -0.0887  0.2617
  940loPI   C4B15040  13.487   6.296   7.860 -0.0308  0.4667 -0.0545
  941loPI    C115041   8.841  15.140   5.482  0.0817  0.1423  0.0461
  941loPI    C215042   8.552  15.241   5.224 -0.0826 -0.0128  0.1669
  941loPI    C315043   8.768  14.911   5.162  0.1407  0.1572  0.0218
  941loPI   PO415044   8.771  15.154   5.778  0.0147 -0.0098 -0.1277
  941loPI   GL115045   8.723  15.092   6.277  0.0412 -0.2019 -0.1189
  941loPI   GL215046   8.483  14.848   6.378  0.2433  0.5194  0.1079
  941loPI   C1A15047   8.922  15.218   6.727 -0.3128 -0.1318  0.0289
  941loPI   C2A15048   8.952  15.323   7.176 -0.0934  0.1161  0.0404
  941loPI   C3A15049   8.965  15.317   7.638 -0.1144  0.0858 -0.0434
  941loPI   C4A15050   8.942  15.288   8.054  0.0087 -0.2406  0.1613
  941loPI   C5A15051   9.064  15.496   8.438 -0.0454  0.1091  0.1213
  941loPI   C6A15052   8.708  15.527   8.805 -0.0684 -0.1803  0.0084
  941loPI   C1B15053   8.604  14.866   6.810  0.1877  0.0465  0.0729
  941loPI   C2B15054   8.557  14.994   7.203 -0.1129  0.0212  0.0483
  941loPI   C3B15055   8.609  14.943   7.550 -0.1313 -0.0113 -0.2697
  941loPI   C4B15056   8.515  15.028   7.922 -0.1094  0.1159  0.1399
  942loPI    C115057  12.709   1.701   5.501 -0.1473  0.1743 -0.1295
  942loPI    C215058  12.846   1.386   5.295  0.0222  0.1977 -0.0542
  942loPI    C315059  12.604   1.651   5.118 -0.2550 -0.0606 -0.0713
  942loPI   PO415060  12.570   1.648   5.639  0.2224 -0.3299  0.1131
  942loPI   GL115061  12.538   1.641   6.039 -0.1804  0.4637  0.0229
  942loPI   GL215062  12.695   1.938   6.109  0.1245 -0.0871 -0.0933
  942loPI   C1A15063  12.430   1.405   6.415  0.0316 -0.0381  0.0162
  942loPI   C2A15064  12.491   1.355   6.769  0.2680 -0.3717 -0.2748
  942loPI   C3A15065  12.411   1.467   7.229  0.0290  0.1479  0.2067
  942loPI   C4A15066  12.369   1.454   7.561  0.0452 -0.1991  0.2679
  942loPI   C5A15067  12.454   1.513   8.009 -0.1012 -0.1479 -0.2608
  942loPI   C6A15068  12.442   1.346   8.447 -0.2987  0.1907 -0.3277
  942loPI   C1B15069  12.795   1.710   6.488  0.1550 -0.4423  0.0045
  942loPI   C2B15070  12.952   1.868   6.987  0.0629  0.2113  0.0276
  942loPI   C3B15071  12.936   1.738   7.442 -0.0003 -0.1680  0.1961
  942loPI   C4B15072  12.852   1.844   7.858  0.0375  0.3593 -0.2121
  943loPI    C115073  12.010  11.966   5.387 -0.2609  0.3301 -0.1055
  943loPI    C215074  12.306  12.202   5.258 -0.0043 -0.0383 -0.2072
  943loPI    C315075  12.075  12.320   5.561  0.2985  0.2210 -0.0712
  943loPI   PO415076  12.248  11.714   5.522 -0.0431  0.2656 -0.0436
  943loPI   GL115077  12.244  11.387   5.704 -0.2661  0.1585 -0.1083
  943loPI   GL215078  12.378  11.192   5.899  0.0042  0.2930 -0.2074
  943loPI   C1A15079  11.898  11.362   6.128  0.1815 -0.0474  0.0690
  943loPI   C2A15080  11.904  11.305   6.541  0.0448  0.1490 -0.0892
  943loPI   C3A15081  11.925  11.282   7.024  0.0366  0.1390  0.0829
  943loPI   C4A15082  11.813  11.282   7.424 -0.1564 -0.1047 -0.0324
  943loPI   C5A15083  11.824  11.301   7.804  0.1230  0.2156 -0.0726
  943loPI   C6A15084  12.221  11.160   8.102  0.0792  0.1363  0.2399
  943loPI   C1B15085  12.446  11.102   6.319  0.0854  0.1853  0.0960
  943loPI   C2B15086  12.329  11.145   6.769 -0.0446 -0.4777 -0.0650
  943loPI   C3B15087  12.375  11.151   7.208  0.1240  0.3683 -0.0924
  943loPI   C4B15088  12.249  11.063   7.634  0.0925 -0.0920 -0.1543
  944loPI    C115089  12.115   7.731   5.661  0.0866 -0.0049 -0.0458
  944loPI    C215090  12.407   7.852   5.416  0.0947 -0.0582 -0.0623
  944loPI    C315091  12.192   7.526   5.327  0.0457 -0.0325 -0.0385
  944loPI   PO415092  12.196   7.722   5.918 -0.0401 -0.1419  0.0261
  944loPI   GL115093  12.322   7.454   6.294 -0.1161  0.1528  0.0145
  944loPI   GL215094  12.506   7.175   6.190 -0.1864  0.1869 -0.2569
  944loPI   C1A15095  12.439   7.775   6.583 -0.1045 -0.3389  0.1409
  944loPI   C2A15096  12.460   7.777   6.938 -0.3270 -0.3096  0.0700
  944loPI   C3A15097  12.425   7.680   7.332  0.2491 -0.1048 -0.0477
  944loPI   C4A15098  12.503   7.645   7.771  0.0201  0.0463 -0.1717
  944loPI   C5A15099  12.350   7.539   8.178  0.1663 -0.1484  0.3090
  944loPI   C6A15100  12.022   7.682   8.514  0.2024  0.3470  0.0795
  944loPI   C1B15101  12.566   7.194   6.674 -0.0052  0.2036 -0.1196
  944loPI   C2B15102  12.571   7.215   7.175  0.1740 -0.1293 -0.1894
  944loPI   C3B15103  12.487   7.159   7.544  0.1068 -0.0293  0.2652
  944loPI   C4B15104  12.513   7.063   7.992  0.4242 -0.0785  0.1955
  945loPI    C115105   4.224   0.491   5.667 -0.2701  0.0910  0.1022
  945loPI    C215106   4.170   0.795   5.412 -0.0088  0.0414 -0.0154
  945loPI    C315107   4.116   0.418   5.289 -0.2897  0.0358  0.1185
  945loPI   PO415108   4.256   0.687   5.925 -0.2641 -0.2400  0.1209
  945loPI   GL115109   4.196   0.735   6.241 -0.0321 -0.3280 -0.1608
  945loPI   GL215110   4.458   0.636   6.387  0.0802  0.0761 -0.1239
  945loPI   C1A15111   3.948   0.867   6.632  0.2157  0.2363 -0.1627
  945loPI   C2A15112   3.928   0.853   7.026 -0.2313 -0.2517 -0.0041
  945loPI   C3A15113   3.784   0.871   7.429  0.0012  0.3187  0.0222
  945loPI   C4A15114   3.727   0.947   7.971  0.1144  0.1905 -0.2942
  945loPI   C5A15115   3.807   1.042   8.354 -0.0963  0.3160  0.2216
  945loPI   C6A15116   3.580   0.786   8.715  0.1259  0.2073 -0.0518
  945loPI   C1B15117   4.348   0.707   6.793 -0.0453  0.2271  0.1022
  945loPI   C2B15118   4.386   0.691   7.177 -0.0131 -0.1624  0.2320
  945loPI   C3B15119   4.300   0.785   7.588 -0.1792  0.0109  0.2380
  945loPI   C4B15120   4.284   0.808   8.063  0.0545 -0.3052 -0.2805
  946loPI    C115121  16.588   9.386   5.845  0.0494  0.0916 -0.0306
  946loPI    C215122  16.720   9.640   5.565  0.0207  0.0488 -0.0829
  946loPI    C315123  16.575   9.283   5.459 -0.0368  0.0526 -0.0173
  946loPI   PO415124  16.790   9.373   6.033 -0.2490  0.0783 -0.0523
  946loPI   GL115125  16.706   9.425   6.404 -0.0655 -0.2257  0.0993
  946loPI   GL215126  16.398   9.621   6.307 -0.2200 -0.2897  0.0665
  946loPI   C1A15127  16.635   9.516   6.813  0.2724 -0.3632 -0.2967
  946loPI   C2A15128  16.601   9.500   7.252  0.0377 -0.3077 -0.3059
  946loPI   C3A15129  16.581   9.592   7.714 -0.1326  0.1612  0.0032
  946loPI   C4A15130  16.557   9.651   8.100 -0.0993 -0.2644  0.1251
  946loPI   C5A15131  16.430   9.417   8.334 -0.3311 -0.0311  0.0186
  946loPI   C6A15132  16.246   9.584   8.704  0.0332 -0.0398  0.1547
  946loPI   C1B15133  16.117   9.706   6.554  0.0230  0.2453 -0.1600
  946loPI   C2B15134  16.134   9.620   6.955 -0.0231  0.0980 -0.0030
  946loPI   C3B15135  16.111   9.672   7.392  0.0795  0.0661 -0.3426
  946loPI   C4B15136  16.060   9.718   7.892  0.3687 -0.0777  0.1922
  947loPI    C115137  11.293   5.942   5.306  0.1345  0.1217  0.0467
  947loPI    C215138  11.038   6.084   5.032 -0.1427 -0.1503  0.1586
  947loPI    C315139  11.401   5.958   4.921 -0.0308  0.2908  0.0057
  947loPI   PO415140  11.266   6.046   5.511 -0.0359 -0.2348  0.0794
  947loPI   GL115141  11.247   6.087   5.991 -0.0670 -0.1376 -0.0600
  947loPI   GL215142  11.414   6.336   6.071  0.0810  0.0264 -0.1037
  947loPI   C1A15143  11.452   5.837   6.390 -0.0674 -0.2254  0.0997
  947loPI   C2A15144  11.385   5.794   6.829 -0.2230  0.0705  0.0823
  947loPI   C3A15145  11.411   5.624   7.222  0.1193 -0.2353 -0.0720
  947loPI   C4A15146  11.484   5.677   7.643  0.0119  0.2253 -0.1178
  947loPI   C5A15147  11.261   5.827   7.988  0.3428  0.0315 -0.1773
  947loPI   C6A15148  11.008   6.167   8.239  0.3081 -0.1328 -0.0631
  947loPI   C1B15149  11.242   6.364   6.430 -0.1335  0.0020  0.2037
  947loPI   C2B15150  11.299   6.302   6.849  0.0350  0.0412 -0.1378
  947loPI   C3B15151  11.316   6.205   7.286 -0.0894  0.1270 -0.0950
  947loPI   C4B15152  11.286   6.213   7.719  0.1774  0.0611 -0.1161
  948loPI    C115153  10.731  16.587   5.773 -0.1946 -0.0751  0.0867
  948loPI    C215154  10.955  16.517   5.449 -0.1433  0.2004  0.0596
  948loPI    C315155  10.561  16.449   5.438 -0.1209  0.0778 -0.0152
  948loPI   PO415156  10.850  16.468   5.964 -0.2322  0.0990 -0.0249
  948loPI   GL115157  11.012  16.409   6.310 -0.0688 -0.1321  0.2796
  948loPI   GL215158  10.997  16.063   6.204  0.4786  0.0024  0.0790
  948loPI   C1A15159  11.046  16.359   6.759  0.3634  0.1220  0.1440
  948loPI   C2A15160  10.985  16.415   7.136  0.1708 -0.2373  0.0771
  948loPI   C3A15161  11.009  16.442   7.645 -0.0056 -0.0089  0.0679
  948loPI   C4A15162  11.136  16.455   8.106  0.0240  0.1675 -0.1571
  948loPI   C5A15163  11.278  16.214   8.447 -0.5714  0.0295 -0.1339
  948loPI   C6A15164  11.123  16.078   8.833  0.0939 -0.0386  0.1102
  948loPI   C1B15165  11.108  15.882   6.597  0.2577 -0.0806  0.0688
  948loPI   C2B15166  11.125  15.820   7.124  0.1531 -0.1339 -0.1555
  948loPI   C3B15167  11.089  15.910   7.479  0.0153  0.0502  0.0979
  948loPI   C4B15168  11.235  15.931   7.961  0.0055  0.1651  0.0205
  949loPI    C115169  13.900  15.289   5.586  0.1190 -0.2606  0.0739
  949loPI    C215170  14.045  15.602   5.384 -0.1071 -0.2609 -0.0927
  949loPI    C315171  14.265  15.270   5.424  0.1423 -0.0765  0.1029
  949loPI   PO415172  13.855  15.423   5.814  0.1147  0.1952 -0.1655
  949loPI   GL115173  13.786  15.415   6.195  0.0759 -0.0170  0.1578
  949loPI   GL215174  13.840  15.872   6.254 -0.0041  0.0467 -0.0954
  949loPI   C1A15175  13.872  15.317   6.541  0.2692 -0.1422 -0.0884
  949loPI   C2A15176  13.878  15.323   7.010 -0.0504 -0.3600  0.0297
  949loPI   C3A15177  13.991  15.337   7.414 -0.2170  0.1508 -0.1580
  949loPI   C4A15178  13.986  15.249   7.900 -0.2287 -0.0169  0.0294
  949loPI   C5A15179  14.097  15.300   8.318  0.0856 -0.1473 -0.2402
  949loPI   C6A15180  13.906  15.355   8.725  0.1571  0.0115 -0.4546
  949loPI   C1B15181  13.885  15.812   6.775  0.3291 -0.0059  0.1100
  949loPI   C2B15182  13.774  15.735   7.208  0.0200 -0.1994  0.2689
  949loPI   C3B15183  13.921  15.791   7.617  0.1353  0.0903  0.0731
  949loPI   C4B15184  13.965  15.740   8.100 -0.0978  0.0716 -0.0249
  950loPI    C115185  11.929   3.327   5.338  0.0336 -0.0469  0.2261
  950loPI    C215186  12.006   3.008   5.109 -0.0482  0.2104 -0.1691
  950loPI    C315187  12.295   3.274   5.184  0.0313  0.0278  0.1945
  950loPI   PO415188  11.779   3.245   5.574  0.1201  0.2584 -0.1833
  950loPI   GL115189  11.992   3.390   5.887 -0.3081  0.2146  0.0620
  950loPI   GL215190  12.150   3.047   6.055 -0.2894  0.1599 -0.0972
  950loPI   C1A15191  12.104   3.476   6.252 -0.3106  0.0632  0.1876
  950loPI   C2A15192  12.157   3.487   6.657  0.2580  0.1591 -0.1803
  950loPI   C3A15193  12.139   3.505   7.038  0.0126 -0.0322  0.1322
  950loPI   C4A15194  12.188   3.388   7.482  0.1076 -0.0568 -0.0826
  950loPI   C5A15195  12.087   3.553   7.979  0.2165 -0.1521  0.3908
  950loPI   C6A15196  11.631   3.430   8.118 -0.2391  0.2474  0.1664
  950loPI   C1B15197  12.263   3.050   6.445  0.2342 -0.1329 -0.0471
  950loPI   C2B15198  12.190   3.009   6.851 -0.0328 -0.2242 -0.1791
  950loPI   C3B15199  12.199   2.947   7.270 -0.1764 -0.0546 -0.0811
  950loPI   C4B15200  12.234   2.916   7.700 -0.1961  0.0519 -0.0943
  951loPI    C115201   4.207   4.226   5.693  0.0992 -0.0746 -0.0594
  951loPI    C215202   4.425   3.935   5.525  0.0450 -0.0744 -0.1306
  951loPI    C315203   4.227   4.195   5.295 -0.0436 -0.0844 -0.0661
  951loPI   PO415204   4.050   4.046   5.874 -0.4380 -0.1305 -0.0043
  951loPI   GL115205   3.930   3.917   6.268 -0.0289  0.1010 -0.0079
  951loPI   GL215206   3.860   4.157   6.323 -0.0176 -0.2357 -0.0870
  951loPI   C1A15207   3.906   3.686   6.624 -0.0803  0.0561 -0.2632
  951loPI   C2A15208   3.915   3.807   7.083  0.0678  0.2136  0.2234
  951loPI   C3A15209   3.889   3.827   7.564  0.2957  0.0835 -0.0366
  951loPI   C4A15210   3.884   3.831   7.960  0.0464 -0.2373 -0.3105
  951loPI   C5A15211   4.048   3.950   8.333  0.1668  0.1011 -0.1433
  951loPI   C6A15212   4.437   4.064   8.560  0.0722  0.2062 -0.1497
  951loPI   C1B15213   3.884   4.251   6.692  0.1489 -0.0530 -0.1104
  951loPI   C2B15214   3.820   4.296   7.196 -0.0904 -0.0769  0.0403
  951loPI   C3B15215   3.837   4.298   7.676  0.1889  0.1622  0.1106
  951loPI   C4B15216   3.872   4.405   8.222  0.0469 -0.0642  0.0959
  952loPI    C115217   5.502   3.607   5.819 -0.0437 -0.0345 -0.0227
  952loPI    C215218   5.733   3.650   5.495 -0.1106 -0.0312 -0.0702
  952loPI    C315219   5.649   3.284   5.634  0.0829 -0.0266  0.0629
  952loPI   PO415220   5.614   3.755   5.979 -0.2329 -0.2634 -0.4425
  952loPI   GL115221   5.600   3.795   6.337 -0.1085  0.0366  0.4714
  952loPI   GL215222   5.283   3.637   6.337 -0.0521 -0.0408 -0.2894
  952loPI   C1A15223   5.559   3.963   6.673 -0.1946 -0.0619 -0.0225
  952loPI   C2A15224   5.631   4.090   7.023 -0.1475 -0.0211  0.0510
  952loPI   C3A15225   5.660   4.131   7.461  0.0542  0.1386  0.3574
  952loPI   C4A15226   5.716   4.206   7.902 -0.1577  0.0217  0.0388
  952loPI   C5A15227   5.597   4.201   8.319  0.2235  0.2423 -0.0553
  952loPI   C6A15228   5.779   3.994   8.630 -0.2085  0.1549 -0.0528
  952loPI   C1B15229   5.231   3.669   6.817 -0.0153  0.2009 -0.0079
  952loPI   C2B15230   5.286   3.851   7.202 -0.0035  0.3824 -0.1876
  952loPI   C3B15231   5.146   3.820   7.605  0.0919  0.0764 -0.1563
  952loPI   C4B15232   5.308   3.862   8.018 -0.2504 -0.1266 -0.0091
  953loPI    C115233  13.356  16.328   5.594 -0.0613 -0.0797  0.1251
  953loPI    C215234  13.078  16.607   5.665  0.0471  0.0632 -0.0071
  953loPI    C315235  13.355  16.667   5.382  0.1785 -0.1031  0.0845
  953loPI   PO415236  13.437  16.248   5.757  0.0451 -0.0030 -0.0564
  953loPI   GL115237  13.261  16.340   6.140 -0.1951 -0.1149 -0.1280
  953loPI   GL215238  13.036  16.219   6.306  0.1995  0.0698 -0.1143
  953loPI   C1A15239  13.330  16.545   6.622  0.0813 -0.1410 -0.0798
  953loPI   C2A15240  13.231  16.470   7.024  0.2003  0.0230 -0.0912
  953loPI   C3A15241  13.323  16.493   7.537 -0.0105  0.0753 -0.0475
  953loPI   C4A15242  13.446  16.511   7.963 -0.1094  0.1638  0.2160
  953loPI   C5A15243  13.602  16.451   8.388 -0.2278 -0.1190 -0.0888
  953loPI   C6A15244  13.880  16.637   8.648  0.0081  0.1247 -0.0393
  953loPI   C1B15245  12.911  16.124   6.760  0.0974  0.1341 -0.1083
  953loPI   C2B15246  12.833  16.204   7.246  0.1385  0.0900  0.0717
  953loPI   C3B15247  12.915  16.163   7.685  0.0729  0.0150 -0.3504
  953loPI   C4B15248  13.069  16.205   8.133 -0.1357 -0.1291 -0.2162
  954loPI    C115249   3.245  11.524   5.751 -0.1492  0.0120  0.1263
  954loPI    C215250   3.185  11.783   5.453  0.2639  0.0232  0.0482
  954loPI    C315251   3.159  11.390   5.385 -0.1378  0.0347  0.1153
  954loPI   PO415252   3.113  11.629   5.909 -0.3275  0.0598 -0.3954
  954loPI   GL115253   2.889  11.482   6.276 -0.0966 -0.0440  0.1126
  954loPI   GL215254   3.192  11.371   6.409  0.2909  0.2102 -0.1367
  954loPI   C1A15255   2.767  11.441   6.711  0.0679  0.1773  0.0357
  954loPI   C2A15256   2.706  11.382   7.196  0.0100  0.2021 -0.2564
  954loPI   C3A15257   2.694  11.373   7.683  0.1168  0.2504  0.0183
  954loPI   C4A15258   2.567  11.501   8.098  0.0890  0.1301  0.1853
  954loPI   C5A15259   2.628  11.627   8.461  0.0003 -0.4686  0.0816
  954loPI   C6A15260   2.466  11.914   8.781  0.0006 -0.0918  0.3567
  954loPI   C1B15261   3.233  11.221   6.869 -0.0551 -0.1103 -0.1236
  954loPI   C2B15262   3.260  11.162   7.268 -0.1843  0.2307 -0.1211
  954loPI   C3B15263   3.169  11.180   7.686 -0.4831 -0.1108 -0.0036
  954loPI   C4B15264   2.969  11.192   8.113  0.1991 -0.0631 -0.0609
  955loPI    C115265   7.336  11.363   5.601  0.1894 -0.0400  0.0812
  955loPI    C215266   7.221  11.036   5.402 -0.0157  0.1068 -0.0454
  955loPI    C315267   7.288  11.377   5.204  0.0675  0.1765  0.1018
  955loPI   PO415268   7.215  11.327   5.829  0.0988 -0.1959  0.1729
  955loPI   GL115269   7.235  11.501   6.129  0.1806 -0.0101 -0.0726
  955loPI   GL215270   7.330  11.756   6.279 -0.2309  0.2514 -0.2906
  955loPI   C1A15271   7.402  11.200   6.443  0.0520  0.0421 -0.0219
  955loPI   C2A15272   7.427  11.132   6.921 -0.0990 -0.0957  0.3726
  955loPI   C3A15273   7.314  11.144   7.311 -0.2706  0.0766  0.0479
  955loPI   C4A15274   7.087  10.862   7.583 -0.0745  0.0507 -0.3360
  955loPI   C5A15275   6.819  10.725   7.942  0.2211 -0.0947  0.2390
  955loPI   C6A15276   6.738  10.485   8.271  0.0012  0.0746 -0.1552
  955loPI   C1B15277   7.326  11.668   6.685 -0.0778  0.1623 -0.2898
  955loPI   C2B15278   7.278  11.642   7.146 -0.2613  0.2206 -0.1047
  955loPI   C3B15279   7.198  11.663   7.563  0.2253  0.2115 -0.2195
  955loPI   C4B15280   7.419  11.653   7.996  0.1071 -0.0303  0.0354
  956loPI    C115281  15.304   0.975   5.311  0.0842  0.3892  0.0614
  956loPI    C215282  15.471   0.668   5.116 -0.4489  0.1074  0.0289
  956loPI    C315283  15.520   1.041   4.981 -0.1853 -0.0083 -0.2048
  956loPI   PO415284  15.335   0.908   5.540  0.4815  0.0677  0.5184
  956loPI   GL115285  15.139   0.859   5.939  0.2405 -0.3682  0.0974
  956loPI   GL215286  15.113   1.108   6.201 -0.1334 -0.1702  0.2120
  956loPI   C1A15287  15.320   0.577   6.206  0.0612  0.0931 -0.1151
  956loPI   C2A15288  15.312   0.481   6.622 -0.1519  0.1636  0.0221
  956loPI   C3A15289  15.312   0.373   7.015  0.0514 -0.1740  0.0846
  956loPI   C4A15290  15.352   0.325   7.461  0.1286  0.0342 -0.0779
  956loPI   C5A15291  15.374   0.444   7.927 -0.2509 -0.1776 -0.2945
  956loPI   C6A15292  15.756   0.728   8.194  0.0603 -0.0236  0.2142
  956loPI   C1B15293  15.246   0.960   6.547 -0.0753  0.1070 -0.0045
  956loPI   C2B15294  15.186   0.960   6.944 -0.0361 -0.1181  0.3097
  956loPI   C3B15295  15.214   0.842   7.353 -0.0353  0.0545 -0.0594
  956loPI   C4B15296  15.297   0.950   7.760  0.2013 -0.1648 -0.0277
  957loPI    C115297   3.222  14.482   6.067  0.2021 -0.0278 -0.0585
  957loPI    C215298   3.096  14.728   5.778  0.1859 -0.0253 -0.0492
  957loPI    C315299   3.119  14.335   5.710  0.0135 -0.0449  0.0025
  957loPI   PO415300   2.971  14.437   6.318 -0.2633  0.1391  0.2644
  957loPI   GL115301   2.973  14.476   6.701 -0.1149  0.1157 -0.4493
  957loPI   GL215302   2.756  14.386   6.744  0.1852 -0.1226  0.0404
  957loPI   C1A15303   3.265  14.628   7.016  0.1479  0.1458 -0.3421
  957loPI   C2A15304   3.222  14.609   7.512 -0.2930  0.0725  0.0740
  957loPI   C3A15305   3.142  14.623   7.885 -0.2358  0.0022  0.0327
  957loPI   C4A15306   3.154  14.605   8.300 -0.0153 -0.0781 -0.1863
  957loPI   C5A15307   3.086  14.594   8.775 -0.1940 -0.0172  0.0319
  957loPI   C6A15308   3.033  14.464   9.210 -0.2259  0.3272 -0.1666
  957loPI   C1B15309   2.736  14.333   7.150  0.0063  0.2302  0.0041
  957loPI   C2B15310   2.876  14.259   7.542  0.0766 -0.2918 -0.0334
  957loPI   C3B15311   2.789  14.283   7.929 -0.1409  0.1460  0.0857
  957loPI   C4B15312   2.696  14.199   8.390  0.2186 -0.0489 -0.0566
  958loPI    C115313  14.698  16.423   5.461  0.2912 -0.0426 -0.1343
  958loPI    C215314  15.015  16.585   5.278  0.2076  0.1074 -0.1481
  958loPI    C315315  14.667  16.782   5.286  0.1163 -0.0536 -0.1272
  958loPI   PO415316  14.792  16.349   5.683 -0.3464  0.0606 -0.2575
  958loPI   GL115317  14.861  16.418   6.097  0.0282 -0.0682  0.0244
  958loPI   GL215318  14.686  16.628   6.222 -0.0387 -0.0604 -0.0731
  958loPI   C1A15319  14.785  16.072   6.490 -0.1447  0.0474  0.1884
  958loPI   C2A15320  14.636  16.032   6.868 -0.1223  0.1715 -0.1367
  958loPI   C3A15321  14.735  15.959   7.272 -0.0432  0.1513 -0.2090
  958loPI   C4A15322  14.826  15.988   7.717  0.2479  0.0129 -0.3678
  958loPI   C5A15323  14.793  16.025   8.148  0.0164 -0.2818  0.1314
  958loPI   C6A15324  14.835  16.419   8.353  0.1546 -0.0975  0.4875
  958loPI   C1B15325  14.642  16.549   6.588 -0.0183 -0.5184 -0.1773
  958loPI   C2B15326  14.630  16.476   7.063 -0.3288  0.3902 -0.0025
  958loPI   C3B15327  14.621  16.417   7.516 -0.1344  0.2242 -0.0243
  958loPI   C4B15328  14.741  16.486   7.832  0.2895 -0.2188 -0.3461
  959loPI    C115329   8.911   5.470   5.299 -0.1759  0.1971  0.1611
  959loPI    C215330   8.882   5.796   5.068 -0.1600  0.1608  0.1077
  959loPI    C315331   8.866   5.432   4.903  0.0025  0.1355  0.1456
  959loPI   PO415332   9.077   5.527   5.580 -0.4347  0.1744  0.2081
  959loPI   GL115333   9.211   5.511   5.923  0.3058  0.2713 -0.1021
  959loPI   GL215334   9.476   5.336   6.052  0.0833 -0.2668  0.0329
  959loPI   C1A15335   9.110   5.621   6.408 -0.3289  0.0755 -0.0085
  959loPI   C2A15336   9.072   5.611   6.782  0.2584  0.1527 -0.1180
  959loPI   C3A15337   9.091   5.581   7.194 -0.2778  0.0443  0.1918
  959loPI   C4A15338   9.135   5.606   7.615  0.1604 -0.2886  0.1091
  959loPI   C5A15339   9.029   5.691   8.065 -0.0449 -0.0684 -0.1114
  959loPI   C6A15340   9.076   5.738   8.484  0.0846 -0.1129  0.0915
  959loPI   C1B15341   9.637   5.458   6.444 -0.0662  0.1754  0.0004
  959loPI   C2B15342   9.569   5.442   6.867  0.0083  0.2443  0.0440
  959loPI   C3B15343   9.592   5.425   7.367 -0.0239 -0.2863  0.4080
  959loPI   C4B15344   9.610   5.398   7.721  0.1051  0.0834  0.0901
  960loPI    C115345  14.856   4.455   5.277  0.4023 -0.0035 -0.0142
  960loPI    C215346  14.904   4.734   4.995  0.1152  0.2021  0.1355
  960loPI    C315347  14.554   4.545   5.032  0.1931  0.0819  0.2692
  960loPI   PO415348  14.880   4.554   5.447  0.0527  0.8004 -0.1492
  960loPI   GL115349  14.868   4.686   5.818  0.0139 -0.0375  0.2467
  960loPI   GL215350  15.031   4.884   6.034 -0.2901 -0.0534  0.5089
  960loPI   C1A15351  14.775   4.464   6.271 -0.1674  0.3745  0.1240
  960loPI   C2A15352  14.720   4.405   6.627  0.5658 -0.0391  0.1033
  960loPI   C3A15353  14.798   4.523   7.017 -0.3107 -0.1267 -0.0987
  960loPI   C4A15354  14.689   4.433   7.482  0.0812 -0.0971 -0.2658
  960loPI   C5A15355  14.765   4.523   7.896 -0.0333 -0.1571  0.0028
  960loPI   C6A15356  14.459   4.554   8.178 -0.0647  0.0048 -0.1681
  960loPI   C1B15357  15.118   5.105   6.337 -0.1495 -0.1056 -0.1496
  960loPI   C2B15358  15.122   5.245   6.804  0.0781 -0.2817  0.2395
  960loPI   C3B15359  15.064   5.292   7.203  0.1494 -0.0402 -0.0578
  960loPI   C4B15360  15.072   5.335   7.659 -0.5018  0.0005  0.0480
  961loPI    C115361   6.667   0.437   5.393 -0.0835  0.0337  0.0040
  961loPI    C215362   6.318   0.559   5.239 -0.0801 -0.0339 -0.0580
  961loPI    C315363   6.422   0.174   5.219 -0.0223 -0.0218  0.0017
  961loPI   PO415364   6.609   0.496   5.694  0.1829  0.0459  0.1426
  961loPI   GL115365   6.656   0.466   6.111 -0.1601 -0.2568  0.1079
  961loPI   GL215366   6.337   0.518   6.230  0.0855 -0.1251  0.3162
  961loPI   C1A15367   6.615   0.319   6.559 -0.0620 -0.0639  0.2257
  961loPI   C2A15368   6.774   0.390   6.918 -0.1109 -0.1777  0.0999
  961loPI   C3A15369   6.751   0.476   7.287  0.2838  0.0598 -0.0841
  961loPI   C4A15370   7.017   0.699   7.547  0.0195  0.0926 -0.1505
  961loPI   C5A15371   7.468   0.986   7.548 -0.2324 -0.1906 -0.1070
  961loPI   C6A15372   7.890   1.228   7.448  0.0627 -0.0156 -0.1361
  961loPI   C1B15373   6.199   0.547   6.652 -0.0468  0.2021 -0.3735
  961loPI   C2B15374   6.317   0.566   7.066  0.2968 -0.1237 -0.0710
  961loPI   C3B15375   6.170   0.448   7.471  0.1614  0.0921  0.2245
  961loPI   C4B15376   6.054   0.458   7.904  0.2800 -0.1717 -0.1803
  962loPI    C115377  14.338  14.759   5.312  0.2079 -0.0236  0.2044
  962loPI    C215378  14.208  14.381   5.322  0.0878  0.0078 -0.0722
  962loPI    C315379  14.387  14.522   4.994 -0.0886  0.2630 -0.0615
  962loPI   PO415380  14.417  14.812   5.572  0.0303 -0.0631  0.0205
  962loPI   GL115381  14.355  14.728   6.092 -0.1459 -0.1446 -0.1757
  962loPI   GL215382  14.592  14.567   6.167 -0.1619  0.2900 -0.1102
  962loPI   C1A15383  14.090  14.812   6.366  0.0119 -0.4884  0.0034
  962loPI   C2A15384  13.980  14.884   6.747  0.0948  0.1046 -0.0942
  962loPI   C3A15385  14.052  14.828   7.250  0.0071 -0.1912  0.0259
  962loPI   C4A15386  14.064  14.751   7.657 -0.2420 -0.0972 -0.0555
  962loPI   C5A15387  14.012  14.782   8.086  0.1791 -0.1873  0.2530
  962loPI   C6A15388  13.636  15.131   8.217 -0.0472  0.2648  0.1617
  962loPI   C1B15389  14.560  14.636   6.636 -0.1342 -0.0419 -0.2470
  962loPI   C2B15390  14.570  14.701   7.102 -0.2454  0.2038  0.0442
  962loPI   C3B15391  14.551  14.678   7.529 -0.0304  0.2366 -0.1480
  962loPI   C4B15392  14.458  14.558   7.905  0.0184  0.1102  0.0106
  963loPI    C115393   9.929   6.102   5.427 -0.1252 -0.0227 -0.3207
  963loPI    C215394   9.871   6.486   5.333  0.0257  0.0427 -0.1505
  963loPI    C315395  10.239   6.330   5.320 -0.0172 -0.0635 -0.1000
  963loPI   PO415396   9.793   6.117   5.716  0.1094  0.1612  0.0630
  963loPI   GL115397   9.881   6.151   6.133 -0.1772  0.1850 -0.2251
  963loPI   GL215398   9.666   5.823   6.096  0.1668  0.0610 -0.1066
  963loPI   C1A15399  10.017   6.200   6.609  0.3424  0.1342 -0.3523
  963loPI   C2A15400   9.941   6.269   7.110  0.1746  0.2800  0.0030
  963loPI   C3A15401   9.820   6.313   7.532  0.1499 -0.0223 -0.1821
  963loPI   C4A15402   9.834   6.246   7.901 -0.0186  0.0434  0.0111
  963loPI   C5A15403  10.056   6.120   8.264 -0.1042 -0.0877  0.0307
  963loPI   C6A15404  10.029   6.331   8.694 -0.1795  0.2812 -0.3148
  963loPI   C1B15405   9.576   5.944   6.492 -0.2757  0.3819  0.0413
  963loPI   C2B15406   9.513   5.947   6.923 -0.0915 -0.0813 -0.0413
  963loPI   C3B15407   9.482   5.888   7.319 -0.0707  0.1170 -0.0297
  963loPI   C4B15408   9.478   5.920   7.768  0.0336  0.0267 -0.0544
  964loPI    C115409   9.673   8.582   5.521 -0.0419 -0.0786 -0.0095
  964loPI    C215410  10.057   8.593   5.410 -0.0457  0.4172  0.0024
  964loPI    C315411   9.772   8.713   5.157 -0.1953  0.0770  0.0036
  964loPI   PO415412   9.737   8.555   5.933  0.3529  0.1067 -0.1866
  964loPI   GL115413   9.951   8.573   6.242  0.1995 -0.1356 -0.2331
  964loPI   GL215414  10.002   8.223   6.321  0.1740  0.1696 -0.1031
  964loPI   C1A15415   9.981   8.634   6.660 -0.1855 -0.0538  0.1516
  964loPI   C2A15416  10.106   8.638   7.057  0.0769  0.1110  0.3294
  964loPI   C3A15417  10.053   8.704   7.400  0.2717 -0.1048 -0.1055
  964loPI   C4A15418   9.947   8.674   7.737 -0.0941 -0.1574 -0.0033
  964loPI   C5A15419   9.843   8.669   8.135 -0.0973 -0.3059  0.1432
  964loPI   C6A15420   9.799   9.097   8.367 -0.2099 -0.1531  0.2147
  964loPI   C1B15421  10.091   8.084   6.791 -0.2194  0.1650 -0.3244
  964loPI   C2B15422  10.112   8.157   7.214 -0.1004  0.3684 -0.0948
  964loPI   C3B15423  10.043   8.175   7.628 -0.1413 -0.2789 -0.1169
  964loPI   C4B15424  10.179   8.123   8.065  0.1150  0.1475  0.0859
  965loPI    C115425   2.669  14.489   5.673 -0.0824 -0.2988  0.1905
  965loPI    C215426   2.322  14.602   5.511  0.0843 -0.1617 -0.0779
  965loPI    C315427   2.589  14.400   5.292  0.3258  0.0530  0.0137
  965loPI   PO415428   2.549  14.350   5.899  0.0057  0.0161 -0.0689
  965loPI   GL115429   2.333  14.418   6.357  0.0923 -0.4066  0.2237
  965loPI   GL215430   2.506  14.147   6.375 -0.1750 -0.0784 -0.0583
  965loPI   C1A15431   2.295  14.583   6.754 -0.1042 -0.2140 -0.2008
  965loPI   C2A15432   2.306  14.548   7.040  0.1267 -0.0503 -0.1249
  965loPI   C3A15433   2.368  14.400   7.468 -0.0814 -0.0495 -0.1789
  965loPI   C4A15434   2.285  14.549   7.801 -0.0069  0.1415 -0.1852
  965loPI   C5A15435   2.295  14.462   8.221  0.0585 -0.0653 -0.0244
  965loPI   C6A15436   2.678  14.664   8.488 -0.3149  0.1859 -0.0906
  965loPI   C1B15437   2.381  14.065   6.787  0.0438 -0.1806  0.0529
  965loPI   C2B15438   2.327  13.937   7.268 -0.0177  0.1577 -0.0569
  965loPI   C3B15439   2.436  13.953   7.704  0.2341  0.2202  0.1120
  965loPI   C4B15440   2.376  13.962   8.165  0.2905  0.2431 -0.0633
  966loPI    C115441   7.273   2.045   5.787  0.0647  0.1750 -0.0268
  966loPI    C215442   7.539   2.094   5.492  0.0542  0.0335 -0.0606
  966loPI    C315443   7.166   1.976   5.408  0.1468 -0.3396  0.0373
  966loPI   PO415444   7.321   2.264   5.927 -0.2517  0.2138  0.3751
  966loPI   GL115445   7.300   2.375   6.282 -0.2623 -0.2349 -0.0997
  966loPI   GL215446   7.094   2.110   6.379  0.2406  0.1874 -0.1963
  966loPI   C1A15447   7.367   2.429   6.669  0.2516 -0.1370  0.0174
  966loPI   C2A15448   7.211   2.481   7.045  0.2763  0.1596  0.4001
  966loPI   C3A15449   7.203   2.473   7.387  0.2972 -0.0065 -0.2609
  966loPI   C4A15450   7.229   2.465   7.713  0.2918 -0.1159  0.2710
  966loPI   C5A15451   7.255   2.554   8.156 -0.0904 -0.1944  0.0779
  966loPI   C6A15452   7.444   2.493   8.648 -0.1338 -0.1213  0.1438
  966loPI   C1B15453   6.922   2.157   6.868 -0.1204  0.1652  0.4740
  966loPI   C2B15454   6.791   2.175   7.216  0.0273 -0.0149 -0.0127
  966loPI   C3B15455   6.844   2.148   7.573  0.2688 -0.1814 -0.0417
  966loPI   C4B15456   6.939   2.051   7.827 -0.1666  0.1742 -0.2089
  967loPI    C115457   4.044  11.018   5.400  0.2102 -0.2185  0.0417
  967loPI    C215458   3.758  11.004   5.120  0.2314  0.0977  0.0005
  967loPI    C315459   4.143  10.969   5.015  0.2252 -0.0391  0.0219
  967loPI   PO415460   3.950  10.835   5.603  0.0478 -0.2138 -0.0150
  967loPI   GL115461   4.212  10.683   5.882  0.1631 -0.1941  0.0175
  967loPI   GL215462   4.010  10.834   6.142 -0.3553 -0.3204  0.0147
  967loPI   C1A15463   4.221  10.400   6.334 -0.0148  0.2932  0.2498
  967loPI   C2A15464   4.299  10.402   6.775 -0.2879  0.0835  0.1684
  967loPI   C3A15465   4.225  10.383   7.146 -0.2327  0.3846  0.2426
  967loPI   C4A15466   4.203  10.268   7.522 -0.3342 -0.1867 -0.0751
  967loPI   C5A15467   4.146  10.216   7.940 -0.2250 -0.3181 -0.2797
  967loPI   C6A15468   4.103  10.467   8.298  0.0722  0.2392  0.0079
  967loPI   C1B15469   3.830  10.622   6.616  0.2960 -0.0389 -0.1593
  967loPI   C2B15470   3.802  10.579   7.071 -0.1918 -0.1599 -0.1282
  967loPI   C3B15471   3.779  10.465   7.503  0.0490  0.1632 -0.0637
  967loPI   C4B15472   3.674  10.405   7.918 -0.0288 -0.2662 -0.0292
  968loPI    C115473  17.443  14.821   5.593  0.1003 -0.0661  0.1760
  968loPI    C215474  17.839  14.771   5.566  0.0879 -0.0228 -0.1146
  968loPI    C315475  17.650  15.011   5.308 -0.1048  0.0944  0.1321
  968loPI   PO415476  17.364  14.857   5.839 -0.2379  0.1392 -0.2435
  968loPI   GL115477  17.486  14.982   6.255 -0.0564  0.2345 -0.2854
  968loPI   GL215478  17.384  14.646   6.413 -0.1498 -0.0134 -0.0831
  968loPI   C1A15479  17.858  14.901   6.512  0.1305 -0.3891 -0.1261
  968loPI   C2A15480  17.761  14.901   6.918  0.2148 -0.0823  0.0363
  968loPI   C3A15481  17.619  14.836   7.253 -0.1417 -0.0290  0.0577
  968loPI   C4A15482  17.702  15.009   7.647 -0.0833  0.3328 -0.3542
  968loPI   C5A15483  17.695  14.968   8.095 -0.1463  0.0697 -0.1956
  968loPI   C6A15484  17.674  14.716   8.361 -0.3820 -0.1339  0.2174
  968loPI   C1B15485  17.278  14.644   6.782 -0.1643 -0.0799  0.0997
  968loPI   C2B15486  17.322  14.484   7.284  0.0273  0.1051 -0.1548
  968loPI   C3B15487  17.277  14.574   7.752  0.1125 -0.0322  0.0325
  968loPI   C4B15488  17.194  14.661   8.185  0.1321  0.1957  0.0426
  969loPI    C115489   3.884  15.353   5.570  0.1016 -0.0894 -0.0477
  969loPI    C215490   3.866  15.716   5.404 -0.2539 -0.0452  0.0797
  969loPI    C315491   3.651  15.415   5.251  0.0875 -0.2214 -0.0635
  969loPI   PO415492   3.852  15.460   5.843 -0.1259 -0.2165 -0.1195
  969loPI   GL115493   3.740  15.527   6.216 -0.0315  0.0263  0.2657
  969loPI   GL215494   4.049  15.712   6.319  0.2606 -0.1560 -0.0246
  969loPI   C1A15495   3.498  15.417   6.605 -0.1468 -0.1088 -0.1059
  969loPI   C2A15496   3.492  15.528   7.065  0.0623 -0.3025 -0.1283
  969loPI   C3A15497   3.413  15.454   7.552  0.0994 -0.2188 -0.0841
  969loPI   C4A15498   3.445  15.453   7.953  0.0948  0.3087 -0.0811
  969loPI   C5A15499   3.170  15.306   8.376 -0.2064 -0.1543  0.3616
  969loPI   C6A15500   2.787  15.179   8.628  0.3242  0.1331  0.0357
  969loPI   C1B15501   3.828  15.789   6.710 -0.0451  0.0362 -0.3021
  969loPI   C2B15502   3.950  15.784   7.180 -0.1119  0.0558 -0.2229
  969loPI   C3B15503   3.800  15.756   7.643  0.0715 -0.0821  0.1128
  969loPI   C4B15504   3.817  15.769   8.098 -0.1263  0.0164 -0.0222
  970loPI    C115505   2.668   7.631   5.431 -0.0815  0.0835 -0.1321
  970loPI    C215506   2.775   7.286   5.259  0.2116  0.0350  0.1389
  970loPI    C315507   2.818   7.631   5.060 -0.1291 -0.0842 -0.1520
  970loPI   PO415508   2.766   7.583   5.679 -0.0568  0.3602  0.0430
  970loPI   GL115509   2.783   7.744   6.037  0.0259  0.0002 -0.1794
  970loPI   GL215510   2.925   7.542   6.222 -0.0229  0.1571  0.0800
  970loPI   C1A15511   2.821   8.086   6.443  0.0221 -0.3898  0.3525
  970loPI   C2A15512   2.821   8.182   6.846 -0.0871 -0.0656 -0.0413
  970loPI   C3A15513   2.746   8.060   7.211 -0.0306  0.0668  0.2987
  970loPI   C4A15514   2.726   7.914   7.586 -0.3099  0.3494  0.0464
  970loPI   C5A15515   2.672   7.937   8.060  0.1983 -0.1188 -0.0778
  970loPI   C6A15516   2.837   8.102   8.500  0.2888 -0.1738  0.1923
  970loPI   C1B15517   2.919   7.549   6.650  0.0220  0.1303 -0.2233
  970loPI   C2B15518   2.879   7.538   7.070 -0.3587  0.3028 -0.3838
  970loPI   C3B15519   2.856   7.426   7.473 -0.0936  0.1297  0.2575
  970loPI   C4B15520   2.843   7.510   7.880 -0.1232 -0.2324 -0.0903
  971loPI    C115521  17.347  16.877   5.694  0.3978 -0.0587 -0.0227
  971loPI    C215522  17.616  17.116   5.521 -0.0908  0.2739 -0.3510
  971loPI    C315523  17.380  16.885   5.296 -0.0689 -0.0332 -0.0665
  971loPI   PO415524  17.296  17.018   5.987  0.0427  0.1113 -0.1686
  971loPI   GL115525  17.010  16.981   6.337  0.0075  0.1409  0.2634
  971loPI   GL215526  16.861  16.663   6.357 -0.2183  0.3263  0.1093
  971loPI   C1A15527  16.853  17.175   6.534 -0.2013  0.0325 -0.1422
  971loPI   C2A15528  16.830  17.160   6.937 -0.0130  0.1075  0.0213
  971loPI   C3A15529  16.856  17.115   7.376 -0.1305 -0.0577 -0.0644
  971loPI   C4A15530  16.947  16.974   7.822  0.2363  0.3454  0.0283
  971loPI   C5A15531  16.747  16.957   8.164  0.2550 -0.2019  0.3003
  971loPI   C6A15532  16.483  16.695   8.419 -0.1493  0.0152  0.1374
  971loPI   C1B15533  16.927  16.633   6.706  0.0003 -0.0258  0.0888
  971loPI   C2B15534  17.009  16.627   7.197 -0.0241  0.1720  0.2827
  971loPI   C3B15535  16.999  16.535   7.571 -0.0832  0.0823 -0.1188
  971loPI   C4B15536  17.000  16.517   8.048 -0.2512 -0.3332  0.0820
  972loPI    C115537  16.847  14.537   5.877  0.0884  0.0595 -0.3190
  972loPI    C215538  16.937  14.846   5.639  0.0073  0.1794 -0.1960
  972loPI    C315539  16.625  14.611   5.553 -0.0769  0.2773 -0.1599
  972loPI   PO415540  17.071  14.433   6.044  0.3063 -0.0139 -0.0913
  972loPI   GL115541  17.311  14.131   6.356  0.0550 -0.0541  0.1384
  972loPI   GL215542  16.989  13.979   6.349 -0.1806 -0.2063 -0.2209
  972loPI   C1A15543  17.379  14.135   6.803 -0.0413  0.0527  0.1526
  972loPI   C2A15544  17.389  14.038   7.226 -0.0780  0.0636  0.0925
  972loPI   C3A15545  17.356  14.077   7.693  0.2497  0.0230  0.1476
  972loPI   C4A15546  17.398  14.042   8.161 -0.1562 -0.2350  0.2128
  972loPI   C5A15547  17.534  14.129   8.580 -0.0486  0.0906 -0.1096
  972loPI   C6A15548  17.821  14.066   8.996  0.0123 -0.0036  0.0144
  972loPI   C1B15549  16.990  13.761   6.763 -0.1636  0.0353  0.0784
  972loPI   C2B15550  17.003  13.740   7.305 -0.0637 -0.0574 -0.1667
  972loPI   C3B15551  16.976  13.727   7.738  0.0056 -0.1563  0.3244
  972loPI   C4B15552  17.012  13.788   8.153 -0.0250  0.0561  0.2151
  973loPI    C115553  12.534  17.348   5.736  0.1412 -0.0828  0.2613
  973loPI    C215554  12.464  17.639   5.470 -0.0233  0.0377  0.4329
  973loPI    C315555  12.532  17.265   5.345 -0.3045  0.0508  0.2286
  973loPI   PO415556  12.726  17.402   5.928  0.1514  0.0097  0.0592
  973loPI   GL115557  12.794  17.374   6.311  0.4450  0.1638  0.0690
  973loPI   GL215558  12.599  17.111   6.396 -0.2081  0.1239 -0.0943
  973loPI   C1A15559  13.119  17.458   6.640  0.1754  0.0094  0.0017
  973loPI   C2A15560  13.140  17.475   7.004 -0.1682 -0.1102 -0.0200
  973loPI   C3A15561  13.206  17.574   7.419  0.1487  0.0983 -0.1315
  973loPI   C4A15562  13.261  17.487   7.839  0.2033 -0.0394  0.3002
  973loPI   C5A15563  13.292  17.368   8.293 -0.1004  0.2532 -0.0696
  973loPI   C6A15564  13.036  17.117   8.671  0.3931  0.0274  0.0304
  973loPI   C1B15565  12.682  17.117   6.789  0.1657 -0.2849 -0.2809
  973loPI   C2B15566  12.731  17.166   7.264 -0.1724 -0.0528 -0.1860
  973loPI   C3B15567  12.838  17.155   7.659  0.2614  0.1902 -0.0565
  973loPI   C4B15568  12.869  17.113   8.044  0.3412  0.1284  0.1344
  974loPI    C115569   0.627   0.687   5.512 -0.0575 -0.0609 -0.0085
  974loPI    C215570   0.392   0.422   5.325 -0.0494 -0.1040  0.0421
  974loPI    C315571   0.785   0.428   5.251 -0.1072  0.1625 -0.2641
  974loPI   PO415572   0.570   0.705   5.724 -0.2697 -0.1206 -0.2817
  974loPI   GL115573   0.789   0.410   5.939 -0.2801 -0.2197 -0.0210
  974loPI   GL215574   1.088   0.303   5.894  0.1368  0.1252  0.1616
  974loPI   C1A15575   0.920   0.071   6.295  0.0912  0.0662  0.1945
  974loPI   C2A15576   0.814   0.127   6.752 -0.0639 -0.4699 -0.0240
  974loPI   C3A15577   0.799   0.222   7.310 -0.0672  0.0236 -0.0856
  974loPI   C4A15578   0.715   0.255   7.781 -0.0178  0.3182 -0.2174
  974loPI   C5A15579   0.845   0.435   8.022 -0.1556  0.1918 -0.1474
  974loPI   C6A15580   0.830   0.694   8.326  0.0096  0.0138 -0.0566
  974loPI   C1B15581   1.300   0.429   6.306 -0.3403  0.0997 -0.0473
  974loPI   C2B15582   1.285   0.475   6.784  0.2329 -0.4612 -0.0418
  974loPI   C3B15583   1.296   0.537   7.268  0.4165 -0.0159 -0.0295
  974loPI   C4B15584   1.140   0.488   7.618 -0.1990 -0.1224 -0.1167
  975loPI    C115585   9.271  10.083   5.534  0.0102 -0.0629 -0.0666
  975loPI    C215586   9.220  10.395   5.779  0.2600  0.0876 -0.2019
  975loPI    C315587   9.095  10.417   5.400  0.0936 -0.0545 -0.1566
  975loPI   PO415588   9.242   9.871   5.818 -0.2038 -0.0359  0.1137
  975loPI   GL115589   9.478   9.999   6.226 -0.1432  0.2569 -0.0389
  975loPI   GL215590   9.099  10.148   6.222  0.3809  0.1838 -0.0566
  975loPI   C1A15591   9.465   9.906   6.603 -0.0774  0.2312  0.1056
  975loPI   C2A15592   9.333   9.916   7.031 -0.0629  0.0573  0.1605
  975loPI   C3A15593   9.286   9.750   7.364  0.0129 -0.2733 -0.4271
  975loPI   C4A15594   9.325   9.862   7.761 -0.2434 -0.0010 -0.0797
  975loPI   C5A15595   9.393   9.882   8.207 -0.0032  0.0934 -0.2162
  975loPI   C6A15596   9.558   9.982   8.600 -0.0590 -0.0538 -0.1073
  975loPI   C1B15597   8.980  10.083   6.760 -0.0591  0.2930  0.2049
  975loPI   C2B15598   8.848  10.026   7.134 -0.0515  0.4049 -0.3629
  975loPI   C3B15599   8.853   9.957   7.512 -0.3375  0.0849 -0.1210
  975loPI   C4B15600   8.860   9.861   7.977 -0.0097  0.0434 -0.1316
  976loPI    C115601   0.155  12.619   5.711  0.0765  0.0153  0.1482
  976loPI    C215602   0.253  12.930   5.479  0.2538 -0.1452  0.0043
  976loPI    C315603   0.075  12.609   5.319 -0.1591 -0.0190  0.1955
  976loPI   PO415604   0.327  12.592   5.851 -0.2966  0.0094 -0.0310
  976loPI   GL115605   0.317  12.755   6.268  0.3328  0.3254  0.0164
  976loPI   GL215606  -0.076  12.575   6.280 -0.0132 -0.1184  0.2252
  976loPI   C1A15607   0.234  12.777   6.706 -0.1770 -0.0891 -0.0879
  976loPI   C2A15608   0.332  12.971   7.037 -0.0759 -0.0148  0.2368
  976loPI   C3A15609   0.324  12.985   7.502  0.0491  0.0797 -0.1987
  976loPI   C4A15610   0.320  12.903   7.995  0.0762  0.0515  0.0589
  976loPI   C5A15611   0.212  12.792   8.332  0.2569 -0.2984  0.0224
  976loPI   C6A15612   0.224  12.624   8.707 -0.0980 -0.0571  0.2553
  976loPI   C1B15613  -0.092  12.399   6.673 -0.1359 -0.1236  0.0943
  976loPI   C2B15614  -0.093  12.565   7.146 -0.1475 -0.0535 -0.0573
  976loPI   C3B15615  -0.134  12.681   7.656  0.0249  0.2128  0.3172
  976loPI   C4B15616  -0.145  12.535   8.043  0.1325 -0.1051  0.2855
  977loPI    C115617   1.335   7.839   5.745 -0.0822 -0.1402  0.3595
  977loPI    C215618   0.980   7.705   5.618 -0.0509  0.1786 -0.0881
  977loPI    C315619   1.315   7.587   5.435  0.0394  0.2353  0.0391
  977loPI   PO415620   1.416   7.722   5.916 -0.2490  0.0660 -0.1064
  977loPI   GL115621   1.556   7.437   6.188  0.0779 -0.3175 -0.1019
  977loPI   GL215622   1.529   7.065   6.147  0.0745 -0.1358  0.0961
  977loPI   C1A15623   1.564   7.523   6.571  0.1445 -0.1652  0.0692
  977loPI   C2A15624   1.492   7.589   7.079 -0.1568 -0.3166 -0.0893
  977loPI   C3A15625   1.508   7.523   7.545  0.1279 -0.0936 -0.1897
  977loPI   C4A15626   1.458   7.590   8.046  0.5765 -0.3034 -0.2181
  977loPI   C5A15627   1.403   7.601   8.460 -0.1854 -0.0501 -0.1225
  977loPI   C6A15628   1.235   7.714   8.845  0.1086  0.1033  0.0422
  977loPI   C1B15629   1.725   7.034   6.541 -0.1347  0.0302  0.0772
  977loPI   C2B15630   1.611   7.076   6.964  0.1582 -0.2132 -0.2706
  977loPI   C3B15631   1.559   7.012   7.505  0.1331 -0.1226  0.4913
  977loPI   C4B15632   1.647   7.013   7.988  0.0970 -0.1405  0.0016
  978loPI    C115633   4.398  17.454   5.864 -0.0384 -0.1996 -0.0681
  978loPI    C215634   4.531  17.742   5.621 -0.0334 -0.0791  0.0757
  978loPI    C315635   4.495  17.367   5.486  0.1161 -0.0439 -0.0656
  978loPI   PO415636   4.506  17.433   6.062  0.2972 -0.0970  0.1957
  978loPI   GL115637   4.626  17.518   6.468  0.0625 -0.1949  0.1121
  978loPI   GL215638   4.540  17.865   6.494 -0.1111  0.0378  0.1726
  978loPI   C1A15639   4.458  17.472   6.756 -0.1464 -0.0111 -0.1343
  978loPI   C2A15640   4.521  17.402   7.252 -0.0138  0.0862  0.2153
  978loPI   C3A15641   4.482  17.473   7.638 -0.1526  0.2037 -0.0518
  978loPI   C4A15642   4.372  17.552   8.054  0.1390  0.2188 -0.0022
  978loPI   C5A15643   4.094  17.501   8.407 -0.1091 -0.0277  0.1427
  978loPI   C6A15644   3.892  17.356   8.842 -0.0361 -0.2295  0.1874
  978loPI   C1B15645   4.501  17.956   6.927 -0.1285  0.1158 -0.2366
  978loPI   C2B15646   4.445  17.949   7.398  0.1505 -0.0048  0.0496
  978loPI   C3B15647   4.305  18.020   7.779  0.1659  0.1845  0.3479
  978loPI   C4B15648   4.369  18.059   8.248  0.0590  0.2036  0.2866
  979loPI    C115649   2.954   4.643   5.559 -0.1071  0.0006  0.1493
  979loPI    C215650   2.566   4.609   5.467 -0.0630 -0.0106 -0.0362
  979loPI    C315651   2.841   4.414   5.250  0.0579  0.1209 -0.0023
  979loPI   PO415652   2.955   4.630   5.837 -0.0440  0.0349 -0.1645
  979loPI   GL115653   2.929   4.397   6.194 -0.1612  0.1460  0.0158
  979loPI   GL215654   3.230   4.286   6.171  0.2075  0.1845  0.0742
  979loPI   C1A15655   2.826   4.501   6.579 -0.0566 -0.1279 -0.2493
  979loPI   C2A15656   2.822   4.661   6.986  0.0602  0.3654  0.1860
  979loPI   C3A15657   2.896   4.591   7.294  0.0997  0.2969  0.2160
  979loPI   C4A15658   2.937   4.686   7.707 -0.0425  0.3338  0.4611
  979loPI   C5A15659   2.793   4.588   8.135 -0.3033 -0.0160  0.0935
  979loPI   C6A15660   2.834   4.938   8.374  0.1661  0.3102 -0.0503
  979loPI   C1B15661   3.443   4.400   6.549 -0.0944 -0.0528 -0.2079
  979loPI   C2B15662   3.370   4.451   6.964  0.1058 -0.1444  0.1574
  979loPI   C3B15663   3.356   4.399   7.382 -0.0236  0.0154 -0.0104
  979loPI   C4B15664   3.390   4.459   7.812 -0.1734  0.0828 -0.0961
  980loPI    C115665  15.575   1.717   5.793  0.0356 -0.1986 -0.2146
  980loPI    C215666  15.732   2.073   5.882 -0.3369 -0.1671  0.3703
  980loPI    C315667  15.662   1.976   5.501 -0.1230  0.3342  0.1940
  980loPI   PO415668  15.422   1.692   5.903 -0.0531  0.1895  0.2672
  980loPI   GL115669  15.268   1.831   6.232  0.2252 -0.1781  0.1693
  980loPI   GL215670  15.034   1.983   6.311 -0.0407 -0.1424  0.0392
  980loPI   C1A15671  15.558   1.800   6.525 -0.3021  0.0928 -0.0170
  980loPI   C2A15672  15.617   1.715   6.983 -0.2731 -0.1249 -0.0523
  980loPI   C3A15673  15.566   1.734   7.407  0.0229  0.1171  0.0791
  980loPI   C4A15674  15.641   1.664   7.930 -0.0792  0.0101 -0.0374
  980loPI   C5A15675  16.072   1.596   8.191  0.0575 -0.0879  0.2322
  980loPI   C6A15676  16.470   1.558   8.405 -0.3899 -0.2058 -0.2557
  980loPI   C1B15677  15.151   1.952   6.716 -0.1720 -0.1944 -0.0286
  980loPI   C2B15678  15.068   1.985   7.144  0.2722 -0.1413 -0.1720
  980loPI   C3B15679  15.163   1.992   7.566 -0.1216  0.0966  0.0499
  980loPI   C4B15680  15.171   1.979   7.956 -0.1286 -0.0647 -0.0915
  981loPI    C115681   0.584   3.728   5.682 -0.1134  0.0414  0.0086
  981loPI    C215682   0.291   3.966   5.550 -0.0418  0.1940  0.1216
  981loPI    C315683   0.586   3.855   5.303 -0.1132  0.1640  0.0494
  981loPI   PO415684   0.565   3.724   5.929  0.1410 -0.0871  0.0991
  981loPI   GL115685   0.645   3.515   6.287 -0.1295  0.0042  0.0184
  981loPI   GL215686   0.232   3.639   6.338 -0.1839  0.2922 -0.0158
  981loPI   C1A15687   0.765   3.435   6.711  0.1974 -0.1429 -0.0720
  981loPI   C2A15688   0.750   3.549   7.124  0.1779  0.0619 -0.1233
  981loPI   C3A15689   0.760   3.522   7.523  0.2816  0.1191 -0.0342
  981loPI   C4A15690   0.737   3.639   7.944 -0.0863 -0.1968  0.0537
  981loPI   C5A15691   0.657   3.689   8.319 -0.0413  0.2517 -0.3222
  981loPI   C6A15692   0.595   3.570   8.723 -0.0076 -0.1731  0.1252
  981loPI   C1B15693   0.356   3.678   6.818 -0.1605 -0.3100  0.1439
  981loPI   C2B15694   0.305   3.766   7.235  0.0256  0.0628  0.0790
  981loPI   C3B15695   0.227   3.698   7.613 -0.1688 -0.0604 -0.0350
  981loPI   C4B15696   0.203   3.721   8.096 -0.0434  0.2428  0.0692
  982loPI    C115697  16.307  10.551   5.657  0.0126  0.2262  0.0915
  982loPI    C215698  16.639  10.654   5.459  0.0512 -0.0356  0.0161
  982loPI    C315699  16.331  10.908   5.480  0.1569  0.1068 -0.1349
  982loPI   PO415700  16.347  10.423   5.875 -0.3006 -0.1845  0.0918
  982loPI   GL115701  16.379  10.299   6.226  0.2852 -0.1126  0.1615
  982loPI   GL215702  16.590  10.485   6.299 -0.0383 -0.0195 -0.1752
  982loPI   C1A15703  16.081  10.200   6.523  0.1983 -0.0405  0.0075
  982loPI   C2A15704  16.052  10.196   6.987 -0.0487 -0.1788 -0.0799
  982loPI   C3A15705  16.006  10.193   7.457  0.0148  0.0642  0.5272
  982loPI   C4A15706  15.991  10.205   7.877  0.4050  0.0265 -0.0411
  982loPI   C5A15707  16.150   9.949   8.304  0.0641  0.1030 -0.2457
  982loPI   C6A15708  15.846   9.850   8.636  0.0542  0.0409 -0.1956
  982loPI   C1B15709  16.456  10.498   6.657  0.0667  0.1160 -0.2632
  982loPI   C2B15710  16.435  10.539   7.007  0.0517 -0.4156  0.1751
  982loPI   C3B15711  16.397  10.457   7.431 -0.1130  0.1815  0.1875
  982loPI   C4B15712  16.392  10.541   7.806 -0.3047 -0.1404 -0.0877
  983loPI    C115713  11.035  10.352   5.566  0.1410  0.1072 -0.0570
  983loPI    C215714  11.095   9.964   5.641 -0.1537  0.0485 -0.1099
  983loPI    C315715  10.725  10.114   5.651 -0.0240  0.3667  0.0817
  983loPI   PO415716  11.170  10.448   5.715  0.1081 -0.1612  0.2552
  983loPI   GL115717  11.181  10.635   6.105 -0.2440 -0.1597 -0.0802
  983loPI   GL215718  11.141  10.220   6.140 -0.1037  0.2056  0.1313
  983loPI   C1A15719  11.199  10.715   6.617  0.0924  0.0891  0.1633
  983loPI   C2A15720  11.139  10.651   7.058 -0.1364  0.0119  0.0311
  983loPI   C3A15721  10.989  10.579   7.502 -0.2330  0.0637 -0.3465
  983loPI   C4A15722  11.043  10.662   7.952  0.0097 -0.2095 -0.0022
  983loPI   C5A15723  11.014  10.740   8.387 -0.1787  0.0791 -0.0347
  983loPI   C6A15724  10.641  10.673   8.687  0.1194  0.0247  0.1705
  983loPI   C1B15725  11.163  10.233   6.680 -0.1037  0.0489 -0.1567
  983loPI   C2B15726  11.157  10.083   7.088  0.1930 -0.2957  0.0656
  983loPI   C3B15727  11.100  10.089   7.607  0.0051 -0.1650 -0.0181
  983loPI   C4B15728  11.117  10.023   8.037  0.2961  0.3242 -0.1586
  984loPI    C115729   8.636   1.707   5.527 -0.2322 -0.1035  0.2385
  984loPI    C215730   8.368   1.910   5.310  0.0920 -0.0521 -0.1253
  984loPI    C315731   8.611   1.648   5.132  0.1688 -0.2266  0.2273
  984loPI   PO415732   8.414   1.776   5.833  0.1571  0.1642 -0.0403
  984loPI   GL115733   8.334   1.712   6.285 -0.2975 -0.0908  0.0228
  984loPI   GL215734   8.302   1.981   6.374 -0.1977  0.2014 -0.2186
  984loPI   C1A15735   8.331   1.518   6.664  0.0798  0.1115  0.2495
  984loPI   C2A15736   8.386   1.594   7.079 -0.1491 -0.0327  0.1409
  984loPI   C3A15737   8.300   1.663   7.465 -0.1389 -0.0193 -0.2830
  984loPI   C4A15738   8.338   1.751   7.924  0.2288  0.0486  0.0688
  984loPI   C5A15739   8.316   1.710   8.375 -0.1604 -0.3231  0.2091
  984loPI   C6A15740   8.664   1.855   8.642  0.1232 -0.1601  0.1248
  984loPI   C1B15741   8.326   2.100   6.758 -0.1433 -0.1109 -0.0419
  984loPI   C2B15742   8.224   2.067   7.208  0.0088 -0.0128  0.0276
  984loPI   C3B15743   8.172   2.127   7.595 -0.2806 -0.3758 -0.1339
  984loPI   C4B15744   8.308   2.263   8.022 -0.0001  0.1199 -0.2229
  985loPI    C115745  13.567   3.599   5.426  0.1782  0.1167  0.0729
  985loPI    C215746  13.920   3.587   5.238  0.0968  0.0525 -0.0776
  985loPI    C315747  13.590   3.692   5.038  0.0648  0.3347  0.1170
  985loPI   PO415748  13.671   3.747   5.651  0.2784 -0.1179  0.1341
  985loPI   GL115749  13.573   3.683   6.078 -0.1366 -0.2762  0.1123
  985loPI   GL215750  13.854   3.410   6.091 -0.0510 -0.0639 -0.0051
  985loPI   C1A15751  13.537   3.491   6.527 -0.0476  0.0652  0.0005
  985loPI   C2A15752  13.570   3.530   6.983  0.1219  0.1803  0.1393
  985loPI   C3A15753  13.518   3.480   7.397  0.0960 -0.0501  0.1047
  985loPI   C4A15754  13.536   3.443   7.842  0.2314  0.0497 -0.0357
  985loPI   C5A15755  13.482   3.543   8.313 -0.2568 -0.1085 -0.0337
  985loPI   C6A15756  13.422   3.756   8.683  0.0346 -0.1201  0.4340
  985loPI   C1B15757  14.102   3.328   6.495  0.1134 -0.0480 -0.0436
  985loPI   C2B15758  13.999   3.256   6.907 -0.1989 -0.1494  0.3558
  985loPI   C3B15759  13.977   3.401   7.313  0.1255  0.0923 -0.3318
  985loPI   C4B15760  14.000   3.308   7.699  0.2730 -0.0708  0.1477
  986loPI    C115761  10.473   4.844   5.141  0.2434 -0.2787  0.1413
  986loPI    C215762  10.804   4.854   4.917  0.0393 -0.0727 -0.1570
  986loPI    C315763  10.523   5.136   4.873 -0.0107 -0.0339  0.3543
  986loPI   PO415764  10.567   4.882   5.451 -0.6704  0.3203 -0.1210
  986loPI   GL115765  10.432   4.673   5.892 -0.0754  0.2793 -0.1396
  986loPI   GL215766  10.220   4.754   5.981 -0.3640  0.1169  0.1495
  986loPI   C1A15767  10.664   4.569   6.288  0.1335  0.2531 -0.0066
  986loPI   C2A15768  10.748   4.523   6.620  0.0192  0.1236  0.1953
  986loPI   C3A15769  10.603   4.493   7.013  0.3076  0.1498  0.2917
  986loPI   C4A15770  10.584   4.602   7.482 -0.0410 -0.0752 -0.0045
  986loPI   C5A15771  10.457   4.597   7.873  0.0822 -0.0517  0.3564
  986loPI   C6A15772  10.213   4.752   8.207 -0.1439 -0.0343  0.0010
  986loPI   C1B15773  10.241   4.755   6.364 -0.1608 -0.0405  0.1575
  986loPI   C2B15774  10.143   4.717   6.834 -0.1092  0.1047 -0.0088
  986loPI   C3B15775  10.113   4.738   7.278  0.3381 -0.0541  0.0620
  986loPI   C4B15776   9.988   4.644   7.716 -0.2625  0.1202  0.1313
  987loPI    C115777  10.543   8.055   5.658 -0.1177 -0.1458 -0.1573
  987loPI    C215778  10.717   8.132   5.306  0.1410  0.1999  0.0399
  987loPI    C315779  10.320   8.167   5.345  0.0475 -0.3181 -0.3393
  987loPI   PO415780  10.717   8.214   5.859 -0.1070 -0.0373 -0.2578
  987loPI   GL115781  10.741   8.628   6.053  0.0911  0.0303 -0.0180
  987loPI   GL215782  10.504   8.584   6.141 -0.0934 -0.2396 -0.1249
  987loPI   C1A15783  10.930   8.757   6.452  0.0611 -0.1039  0.0671
  987loPI   C2A15784  10.863   8.783   6.932 -0.1267 -0.0980 -0.3124
  987loPI   C3A15785  10.923   8.816   7.359  0.0367  0.1082 -0.0980
  987loPI   C4A15786  10.856   8.755   7.792  0.0059 -0.2127 -0.0970
  987loPI   C5A15787  10.910   8.903   8.272  0.0458  0.3315  0.1713
  987loPI   C6A15788  11.126   9.014   8.682  0.1864  0.1246  0.1387
  987loPI   C1B15789  10.499   8.434   6.488  0.5050  0.2643  0.1343
  987loPI   C2B15790  10.506   8.394   6.903  0.1130 -0.1299 -0.1426
  987loPI   C3B15791  10.555   8.512   7.321 -0.3698 -0.0682  0.2258
  987loPI   C4B15792  10.520   8.421   7.733  0.2608  0.1887 -0.0682
  988loPI    C115793  10.998   8.835   5.684 -0.1062 -0.0141  0.0314
  988loPI    C215794  11.117   8.890   5.306 -0.0350  0.1699  0.0795
  988loPI    C315795  11.021   8.524   5.434 -0.0712  0.1085 -0.1199
  988loPI   PO415796  11.222   8.955   5.810  0.0391  0.1379  0.2051
  988loPI   GL115797  11.383   8.847   6.158 -0.1237  0.3314  0.4404
  988loPI   GL215798  11.412   9.181   6.323  0.0851  0.1199  0.0921
  988loPI   C1A15799  11.419   8.569   6.557 -0.0172 -0.1828 -0.0864
  988loPI   C2A15800  11.377   8.562   6.982  0.3119 -0.0121 -0.0010
  988loPI   C3A15801  11.386   8.566   7.326 -0.1008  0.5364 -0.2797
  988loPI   C4A15802  11.378   8.545   7.747  0.2078 -0.1987  0.0960
  988loPI   C5A15803  11.389   8.599   8.166  0.0947 -0.0432  0.0739
  988loPI   C6A15804  11.537   8.524   8.540 -0.0859 -0.0318  0.2281
  988loPI   C1B15805  11.334   9.062   6.684  0.1205  0.2679  0.0528
  988loPI   C2B15806  11.343   9.054   7.100  0.0707 -0.1049  0.0573
  988loPI   C3B15807  11.291   9.098   7.549 -0.2036  0.0840 -0.1138
  988loPI   C4B15808  11.292   9.055   7.940  0.6882 -0.1166 -0.1377
  989loPI    C115809  16.065  15.496   5.753 -0.0727  0.0590  0.0310
  989loPI    C215810  16.039  15.751   5.446 -0.0557  0.0265  0.0024
  989loPI    C315811  16.289  15.440   5.426 -0.0687  0.0136  0.0416
  989loPI   PO415812  16.056  15.706   5.953  0.0878 -0.0564  0.1329
  989loPI   GL115813  15.946  15.647   6.274  0.0379 -0.1433  0.0796
  989loPI   GL215814  16.182  15.546   6.467 -0.1812 -0.0683  0.2278
  989loPI   C1A15815  15.762  15.637   6.670 -0.2311  0.1886  0.0580
  989loPI   C2A15816  15.739  15.659   7.082 -0.1326  0.0063 -0.2594
  989loPI   C3A15817  15.737  15.670   7.417  0.0304 -0.0800  0.1523
  989loPI   C4A15818  15.746  15.666   7.859  0.2245  0.2506 -0.0375
  989loPI   C5A15819  15.620  15.633   8.332 -0.2913 -0.0712 -0.2933
  989loPI   C6A15820  15.778  15.831   8.648  0.1246  0.1221  0.0556
  989loPI   C1B15821  16.212  15.438   6.898 -0.1797 -0.0617  0.1404
  989loPI   C2B15822  16.255  15.352   7.288 -0.1555  0.0751  0.4797
  989loPI   C3B15823  16.136  15.404   7.645 -0.0127  0.1976 -0.1334
  989loPI   C4B15824  16.142  15.441   8.059  0.1750 -0.1513 -0.1000
  990loPI    C115825  10.978   5.251   5.563 -0.1126 -0.0459  0.1090
  990loPI    C215826  10.972   5.219   5.164 -0.1014  0.0368  0.1021
  990loPI    C315827  11.109   4.916   5.386  0.0261  0.0456  0.0365
  990loPI   PO415828  10.787   5.435   5.707  0.2322  0.1619  0.2907
  990loPI   GL115829  10.932   5.578   6.168 -0.1860 -0.2963 -0.0612
  990loPI   GL215830  11.101   5.273   6.097  0.0305  0.0777  0.2636
  990loPI   C1A15831  10.879   5.395   6.603 -0.0835 -0.2021 -0.0709
  990loPI   C2A15832  10.956   5.389   7.042  0.4037 -0.0511  0.0115
  990loPI   C3A15833  10.921   5.399   7.536  0.0518  0.0395  0.1985
  990loPI   C4A15834  10.769   5.404   7.939 -0.0845 -0.3010  0.1753
  990loPI   C5A15835  10.787   5.465   8.278 -0.0174 -0.3600 -0.1191
  990loPI   C6A15836  10.948   5.764   8.509  0.0956 -0.2665 -0.0916
  990loPI   C1B15837  11.024   4.967   6.445 -0.2614 -0.1389  0.0374
  990loPI   C2B15838  11.011   4.874   6.879  0.1565  0.3113 -0.1708
  990loPI   C3B15839  11.065   4.844   7.316  0.0975  0.2368  0.1061
  990loPI   C4B15840  10.977   4.902   7.700 -0.0139  0.2136  0.1536
  991loPI    C115841   4.829  15.253   5.486 -0.0382  0.2714  0.2033
  991loPI    C215842   4.529  15.399   5.266  0.0286  0.0976 -0.0065
  991loPI    C315843   4.859  15.262   5.087  0.0068 -0.2199  0.1903
  991loPI   PO415844   4.719  15.173   5.770 -0.2428 -0.1113 -0.1962
  991loPI   GL115845   4.645  15.231   6.208  0.0290  0.0731 -0.0056
  991loPI   GL215846   4.543  15.539   6.327 -0.2396  0.0111  0.1363
  991loPI   C1A15847   4.550  15.137   6.678  0.1397  0.0615  0.2620
  991loPI   C2A15848   4.462  15.185   7.124 -0.2599  0.3299 -0.1524
  991loPI   C3A15849   4.429  15.121   7.504  0.0135  0.1288 -0.1008
  991loPI   C4A15850   4.332  15.034   7.965  0.0433 -0.0385 -0.0263
  991loPI   C5A15851   4.026  15.241   8.258 -0.0233  0.4059  0.0250
  991loPI   C6A15852   3.945  15.178   8.572 -0.1095 -0.2211 -0.0256
  991loPI   C1B15853   4.398  15.644   6.758 -0.2200 -0.2052  0.4187
  991loPI   C2B15854   4.447  15.660   7.109 -0.2751 -0.2133  0.0045
  991loPI   C3B15855   4.339  15.628   7.476 -0.1225 -0.2191 -0.1625
  991loPI   C4B15856   4.313  15.598   7.946  0.1829  0.2989  0.1433
  992loPI    C115857   0.164   3.118   5.588 -0.1871  0.1371  0.0090
  992loPI    C215858  -0.012   3.270   5.263 -0.1097  0.2495  0.0188
  992loPI    C315859   0.360   3.381   5.359 -0.0328  0.0150 -0.0009
  992loPI   PO415860   0.017   3.014   5.793  0.0315  0.0849 -0.0819
  992loPI   GL115861   0.161   3.087   6.165 -0.1411  0.0354 -0.2615
  992loPI   GL215862  -0.042   2.862   6.291  0.1305 -0.0248 -0.1043
  992loPI   C1A15863   0.327   3.140   6.557 -0.0013  0.1655  0.0230
  992loPI   C2A15864   0.345   3.182   7.009  0.2111  0.0903  0.1452
  992loPI   C3A15865   0.295   3.246   7.424  0.0544  0.3301 -0.0501
  992loPI   C4A15866   0.427   3.258   7.857 -0.0879 -0.0896 -0.1869
  992loPI   C5A15867   0.376   3.253   8.339 -0.0242 -0.0376 -0.0973
  992loPI   C6A15868   0.075   3.274   8.633 -0.2108 -0.0658  0.3724
  992loPI   C1B15869  -0.031   2.837   6.700 -0.0506  0.0491  0.1131
  992loPI   C2B15870  -0.053   2.909   7.234  0.3701 -0.1572  0.0839
  992loPI   C3B15871  -0.151   2.918   7.726 -0.0617  0.1818  0.1316
  992loPI   C4B15872  -0.076   2.945   8.211 -0.1122 -0.1487 -0.0350
  993loPI    C115873  17.805  15.747   5.530 -0.0345 -0.1069 -0.1345
  993loPI    C215874  17.405  15.722   5.532 -0.0230 -0.3031  0.0783
  993loPI    C315875  17.617  15.515   5.264 -0.0680 -0.0983 -0.1185
  993loPI   PO415876  17.856  15.740   5.782  0.0372  0.1433 -0.2011
  993loPI   GL115877  18.254  15.605   6.018 -0.0479 -0.3404  0.0323
  993loPI   GL215878  18.242  15.958   6.031  0.0108  0.1112  0.2098
  993loPI   C1A15879  18.041  15.742   6.412  0.0971 -0.1503  0.0278
  993loPI   C2A15880  18.037  15.721   6.859  0.2178 -0.0684  0.1673
  993loPI   C3A15881  18.039  15.794   7.299 -0.2851  0.1537 -0.1633
  993loPI   C4A15882  18.016  15.802   7.665  0.0595  0.2068 -0.0780
  993loPI   C5A15883  17.999  15.792   8.086  0.0972  0.1745 -0.3989
  993loPI   C6A15884  17.824  15.600   8.429  0.0917  0.2879 -0.1972
  993loPI   C1B15885  18.487  16.032   6.406 -0.2747 -0.1085 -0.0926
  993loPI   C2B15886  18.367  16.066   6.799 -0.3054 -0.1324 -0.2696
  993loPI   C3B15887  18.359  16.118   7.199 -0.0295  0.1584 -0.1516
  993loPI   C4B15888  18.396  16.132   7.617  0.0574  0.0640  0.0091
  994loPI    C115889   4.509   6.622   5.681 -0.1413 -0.0021  0.1367
  994loPI    C215890   4.771   6.796   5.433  0.0615 -0.1983  0.2094
  994loPI    C315891   4.393   6.735   5.315  0.1008 -0.0982  0.0284
  994loPI   PO415892   4.579   6.838   5.967  0.0487 -0.1812  0.1010
  994loPI   GL115893   4.758   6.978   6.330  0.2239 -0.0799  0.0648
  994loPI   GL215894   4.429   6.915   6.418 -0.0393  0.0749  0.2041
  994loPI   C1A15895   4.789   6.816   6.722  0.4724  0.0394 -0.1667
  994loPI   C2A15896   4.734   6.798   7.169 -0.0792 -0.0584 -0.2565
  994loPI   C3A15897   4.746   6.823   7.623 -0.3895  0.0791  0.1276
  994loPI   C4A15898   4.869   6.924   8.029 -0.0762  0.1979  0.1129
  994loPI   C5A15899   5.048   7.279   8.332 -0.0234 -0.1495  0.3742
  994loPI   C6A15900   5.463   7.503   8.235  0.5741 -0.1473 -0.0127
  994loPI   C1B15901   4.209   6.961   6.922  0.2965  0.0592 -0.3197
  994loPI   C2B15902   4.275   7.000   7.359 -0.0391  0.0914  0.1237
  994loPI   C3B15903   4.322   6.990   7.804  0.1599  0.1434  0.0776
  994loPI   C4B15904   4.276   6.945   8.212 -0.5018 -0.1037  0.0475
  995loPI    C115905   4.554   6.134   5.604  0.0999 -0.2074  0.1290
  995loPI    C215906   4.707   5.908   5.312  0.2006 -0.0146  0.0306
  995loPI    C315907   4.490   6.231   5.221  0.0921 -0.0478  0.1701
  995loPI   PO415908   4.696   6.181   5.706 -0.2543 -0.0085  0.1732
  995loPI   GL115909   4.979   6.172   6.064  0.1014  0.0632  0.0859
  995loPI   GL215910   4.696   6.405   6.140  0.0285 -0.2179  0.1147
  995loPI   C1A15911   5.048   5.853   6.290  0.4093  0.2273 -0.0531
  995loPI   C2A15912   4.965   5.897   6.769  0.0821 -0.2042  0.3196
  995loPI   C3A15913   4.994   5.906   7.127  0.3187  0.0086  0.3412
  995loPI   C4A15914   4.940   5.786   7.565  0.1675 -0.1086 -0.1152
  995loPI   C5A15915   4.852   5.829   7.971 -0.0288 -0.0624  0.0247
  995loPI   C6A15916   4.754   5.803   8.320  0.1350  0.1581 -0.0413
  995loPI   C1B15917   4.846   6.332   6.533 -0.1097  0.0408 -0.0002
  995loPI   C2B15918   4.917   6.359   6.986 -0.0332 -0.3890  0.0575
  995loPI   C3B15919   4.851   6.302   7.438 -0.4053  0.1676  0.0720
  995loPI   C4B15920   4.781   6.343   7.846  0.2084  0.1569 -0.2708
  996loPI    C115921  12.900  15.584   5.520 -0.0133 -0.1276 -0.0236
  996loPI    C215922  12.986  15.199   5.459  0.1770 -0.0824 -0.0482
  996loPI    C315923  12.872  15.429   5.153  0.0958 -0.1102 -0.0394
  996loPI   PO415924  12.880  15.526   5.809 -0.0745  0.0172 -0.3323
  996loPI   GL115925  12.792  15.739   6.187 -0.2926  0.1693  0.2594
  996loPI   GL215926  12.525  15.593   6.146 -0.2017 -0.0186 -0.0397
  996loPI   C1A15927  12.922  15.627   6.649  0.0972  0.0600 -0.0957
  996loPI   C2A15928  12.924  15.705   7.105 -0.3797  0.0635 -0.1929
  996loPI   C3A15929  13.020  15.694   7.569  0.0655 -0.0990  0.1638
  996loPI   C4A15930  13.085  15.695   7.988 -0.0851  0.2905  0.3715
  996loPI   C5A15931  12.819  15.769   8.299  0.0904 -0.1730 -0.2747
  996loPI   C6A15932  12.444  15.503   8.356  0.2057 -0.1177  0.2347
  996loPI   C1B15933  12.591  15.287   6.454  0.0388 -0.0633  0.0205
  996loPI   C2B15934  12.526  15.393   6.894  0.1994 -0.0329  0.3288
  996loPI   C3B15935  12.655  15.359   7.350 -0.2774 -0.3825 -0.2988
  996loPI   C4B15936  12.628  15.332   7.890 -0.1269  0.0544  0.3335
  997loPI    C115937   5.117   3.182   5.842  0.0396  0.0868 -0.0008
  997loPI    C215938   5.127   3.451   5.546  0.1638  0.0001 -0.0764
  997loPI    C315939   5.198   3.065   5.468  0.1430 -0.0312  0.0578
  997loPI   PO415940   5.271   3.257   6.064  0.2408 -0.2088  0.0164
  997loPI   GL115941   5.426   3.135   6.470  0.1181  0.1076 -0.0999
  997loPI   GL215942   5.544   2.732   6.400 -0.0989  0.0723 -0.0074
  997loPI   C1A15943   5.405   3.191   6.908  0.2796  0.2455 -0.0703
  997loPI   C2A15944   5.356   3.386   7.348 -0.0411 -0.1715  0.1481
  997loPI   C3A15945   5.284   3.346   7.756  0.2579  0.0153 -0.2569
  997loPI   C4A15946   5.167   3.154   8.198  0.2320  0.2995  0.0063
  997loPI   C5A15947   5.466   3.167   8.591  0.0003 -0.0615 -0.1524
  997loPI   C6A15948   5.332   3.251   9.002 -0.2438 -0.0987 -0.1364
  997loPI   C1B15949   5.438   2.667   6.799 -0.1821 -0.1048  0.0386
  997loPI   C2B15950   5.406   2.707   7.230  0.0808  0.0162  0.3020
  997loPI   C3B15951   5.404   2.824   7.694  0.0363 -0.3318 -0.0104
  997loPI   C4B15952   5.607   2.758   8.210  0.3068  0.0231  0.1594
  998loPI    C115953   9.298  15.428   5.363 -0.0251  0.1510 -0.0457
  998loPI    C215954   9.033  15.359   5.071 -0.1857  0.0902  0.1127
  998loPI    C315955   9.235  15.055   5.233  0.1475  0.1602 -0.1593
  998loPI   PO415956   9.097  15.582   5.623  0.1783  0.1672 -0.2154
  998loPI   GL115957   8.927  15.526   6.034 -0.1064 -0.1415 -0.2370
  998loPI   GL215958   9.210  15.437   6.144 -0.0186 -0.0285  0.3450
  998loPI   C1A15959   8.789  15.819   6.380  0.0424 -0.1762 -0.2424
  998loPI   C2A15960   8.811  15.799   6.839  0.0912 -0.1474 -0.0129
  998loPI   C3A15961   8.872  15.794   7.368 -0.0981 -0.4539 -0.1112
  998loPI   C4A15962   8.973  15.923   7.774 -0.2820  0.3886 -0.2254
  998loPI   C5A15963   8.848  15.940   8.188 -0.1464  0.0150 -0.1843
  998loPI   C6A15964   8.560  16.103   8.532  0.0788 -0.1024  0.0012
  998loPI   C1B15965   9.236  15.571   6.496  0.0103  0.2198 -0.0777
  998loPI   C2B15966   9.269  15.547   6.935 -0.0506 -0.0353 -0.0793
  998loPI   C3B15967   9.385  15.639   7.372 -0.2462  0.2176 -0.1693
  998loPI   C4B15968   9.421  15.734   7.844  0.2700  0.0858  0.0336
  999loPI    C115969   5.205   2.492   5.450  0.0270  0.1576  0.0959
  999loPI    C215970   4.895   2.683   5.286  0.0641  0.0768 -0.0696
  999loPI    C315971   5.109   2.425   5.068  0.2445  0.1283  0.0451
  999loPI   PO415972   5.185   2.627   5.781 -0.1705 -0.1857  0.2773
  999loPI   GL115973   5.143   2.542   6.174  0.0204 -0.2274  0.1324
  999loPI   GL215974   5.007   2.783   6.193  0.0631 -0.2312 -0.0134
  999loPI   C1A15975   5.075   2.301   6.480  0.0852 -0.2520 -0.0944
  999loPI   C2A15976   5.080   2.405   6.958  0.2082  0.0677  0.3811
  999loPI   C3A15977   5.022   2.445   7.335  0.2471 -0.1182  0.0641
  999loPI   C4A15978   5.053   2.482   7.768  0.0281 -0.1595  0.0927
  999loPI   C5A15979   5.117   2.624   8.103  0.2397 -0.0194 -0.0807
  999loPI   C6A15980   4.973   2.798   8.508  0.1248  0.0652  0.0896
  999loPI   C1B15981   4.969   2.820   6.600 -0.1099  0.0967  0.1359
  999loPI   C2B15982   4.967   2.915   7.028  0.2820 -0.0237 -0.0063
  999loPI   C3B15983   4.999   3.007   7.368  0.0338  0.1777 -0.4176
  999loPI   C4B15984   4.891   2.980   7.812 -0.1385 -0.4820 -0.1579
 1000loPI    C115985  10.022  16.319   5.401 -0.1522 -0.1487 -0.0278
 1000loPI    C215986  10.160  15.944   5.378 -0.0734 -0.1011 -0.3922
 1000loPI    C315987   9.893  16.076   5.111 -0.0836  0.1101 -0.2800
 1000loPI   PO415988   9.835  16.399   5.644 -0.2752  0.2241  0.2662
 1000loPI   GL115989   9.922  16.586   6.014  0.0264  0.1731  0.3625
 1000loPI   GL215990   9.699  16.375   6.149 -0.0410  0.2138  0.0239
 1000loPI   C1A15991  10.072  16.784   6.457  0.1676  0.2864 -0.1080
 1000loPI   C2A15992  10.009  16.726   6.941 -0.0334 -0.1254 -0.3542
 1000loPI   C3A15993  10.078  16.834   7.414 -0.3107  0.1532  0.1636
 1000loPI   C4A15994  10.178  16.864   7.798 -0.3144 -0.1914 -0.1378
 1000loPI   C5A15995  10.226  16.841   8.228  0.1013 -0.0580  0.1225
 1000loPI   C6A15996  10.147  16.677   8.638 -0.0886  0.0809 -0.2485
 1000loPI   C1B15997   9.685  16.371   6.581  0.2442 -0.1289  0.1636
 1000loPI   C2B15998   9.614  16.407   7.060 -0.2028  0.2276  0.0948
 1000loPI   C3B15999   9.601  16.480   7.483  0.2850  0.3301  0.1183
 1000loPI   C4B16000   9.712  16.558   7.886  0.2268 -0.3343 -0.0483
 1001loPI    C116001  17.162  13.158   5.645  0.1682  0.1927 -0.0143
 1001loPI    C216002  17.493  12.989   5.498  0.1100  0.1257 -0.0695
 1001loPI    C316003  17.134  12.884   5.355  0.0578  0.1188  0.0645
 1001loPI   PO416004  17.266  13.262   5.928  0.1035  0.1763  0.2222
 1001loPI   GL116005  17.128  13.277   6.246 -0.1825 -0.1358  0.0460
 1001loPI   GL216006  17.292  13.585   6.309 -0.0818 -0.3783 -0.0721
 1001loPI   C1A16007  17.154  13.273   6.755  0.1547  0.0268  0.0295
 1001loPI   C2A16008  17.020  13.252   7.174 -0.3480  0.1493 -0.2375
 1001loPI   C3A16009  17.117  13.276   7.597  0.1997  0.0387 -0.0024
 1001loPI   C4A16010  17.010  13.316   8.110  0.1409 -0.0642  0.0544
 1001loPI   C5A16011  17.129  13.212   8.500  0.2265 -0.0161 -0.0593
 1001loPI   C6A16012  17.197  13.323   8.916  0.1820 -0.0252  0.0752
 1001loPI   C1B16013  17.530  13.661   6.696  0.2313  0.0521  0.0767
 1001loPI   C2B16014  17.472  13.554   7.131 -0.2423  0.0706 -0.0838
 1001loPI   C3B16015  17.483  13.621   7.519 -0.1920 -0.0792 -0.2924
 1001loPI   C4B16016  17.439  13.587   7.882  0.0864  0.0076  0.4117
 1002loPI    C116017  11.091  15.611   5.315  0.0321 -0.1176  0.2277
 1002loPI    C216018  11.441  15.661   5.127 -0.0657  0.3163  0.1507
 1002loPI    C316019  11.162  15.421   4.970  0.0905  0.1866  0.0687
 1002loPI   PO416020  11.146  15.615   5.526 -0.1944 -0.0828 -0.0871
 1002loPI   GL116021  11.047  15.621   5.918 -0.2831  0.1781  0.1286
 1002loPI   GL216022  10.812  15.512   6.067 -0.1364  0.0732 -0.3009
 1002loPI   C1A16023  11.216  15.384   6.340 -0.4128 -0.2189 -0.0511
 1002loPI   C2A16024  11.180  15.259   6.782  0.0519 -0.0649  0.2707
 1002loPI   C3A16025  11.206  15.331   7.236  0.3381  0.2299  0.2398
 1002loPI   C4A16026  11.140  15.458   7.666 -0.1697  0.1714  0.0427
 1002loPI   C5A16027  11.165  15.462   8.057 -0.2546  0.2031 -0.0430
 1002loPI   C6A16028  11.371  15.662   8.455 -0.3363  0.1824  0.0253
 1002loPI   C1B16029  10.765  15.477   6.533  0.0199  0.1203  0.1220
 1002loPI   C2B16030  10.728  15.515   6.974 -0.1850 -0.3519 -0.0809
 1002loPI   C3B16031  10.678  15.566   7.359 -0.1010 -0.2788 -0.3349
 1002loPI   C4B16032  10.677  15.643   7.856 -0.2334  0.3765 -0.1037
 1003loPI    C116033   9.749  14.178   5.769 -0.1340  0.0844 -0.0874
 1003loPI    C216034   9.869  14.392   5.454 -0.3048 -0.0334 -0.2341
 1003loPI    C316035   9.876  13.993   5.438  0.0267 -0.0432  0.0434
 1003loPI   PO416036   9.928  14.435   5.987  0.1958  0.1739 -0.2304
 1003loPI   GL116037  10.081  14.461   6.380 -0.0199  0.1028  0.0126
 1003loPI   GL216038  10.261  14.203   6.324 -0.3580 -0.2827 -0.1049
 1003loPI   C1A16039  10.052  14.413   6.760  0.0272 -0.0444  0.0462
 1003loPI   C2A16040  10.036  14.309   7.177 -0.2775 -0.1154 -0.0086
 1003loPI   C3A16041   9.970  14.430   7.639 -0.1152  0.0671 -0.5453
 1003loPI   C4A16042  10.054  14.323   8.114  0.0866 -0.1997 -0.0623
 1003loPI   C5A16043  10.226  14.156   8.538  0.1251 -0.0854 -0.1044
 1003loPI   C6A16044  10.139  13.830   8.869  0.0356 -0.2588  0.0161
 1003loPI   C1B16045  10.164  13.955   6.547 -0.1734  0.0573  0.1321
 1003loPI   C2B16046  10.204  13.889   6.955 -0.0625  0.2617  0.2098
 1003loPI   C3B16047  10.102  13.842   7.304  0.0791 -0.1098  0.0315
 1003loPI   C4B16048  10.037  13.894   7.769 -0.0840  0.2775 -0.0904
 1004loPI    C116049  13.287  13.525   5.382 -0.2215  0.2101 -0.1740
 1004loPI    C216050  12.980  13.420   5.147 -0.0983  0.0515 -0.2663
 1004loPI    C316051  13.335  13.511   4.985 -0.0482  0.0668 -0.1491
 1004loPI   PO416052  13.132  13.364   5.698  0.0361 -0.1284  0.1716
 1004loPI   GL116053  13.318  13.302   5.952 -0.0458 -0.1754  0.1858
 1004loPI   GL216054  13.662  13.115   6.092  0.0661 -0.1213  0.0324
 1004loPI   C1A16055  13.381  13.553   6.267  0.2100 -0.0616  0.2420
 1004loPI   C2A16056  13.405  13.676   6.691 -0.1106  0.1761 -0.3013
 1004loPI   C3A16057  13.281  13.622   7.189 -0.1748  0.1203  0.0429
 1004loPI   C4A16058  13.336  13.610   7.598 -0.3220  0.0691  0.4663
 1004loPI   C5A16059  13.266  13.555   8.149 -0.1530 -0.0396 -0.0560
 1004loPI   C6A16060  13.029  13.273   8.285  0.0197 -0.0278  0.0370
 1004loPI   C1B16061  13.517  13.148   6.549 -0.1348  0.2434 -0.0106
 1004loPI   C2B16062  13.436  13.109   6.931  0.1038 -0.2028  0.3306
 1004loPI   C3B16063  13.383  13.049   7.386 -0.0772 -0.2806 -0.0193
 1004loPI   C4B16064  13.343  13.065   7.772  0.1554  0.0150 -0.1609
 1005loPI    C116065   8.396  10.423   5.729 -0.1537 -0.0260  0.0478
 1005loPI    C216066   8.195  10.376   5.386 -0.2019  0.0225  0.0691
 1005loPI    C316067   8.593  10.332   5.393 -0.2452 -0.4112  0.0931
 1005loPI   PO416068   8.253  10.347   6.059 -0.0954 -0.0939 -0.2045
 1005loPI   GL116069   7.967  10.461   6.298 -0.1256  0.1504  0.2361
 1005loPI   GL216070   8.087  10.120   6.464  0.1093 -0.1703 -0.0039
 1005loPI   C1A16071   7.945  10.499   6.790 -0.3496 -0.0653  0.2260
 1005loPI   C2A16072   7.866  10.477   7.195 -0.3761 -0.1713 -0.1747
 1005loPI   C3A16073   7.964  10.403   7.688 -0.1794 -0.0258  0.2284
 1005loPI   C4A16074   7.948  10.379   8.075 -0.0244 -0.0724  0.1656
 1005loPI   C5A16075   8.084  10.415   8.415 -0.3126 -0.1910 -0.2615
 1005loPI   C6A16076   8.296  10.390   8.698  0.0667 -0.1123  0.0341
 1005loPI   C1B16077   8.146   9.892   6.885  0.1983  0.0668  0.4305
 1005loPI   C2B16078   8.394   9.731   7.152  0.1807  0.1017 -0.0527
 1005loPI   C3B16079   8.460   9.684   7.586  0.1541  0.0507 -0.1332
 1005loPI   C4B16080   8.437   9.679   8.025  0.1171 -0.0613 -0.0316
 1006loPI    C116081  15.800   8.838   5.919 -0.2787 -0.2387  0.0530
 1006loPI    C216082  15.685   8.825   5.536 -0.1356  0.1220 -0.0060
 1006loPI    C316083  15.719   9.177   5.723 -0.0749 -0.0432  0.3006
 1006loPI   PO416084  15.650   8.655   6.103  0.1492  0.3734  0.2035
 1006loPI   GL116085  15.558   8.641   6.454  0.0698 -0.0675 -0.0447
 1006loPI   GL216086  15.804   8.880   6.513 -0.0212  0.1645 -0.2682
 1006loPI   C1A16087  15.481   8.560   6.780 -0.2120  0.1283 -0.1809
 1006loPI   C2A16088  15.400   8.470   7.134  0.4783  0.1336  0.1350
 1006loPI   C3A16089  15.415   8.580   7.522  0.0854 -0.1733 -0.1556
 1006loPI   C4A16090  15.437   8.496   7.899  0.1332  0.0226  0.1386
 1006loPI   C5A16091  15.359   8.385   8.297 -0.3022 -0.0048 -0.3650
 1006loPI   C6A16092  15.277   8.754   8.524 -0.1679 -0.0366 -0.0106
 1006loPI   C1B16093  15.892   8.856   6.888 -0.1117 -0.3486 -0.1807
 1006loPI   C2B16094  15.845   8.838   7.353  0.3508  0.4536  0.2342
 1006loPI   C3B16095  15.807   8.843   7.840 -0.0828 -0.1308  0.0509
 1006loPI   C4B16096  15.737   8.743   8.279 -0.0158  0.0533  0.0560
 1007loPI    C116097   5.362   6.333   5.528  0.3658 -0.0338 -0.1507
 1007loPI    C216098   5.223   6.037   5.298  0.1249 -0.2370  0.2462
 1007loPI    C316099   5.000   6.364   5.360  0.2884 -0.0769  0.0064
 1007loPI   PO416100   5.377   6.296   5.714  0.4515 -0.1995  0.0355
 1007loPI   GL116101   5.540   6.201   6.010 -0.0259 -0.3203 -0.0413
 1007loPI   GL216102   5.536   5.889   6.143 -0.0019  0.1113 -0.1316
 1007loPI   C1A16103   5.317   6.264   6.470 -0.0397  0.1708  0.1883
 1007loPI   C2A16104   5.395   6.191   6.941 -0.2423 -0.1710  0.2928
 1007loPI   C3A16105   5.317   6.161   7.344  0.0625  0.0400  0.0631
 1007loPI   C4A16106   5.276   6.161   7.832  0.2542  0.0276 -0.2873
 1007loPI   C5A16107   5.393   6.005   8.229  0.3295 -0.0871 -0.2211
 1007loPI   C6A16108   5.725   6.017   8.715  0.0095  0.0532  0.2760
 1007loPI   C1B16109   5.806   6.002   6.467  0.2829 -0.2848 -0.2909
 1007loPI   C2B16110   5.835   6.007   6.913 -0.3124  0.1207  0.1049
 1007loPI   C3B16111   5.803   6.051   7.346  0.0403 -0.2047  0.0181
 1007loPI   C4B16112   5.839   6.029   7.763 -0.2076  0.1352  0.0877
 1008loPI    C116113   3.191   5.794   5.469 -0.0193  0.1325 -0.1039
 1008loPI    C216114   3.089   5.426   5.349  0.2214 -0.0181  0.1421
 1008loPI    C316115   3.243   5.687   5.087  0.0014 -0.0727 -0.0446
 1008loPI   PO416116   3.335   5.696   5.684 -0.3407  0.1453 -0.2253
 1008loPI   GL116117   3.232   5.697   6.108 -0.1440  0.0931  0.1946
 1008loPI   GL216118   3.087   5.346   6.182  0.0929  0.0848 -0.0767
 1008loPI   C1A16119   3.408   5.839   6.439 -0.0510 -0.1259  0.1216
 1008loPI   C2A16120   3.562   5.776   6.832  0.0388  0.2317  0.2074
 1008loPI   C3A16121   3.654   5.770   7.258  0.0309  0.1279  0.0456
 1008loPI   C4A16122   3.556   5.857   7.679  0.3864 -0.0050 -0.2526
 1008loPI   C5A16123   3.521   5.784   8.130 -0.0491 -0.1205  0.2589
 1008loPI   C6A16124   3.646   5.396   8.381  0.3063 -0.1790 -0.0037
 1008loPI   C1B16125   3.183   5.355   6.633 -0.0262  0.2336  0.2177
 1008loPI   C2B16126   3.162   5.508   7.044 -0.0666 -0.0797 -0.2209
 1008loPI   C3B16127   3.216   5.536   7.477 -0.0653  0.0124  0.2505
 1008loPI   C4B16128   3.205   5.423   7.913  0.2533  0.0157 -0.2978
 1009loPI    C116129  17.014   5.434   5.624  0.0280 -0.2714 -0.1743
 1009loPI    C216130  17.299   5.628   5.826 -0.4248  0.1838  0.0501
 1009loPI    C316131  17.253   5.692   5.434 -0.2114  0.0939  0.0089
 1009loPI   PO416132  16.961   5.224   5.858  0.0225  0.3125 -0.2006
 1009loPI   GL116133  16.963   5.153   6.155 -0.1247 -0.0649  0.2432
 1009loPI   GL216134  17.004   4.841   6.205  0.1585 -0.2328 -0.2090
 1009loPI   C1A16135  17.036   5.097   6.616 -0.2531 -0.1310  0.0292
 1009loPI   C2A16136  16.916   5.036   7.003  0.2850  0.1261 -0.0448
 1009loPI   C3A16137  16.866   5.149   7.417 -0.0963 -0.0782  0.0834
 1009loPI   C4A16138  16.881   5.166   7.893  0.4746  0.1882  0.0235
 1009loPI   C5A16139  16.813   5.107   8.358 -0.1312  0.0220  0.0941
 1009loPI   C6A16140  16.515   4.924   8.429 -0.0338 -0.0198  0.2200
 1009loPI   C1B16141  17.011   4.584   6.540 -0.0016 -0.0175 -0.0046
 1009loPI   C2B16142  16.970   4.573   6.937  0.3336  0.2193  0.0487
 1009loPI   C3B16143  16.931   4.667   7.376  0.0053 -0.0757 -0.0574
 1009loPI   C4B16144  16.968   4.677   7.788 -0.2067 -0.1101  0.1971
 1010loPI    C116145   1.864   4.494   5.906 -0.1893 -0.0056  0.0438
 1010loPI    C216146   2.105   4.674   5.642 -0.2557 -0.1953 -0.1485
 1010loPI    C316147   1.860   4.381   5.522 -0.1875 -0.3785  0.1501
 1010loPI   PO416148   2.012   4.498   6.120 -0.2509 -0.0439 -0.1646
 1010loPI   GL116149   2.020   4.571   6.479 -0.0275  0.0534 -0.2742
 1010loPI   GL216150   2.272   4.762   6.496 -0.4179 -0.3432 -0.1385
 1010loPI   C1A16151   1.940   4.542   6.913  0.0772  0.0412  0.1702
 1010loPI   C2A16152   1.971   4.557   7.388 -0.2517  0.1371  0.0807
 1010loPI   C3A16153   1.963   4.509   7.812 -0.5358 -0.1748 -0.0193
 1010loPI   C4A16154   1.883   4.580   8.298 -0.1338 -0.2346  0.3303
 1010loPI   C5A16155   2.073   4.697   8.668 -0.0932 -0.0566 -0.0448
 1010loPI   C6A16156   2.363   5.072   8.715 -0.1613  0.1337 -0.0126
 1010loPI   C1B16157   2.342   4.866   6.936  0.0554 -0.3162 -0.0003
 1010loPI   C2B16158   2.400   4.719   7.322  0.0891  0.3136  0.1830
 1010loPI   C3B16159   2.446   4.727   7.750 -0.0611  0.1120 -0.0981
 1010loPI   C4B16160   2.341   4.825   8.154  0.3149 -0.0417  0.1430
 1011loPI    C116161   2.396   2.714   5.757  0.3099 -0.0525 -0.2369
 1011loPI    C216162   2.396   2.955   5.438  0.0354  0.0677 -0.1499
 1011loPI    C316163   2.185   2.615   5.432 -0.1515  0.1802 -0.0176
 1011loPI   PO416164   2.328   2.773   5.975  0.0279 -0.2495 -0.0248
 1011loPI   GL116165   2.475   2.940   6.273 -0.2592 -0.1597  0.1073
 1011loPI   GL216166   2.664   2.735   6.427  0.4313 -0.2101  0.2059
 1011loPI   C1A16167   2.187   2.924   6.571  0.0927 -0.1012  0.3318
 1011loPI   C2A16168   2.206   2.902   6.999  0.0018  0.1066  0.1610
 1011loPI   C3A16169   2.139   2.992   7.481  0.0541  0.0621 -0.1316
 1011loPI   C4A16170   2.159   2.996   7.895 -0.2345 -0.1973  0.0051
 1011loPI   C5A16171   2.095   3.118   8.246 -0.0927  0.1838  0.1853
 1011loPI   C6A16172   2.178   2.884   8.638  0.0237 -0.1415  0.2093
 1011loPI   C1B16173   2.617   2.755   6.770  0.0972 -0.0709  0.0134
 1011loPI   C2B16174   2.702   2.765   7.249 -0.4990 -0.0729  0.3170
 1011loPI   C3B16175   2.629   2.781   7.718  0.1110  0.1469 -0.1477
 1011loPI   C4B16176   2.519   2.723   8.102  0.2276 -0.3104 -0.1425
 1012loPI    C116177   5.282  14.615   5.837 -0.3898  0.1040  0.1143
 1012loPI    C216178   5.171  14.912   5.593  0.0035  0.1372 -0.0321
 1012loPI    C316179   5.229  14.544   5.447  0.1503  0.1362  0.0268
 1012loPI   PO416180   5.496  14.643   5.959  0.0085 -0.3230 -0.0538
 1012loPI   GL116181   5.642  14.631   6.299 -0.2281 -0.2199 -0.3426
 1012loPI   GL216182   6.035  14.566   6.401  0.1527  0.2335 -0.0006
 1012loPI   C1A16183   5.430  14.718   6.764  0.0120  0.0858  0.1633
 1012loPI   C2A16184   5.470  14.706   7.181 -0.0655  0.0088 -0.3218
 1012loPI   C3A16185   5.388  14.785   7.638  0.4146  0.4157 -0.1070
 1012loPI   C4A16186   5.233  14.907   7.994 -0.3927  0.1148 -0.0467
 1012loPI   C5A16187   5.202  14.613   8.261 -0.1218 -0.0940  0.2416
 1012loPI   C6A16188   5.337  14.444   8.646 -0.0881  0.0083 -0.1702
 1012loPI   C1B16189   5.908  14.556   6.885 -0.0047  0.1288  0.3876
 1012loPI   C2B16190   5.916  14.544   7.399  0.0087 -0.2151  0.2813
 1012loPI   C3B16191   5.808  14.575   7.812  0.2891 -0.0757 -0.0154
 1012loPI   C4B16192   5.677  14.522   8.206 -0.3077 -0.0248 -0.2319
 1013loPI    C116193   0.733   6.162   5.546 -0.0018 -0.0968 -0.1041
 1013loPI    C216194   0.505   5.884   5.371 -0.0454  0.0360 -0.2605
 1013loPI    C316195   0.475   6.267   5.259 -0.0161  0.1112 -0.0168
 1013loPI   PO416196   0.786   6.101   5.809  0.1467 -0.4106 -0.3472
 1013loPI   GL116197   0.681   6.152   6.181  0.0448  0.0062  0.4395
 1013loPI   GL216198   0.786   6.466   6.205 -0.0365 -0.0670 -0.1765
 1013loPI   C1A16199   0.449   5.997   6.508  0.1881  0.1892 -0.0691
 1013loPI   C2A16200   0.402   6.056   6.839 -0.0745  0.0264  0.0871
 1013loPI   C3A16201   0.266   6.024   7.147 -0.0003 -0.0325  0.0081
 1013loPI   C4A16202   0.286   6.132   7.523 -0.1701  0.0846  0.0304
 1013loPI   C5A16203   0.316   6.095   8.023 -0.3851  0.1597  0.1907
 1013loPI   C6A16204   0.671   5.957   8.346 -0.1722 -0.0825  0.1730
 1013loPI   C1B16205   0.788   6.406   6.645  0.3329  0.0683  0.2026
 1013loPI   C2B16206   0.772   6.324   7.055 -0.0888 -0.0664 -0.0708
 1013loPI   C3B16207   0.706   6.387   7.438 -0.0816  0.2761 -0.0121
 1013loPI   C4B16208   0.648   6.499   7.880  0.4108 -0.0392  0.2200
 1014loPI    C116209   4.617   3.375   5.622 -0.0470  0.1424  0.0813
 1014loPI    C216210   4.693   3.535   5.263 -0.4214  0.0516 -0.0431
 1014loPI    C316211   4.730   3.141   5.318 -0.2761  0.0767  0.0446
 1014loPI   PO416212   4.688   3.595   5.798 -0.3200  0.1186  0.0371
 1014loPI   GL116213   4.589   3.864   6.120  0.2456 -0.1654 -0.1069
 1014loPI   GL216214   4.804   3.867   6.424  0.0757 -0.2329 -0.0859
 1014loPI   C1A16215   4.405   3.537   6.427 -0.1014  0.0123  0.0973
 1014loPI   C2A16216   4.351   3.647   6.864  0.0893 -0.0567  0.0545
 1014loPI   C3A16217   4.367   3.644   7.366  0.0684 -0.1162  0.0063
 1014loPI   C4A16218   4.316   3.695   7.798 -0.1539  0.2211 -0.3341
 1014loPI   C5A16219   4.313   3.507   8.183  0.3636  0.0432 -0.0371
 1014loPI   C6A16220   4.168   3.071   8.261  0.2427 -0.3151  0.1269
 1014loPI   C1B16221   4.736   3.922   6.862 -0.1773  0.0945 -0.1923
 1014loPI   C2B16222   4.783   3.994   7.294  0.0398  0.2052  0.0586
 1014loPI   C3B16223   4.736   4.057   7.733  0.0392  0.1021 -0.3183
 1014loPI   C4B16224   4.771   3.999   8.223 -0.4624  0.0941  0.0051
 1015loPI    C116225  11.245   7.900   5.733 -0.0092 -0.1326 -0.3964
 1015loPI    C216226  11.527   8.139   5.579 -0.0653  0.1294 -0.1034
 1015loPI    C316227  11.196   8.058   5.368 -0.0006  0.2301 -0.2453
 1015loPI   PO416228  11.238   7.949   5.974  0.1366 -0.0072 -0.2236
 1015loPI   GL116229  11.022   7.852   6.363 -0.0641 -0.1644 -0.2080
 1015loPI   GL216230  10.961   8.236   6.327 -0.1942  0.0220  0.0355
 1015loPI   C1A16231  11.032   7.857   6.765  0.3783 -0.3606  0.0714
 1015loPI   C2A16232  11.092   7.733   7.170  0.0313  0.2233 -0.0706
 1015loPI   C3A16233  11.021   7.804   7.583  0.2439 -0.2900 -0.0634
 1015loPI   C4A16234  11.060   7.698   8.016 -0.1724  0.1394 -0.0353
 1015loPI   C5A16235  11.089   7.581   8.461 -0.0456  0.0172 -0.0215
 1015loPI   C6A16236  11.490   7.419   8.601 -0.2050 -0.1711  0.1655
 1015loPI   C1B16237  10.987   8.330   6.724  0.2496 -0.2699 -0.1680
 1015loPI   C2B16238  10.967   8.247   7.152 -0.1196  0.1616 -0.0623
 1015loPI   C3B16239  10.976   8.332   7.565  0.0556 -0.2484  0.0968
 1015loPI   C4B16240  10.991   8.340   8.015 -0.1698 -0.2580  0.0864
 1016loPI    C116241   9.449  12.145   5.538 -0.0791 -0.1618 -0.0534
 1016loPI    C216242   9.344  11.942   5.210  0.2143 -0.0446 -0.2239
 1016loPI    C316243   9.331  12.342   5.210 -0.3404 -0.0525  0.1032
 1016loPI   PO416244   9.308  12.063   5.692  0.2267  0.0061  0.1586
 1016loPI   GL116245   9.153  12.155   6.032  0.0928  0.0430 -0.1363
 1016loPI   GL216246   9.141  11.812   6.173 -0.0426 -0.0883  0.0539
 1016loPI   C1A16247   9.184  12.302   6.428  0.1256 -0.2031 -0.3206
 1016loPI   C2A16248   9.031  12.341   6.803 -0.1239  0.1138  0.1167
 1016loPI   C3A16249   8.920  12.425   7.198  0.2274  0.2807  0.2778
 1016loPI   C4A16250   8.860  12.457   7.628 -0.1754 -0.1833 -0.2444
 1016loPI   C5A16251   8.978  12.473   8.021 -0.1585 -0.3419 -0.0161
 1016loPI   C6A16252   9.022  12.671   8.302 -0.0420  0.2717  0.2175
 1016loPI   C1B16253   9.199  11.842   6.633  0.2347  0.3376 -0.2306
 1016loPI   C2B16254   9.086  11.831   7.068  0.1482  0.0775  0.1277
 1016loPI   C3B16255   8.950  11.897   7.470 -0.2024 -0.2024 -0.0975
 1016loPI   C4B16256   8.978  11.914   7.929  0.2375  0.0166 -0.0394
 1017loPI    C116257   3.342  15.138   5.483  0.1758  0.0921 -0.0709
 1017loPI    C216258   3.158  15.486   5.417 -0.1425 -0.0472  0.0636
 1017loPI    C316259   3.035  15.156   5.228  0.0645 -0.1150  0.0457
 1017loPI   PO416260   3.429  15.183   5.728 -0.4399  0.0064 -0.0926
 1017loPI   GL116261   3.502  15.110   6.134 -0.2398 -0.1336 -0.1363
 1017loPI   GL216262   3.186  15.047   6.175  0.1286 -0.0521  0.1015
 1017loPI   C1A16263   3.709  15.018   6.495  0.4010  0.1089 -0.2869
 1017loPI   C2A16264   3.629  14.988   6.909  0.1050 -0.2877 -0.2593
 1017loPI   C3A16265   3.597  14.859   7.296  0.0847  0.0350 -0.1886
 1017loPI   C4A16266   3.548  14.957   7.723  0.0846 -0.0549  0.3736
 1017loPI   C5A16267   3.514  15.005   8.164 -0.0252  0.0419  0.2445
 1017loPI   C6A16268   3.550  14.824   8.589 -0.0382 -0.1174 -0.0658
 1017loPI   C1B16269   3.194  14.945   6.599 -0.5086 -0.1260 -0.0853
 1017loPI   C2B16270   3.128  15.195   6.987 -0.1990 -0.0924  0.4221
 1017loPI   C3B16271   3.110  15.059   7.384  0.0181  0.0876  0.0218
 1017loPI   C4B16272   3.067  15.134   7.876 -0.1367 -0.2983 -0.0244
 1018loPI    C116273   1.617  15.021   5.679  0.0142 -0.0549  0.1761
 1018loPI    C216274   1.829  14.700   5.568 -0.0548 -0.0152 -0.0776
 1018loPI    C316275   1.684  14.949   5.291 -0.0898  0.1797  0.1132
 1018loPI   PO416276   1.743  15.194   5.973  0.0547  0.1844 -0.1278
 1018loPI   GL116277   1.847  15.083   6.326  0.0645  0.0613  0.1302
 1018loPI   GL216278   2.190  14.994   6.413 -0.0565  0.0096 -0.1609
 1018loPI   C1A16279   1.749  15.235   6.667 -0.1785 -0.3363 -0.2380
 1018loPI   C2A16280   1.787  15.232   7.179 -0.2655 -0.1220 -0.2019
 1018loPI   C3A16281   1.812  15.168   7.640  0.0285  0.0512  0.2819
 1018loPI   C4A16282   1.737  15.196   8.061 -0.0481  0.2113 -0.1433
 1018loPI   C5A16283   1.707  15.479   8.395  0.0147  0.0930  0.1564
 1018loPI   C6A16284   1.714  15.440   8.823  0.0148 -0.0026 -0.2007
 1018loPI   C1B16285   2.245  15.095   6.977 -0.2009  0.0676  0.0278
 1018loPI   C2B16286   2.223  15.018   7.459  0.2300  0.0173 -0.1874
 1018loPI   C3B16287   2.251  15.046   7.896  0.2395 -0.0126  0.0514
 1018loPI   C4B16288   2.178  14.988   8.330  0.1864 -0.0711  0.0310
 1019loPI    C116289  14.356   9.683   5.498 -0.3058  0.1259 -0.0677
 1019loPI    C216290  14.663   9.925   5.584 -0.2065 -0.0719  0.1451
 1019loPI    C316291  14.477   9.955   5.231  0.1213 -0.0156 -0.0260
 1019loPI   PO416292  14.216   9.729   5.741  0.0087  0.3674  0.1331
 1019loPI   GL116293  14.228   9.567   6.179  0.2940  0.0761  0.0988
 1019loPI   GL216294  14.433   9.320   6.333 -0.4123  0.1284  0.0565
 1019loPI   C1A16295  13.968   9.588   6.510  0.2866  0.0387 -0.1942
 1019loPI   C2A16296  13.946   9.552   6.947 -0.1678  0.2665 -0.1403
 1019loPI   C3A16297  13.952   9.541   7.390  0.0662  0.2818 -0.0391
 1019loPI   C4A16298  13.859   9.595   7.881  0.0635 -0.4466 -0.2565
 1019loPI   C5A16299  14.069   9.681   8.256  0.1276 -0.1469 -0.1542
 1019loPI   C6A16300  14.391   9.584   8.549 -0.2340 -0.0979  0.3361
 1019loPI   C1B16301  14.445   9.442   6.721  0.2260  0.1477 -0.0142
 1019loPI   C2B16302  14.443   9.396   7.132  0.0100  0.3586 -0.3857
 1019loPI   C3B16303  14.421   9.345   7.574  0.1284 -0.6195  0.1475
 1019loPI   C4B16304  14.422   9.376   8.066  0.2609  0.0527 -0.0476
 1020loPI    C116305   5.693   0.962   5.611 -0.2726 -0.0072 -0.1973
 1020loPI    C216306   5.765   1.309   5.426 -0.1823  0.0171 -0.1172
 1020loPI    C316307   6.001   0.994   5.358 -0.1501  0.0255 -0.0457
 1020loPI   PO416308   5.533   1.094   5.845  0.1376 -0.1146  0.2110
 1020loPI   GL116309   5.514   1.100   6.262 -0.2326  0.0108  0.1768
 1020loPI   GL216310   5.301   0.887   6.442  0.0891 -0.0539 -0.0677
 1020loPI   C1A16311   5.643   1.214   6.732 -0.0090 -0.0369  0.3371
 1020loPI   C2A16312   5.631   1.200   7.095 -0.0670  0.1163  0.4295
 1020loPI   C3A16313   5.580   1.134   7.606  0.1617 -0.1147 -0.0544
 1020loPI   C4A16314   5.615   1.268   8.076  0.0607  0.1605  0.1842
 1020loPI   C5A16315   5.641   0.992   8.508 -0.0295 -0.2352 -0.1850
 1020loPI   C6A16316   5.350   0.689   8.707  0.1599  0.2463  0.3113
 1020loPI   C1B16317   5.268   0.870   6.883  0.0731  0.0261  0.0730
 1020loPI   C2B16318   5.153   0.895   7.365 -0.0347 -0.1916 -0.0880
 1020loPI   C3B16319   5.144   0.868   7.800 -0.1149 -0.1776 -0.1640
 1020loPI   C4B16320   5.193   0.913   8.185  0.0291 -0.2061 -0.1059
 1021loPI    C116321  17.622  11.708   5.504  0.0627  0.1182  0.0823
 1021loPI    C216322  17.813  11.950   5.249  0.1868 -0.1370 -0.0714
 1021loPI    C316323  17.558  11.675   5.111 -0.0513 -0.0119  0.1111
 1021loPI   PO416324  17.527  11.880   5.776 -0.0092 -0.0118  0.1647
 1021loPI   GL116325  17.590  12.168   6.034 -0.0762 -0.2163 -0.0030
 1021loPI   GL216326  17.285  12.210   6.205  0.0321  0.3051 -0.1358
 1021loPI   C1A16327  17.775  11.939   6.491 -0.4779  0.3707  0.0785
 1021loPI   C2A16328  17.705  11.949   6.983  0.1243 -0.0623 -0.0744
 1021loPI   C3A16329  17.745  12.091   7.344  0.2657  0.1124  0.0846
 1021loPI   C4A16330  17.658  12.086   7.819 -0.0324  0.0962  0.0930
 1021loPI   C5A16331  17.813  12.148   8.270  0.1558  0.2451 -0.0921
 1021loPI   C6A16332  17.981  12.171   8.767  0.0136  0.1318  0.1634
 1021loPI   C1B16333  17.324  12.115   6.508  0.0178  0.0114  0.1466
 1021loPI   C2B16334  17.199  12.207   6.945  0.1051 -0.0355 -0.2992
 1021loPI   C3B16335  17.291  12.288   7.364 -0.2061 -0.1973 -0.0662
 1021loPI   C4B16336  17.247  12.335   7.761 -0.2484 -0.0276  0.2386
 1022loPI    C116337  16.194  11.826   5.270  0.0819 -0.0899 -0.0901
 1022loPI    C216338  16.097  12.009   4.928  0.1511  0.0307 -0.0458
 1022loPI    C316339  16.143  11.612   4.936 -0.1238 -0.0047 -0.1148
 1022loPI   PO416340  16.220  11.983   5.522  0.1736  0.0677  0.0912
 1022loPI   GL116341  16.140  11.970   5.967  0.0925  0.1614  0.0231
 1022loPI   GL216342  16.054  12.132   6.220  0.2154 -0.2715 -0.3319
 1022loPI   C1A16343  15.948  11.611   6.292 -0.0007  0.1138 -0.1762
 1022loPI   C2A16344  16.014  11.684   6.741  0.2025 -0.2525 -0.0689
 1022loPI   C3A16345  15.879  11.656   7.219  0.1006  0.1557  0.1209
 1022loPI   C4A16346  15.867  11.728   7.665  0.0297 -0.1640 -0.0810
 1022loPI   C5A16347  15.968  11.702   8.120 -0.0165 -0.0638 -0.1168
 1022loPI   C6A16348  16.276  11.546   8.337 -0.0697 -0.0948  0.5285
 1022loPI   C1B16349  15.912  12.179   6.666  0.4047 -0.0590  0.0422
 1022loPI   C2B16350  15.881  12.210   7.085  0.0818  0.0239 -0.0571
 1022loPI   C3B16351  15.897  12.218   7.549  0.2001 -0.2426  0.2872
 1022loPI   C4B16352  15.823  12.191   8.021  0.2374  0.0854 -0.0739
 1023loPI    C116353   3.171  10.440   5.634 -0.1710  0.0733  0.0685
 1023loPI    C216354   3.425  10.627   5.388 -0.0080 -0.1730  0.0453
 1023loPI    C316355   3.260  10.279   5.279 -0.2381 -0.0911  0.1249
 1023loPI   PO416356   3.120  10.649   5.807  0.4021 -0.0829  0.0820
 1023loPI   GL116357   3.088  10.661   6.160  0.1794  0.2129  0.0533
 1023loPI   GL216358   3.283  10.829   6.282  0.0473  0.3107 -0.0189
 1023loPI   C1A16359   2.943  10.410   6.515 -0.0123 -0.0286  0.2780
 1023loPI   C2A16360   2.874  10.439   6.921 -0.2608  0.1160  0.0859
 1023loPI   C3A16361   2.835  10.360   7.263 -0.2406  0.3109 -0.2263
 1023loPI   C4A16362   2.801  10.389   7.695  0.1448  0.3342  0.0892
 1023loPI   C5A16363   2.837  10.291   8.102 -0.0733  0.2114  0.0684
 1023loPI   C6A16364   2.794  10.193   8.526 -0.0058 -0.0896 -0.0039
 1023loPI   C1B16365   3.376  10.710   6.763  0.0780 -0.1457  0.0483
 1023loPI   C2B16366   3.239  10.680   7.193  0.0053  0.1243  0.2280
 1023loPI   C3B16367   3.282  10.621   7.607  0.1552 -0.2779  0.0624
 1023loPI   C4B16368   3.098  10.671   8.025 -0.0761  0.1161 -0.2180
 1024loPI    C116369  11.909  10.330   5.275  0.2303 -0.2421 -0.0154
 1024loPI    C216370  12.011  10.699   5.159 -0.1369 -0.1237  0.0270
 1024loPI    C316371  12.122  10.383   4.940 -0.1136  0.0368 -0.1961
 1024loPI   PO416372  11.948  10.390   5.584  0.2012  0.1327  0.1671
 1024loPI   GL116373  11.904  10.331   6.021  0.3909  0.0651 -0.1475
 1024loPI   GL216374  12.063  10.287   6.206  0.0232  0.0438  0.0650
 1024loPI   C1A16375  11.649  10.465   6.371  0.1229 -0.0182  0.3922
 1024loPI   C2A16376  11.572  10.516   6.927 -0.1992 -0.0268 -0.1419
 1024loPI   C3A16377  11.561  10.385   7.420 -0.0728  0.0818 -0.0529
 1024loPI   C4A16378  11.453  10.381   7.925  0.3878  0.1544 -0.1620
 1024loPI   C5A16379  11.390  10.469   8.361  0.1650  0.0521  0.0951
 1024loPI   C6A16380  11.467  10.713   8.678 -0.0672  0.2971 -0.0541
 1024loPI   C1B16381  12.152  10.264   6.669  0.2628 -0.1319 -0.1705
 1024loPI   C2B16382  11.991  10.264   7.077 -0.1645  0.2095  0.2003
 1024loPI   C3B16383  12.030  10.284   7.517 -0.3090  0.0482  0.1752
 1024loPI   C4B16384  11.973  10.304   7.933  0.0765  0.2741 -0.3771
 1025loPI    C116385   7.365   6.380   5.563  0.0686 -0.0743  0.0223
 1025loPI    C216386   7.541   6.668   5.779 -0.0228  0.0319 -0.0437
 1025loPI    C316387   7.555   6.680   5.379 -0.1419  0.0174 -0.0488
 1025loPI   PO416388   7.358   6.236   5.848  0.1386  0.4316  0.1210
 1025loPI   GL116389   7.247   6.150   6.275 -0.2329  0.1115 -0.1503
 1025loPI   GL216390   7.322   5.858   6.303  0.0413 -0.2536  0.0989
 1025loPI   C1A16391   7.161   6.467   6.617 -0.1124  0.0873 -0.1934
 1025loPI   C2A16392   7.190   6.400   7.047 -0.1412  0.0865  0.1246
 1025loPI   C3A16393   7.085   6.463   7.454 -0.2650 -0.1016  0.1136
 1025loPI   C4A16394   7.179   6.580   7.972 -0.1223 -0.0288  0.0876
 1025loPI   C5A16395   7.075   6.951   8.147 -0.0880  0.3052  0.1392
 1025loPI   C6A16396   7.442   7.210   8.255  0.2737 -0.1351  0.0574
 1025loPI   C1B16397   7.288   5.961   6.779 -0.4163 -0.2005  0.0464
 1025loPI   C2B16398   7.284   5.914   7.113  0.1320  0.0911  0.1058
 1025loPI   C3B16399   7.252   5.946   7.549  0.0156  0.0931  0.2059
 1025loPI   C4B16400   7.172   6.019   7.900  0.0547 -0.0548 -0.2890
 1026loPI    C116401  17.130  10.068   5.636 -0.1753 -0.1138  0.0152
 1026loPI    C216402  17.097   9.953   5.255  0.0700 -0.2792  0.0412
 1026loPI    C316403  17.420  10.156   5.374  0.0585 -0.3469  0.1899
 1026loPI   PO416404  17.042   9.901   5.779  0.0124  0.0876 -0.0157
 1026loPI   GL116405  16.911   9.927   6.140 -0.0475  0.1502  0.1536
 1026loPI   GL216406  17.184   9.784   6.388 -0.3628  0.1508 -0.1247
 1026loPI   C1A16407  16.655   9.953   6.615 -0.0749  0.3695 -0.2093
 1026loPI   C2A16408  16.554  10.085   6.906 -0.2355 -0.0429 -0.0663
 1026loPI   C3A16409  16.509   9.952   7.404 -0.1118 -0.2127  0.0245
 1026loPI   C4A16410  16.431  10.074   7.808 -0.0457 -0.0851  0.2081
 1026loPI   C5A16411  16.552  10.225   8.205 -0.2401  0.3515  0.0118
 1026loPI   C6A16412  16.683  10.510   8.437 -0.0102 -0.2893 -0.0134
 1026loPI   C1B16413  17.175   9.761   6.763  0.0247 -0.0426  0.2701
 1026loPI   C2B16414  17.015   9.815   7.174  0.0476 -0.0015 -0.5002
 1026loPI   C3B16415  17.003   9.875   7.524 -0.2209  0.1665  0.0890
 1026loPI   C4B16416  16.977   9.876   7.940  0.3254 -0.0860 -0.3550
 1027loPI    C116417   8.018  16.745   5.459  0.1488  0.1262 -0.0051
 1027loPI    C216418   8.267  16.783   5.149  0.0181 -0.2364 -0.1606
 1027loPI    C316419   7.879  16.705   5.086 -0.0653 -0.0390  0.0897
 1027loPI   PO416420   8.069  16.864   5.690  0.0617 -0.0436 -0.1410
 1027loPI   GL116421   8.270  16.789   6.092 -0.0447 -0.0685  0.1732
 1027loPI   GL216422   8.528  16.570   6.067 -0.0813  0.2976 -0.1673
 1027loPI   C1A16423   8.309  16.996   6.489  0.2108  0.2900  0.1764
 1027loPI   C2A16424   8.178  17.063   6.879 -0.0053 -0.2688 -0.2251
 1027loPI   C3A16425   8.273  17.042   7.310  0.1790  0.3511 -0.3958
 1027loPI   C4A16426   8.155  17.083   7.695 -0.0687  0.1129  0.0802
 1027loPI   C5A16427   8.251  17.118   8.034 -0.2597  0.2959 -0.1791
 1027loPI   C6A16428   8.344  17.235   8.529 -0.1202  0.4257  0.2319
 1027loPI   C1B16429   8.375  16.512   6.428 -0.2766 -0.1660 -0.2114
 1027loPI   C2B16430   8.266  16.570   6.876  0.0097 -0.2909 -0.0839
 1027loPI   C3B16431   8.287  16.515   7.353 -0.0822 -0.0707  0.2587
 1027loPI   C4B16432   8.287  16.604   7.807  0.0475  0.4579  0.0257
 1028loPI    C116433   2.473  12.428   5.284 -0.1259  0.2406  0.0028
 1028loPI    C216434   2.812  12.588   5.421  0.0849 -0.1453 -0.0532
 1028loPI    C316435   2.719  12.620   5.034 -0.0894  0.2081  0.0137
 1028loPI   PO416436   2.440  12.297   5.524 -0.1804 -0.0475  0.1197
 1028loPI   GL116437   2.480  12.272   6.029  0.0975  0.1685  0.4539
 1028loPI   GL216438   2.126  12.165   6.192 -0.0175 -0.0312 -0.0627
 1028loPI   C1A16439   2.575  12.406   6.531 -0.0280  0.1637  0.0528
 1028loPI   C2A16440   2.678  12.439   6.990 -0.2316  0.0155  0.0325
 1028loPI   C3A16441   2.625  12.465   7.420  0.0772  0.1120 -0.2348
 1028loPI   C4A16442   2.560  12.356   7.847  0.0871  0.4286 -0.0859
 1028loPI   C5A16443   2.665  12.393   8.284 -0.0119 -0.0660  0.1160
 1028loPI   C6A16444   2.654  12.587   8.725 -0.1914  0.0692 -0.2248
 1028loPI   C1B16445   2.078  12.152   6.645  0.2068  0.0897  0.0172
 1028loPI   C2B16446   2.185  12.110   6.955  0.2605 -0.0555 -0.1191
 1028loPI   C3B16447   2.095  12.052   7.500  0.1440 -0.4063 -0.2407
 1028loPI   C4B16448   2.064  12.164   7.990 -0.0209 -0.2997 -0.0764
 1029loPI    C116449   4.799  12.301   5.282  0.1465  0.0334 -0.2429
 1029loPI    C216450   4.739  12.564   4.987  0.0507 -0.0480 -0.2965
 1029loPI    C316451   4.594  12.192   4.957 -0.1695  0.0142 -0.0415
 1029loPI   PO416452   4.744  12.458   5.519 -0.1354 -0.0464  0.0201
 1029loPI   GL116453   4.689  12.471   5.967 -0.1150 -0.0251  0.2231
 1029loPI   GL216454   4.518  12.225   6.133 -0.0784 -0.2191  0.0541
 1029loPI   C1A16455   4.850  12.606   6.405 -0.0439 -0.2604  0.0674
 1029loPI   C2A16456   4.829  12.577   6.872  0.0133 -0.1506  0.1232
 1029loPI   C3A16457   4.937  12.627   7.326 -0.1464  0.1843  0.1683
 1029loPI   C4A16458   4.817  12.559   7.681  0.0353  0.1129 -0.1151
 1029loPI   C5A16459   4.872  12.501   8.101 -0.3602  0.1212 -0.0640
 1029loPI   C6A16460   5.182  12.548   8.305 -0.0560  0.0950  0.0632
 1029loPI   C1B16461   4.465  12.318   6.491  0.1694  0.0778 -0.0517
 1029loPI   C2B16462   4.412  12.278   7.011 -0.1812  0.1832  0.0156
 1029loPI   C3B16463   4.453  12.187   7.408 -0.0558 -0.2468 -0.0368
 1029loPI   C4B16464   4.379  12.140   7.912  0.0553  0.0922 -0.1757
 1030loPI    C116465   5.863  13.821   5.743 -0.2254  0.0690  0.2029
 1030loPI    C216466   6.092  13.836   6.071 -0.2317 -0.0342  0.2124
 1030loPI    C316467   6.241  13.950   5.717 -0.1392 -0.1780  0.2043
 1030loPI   PO416468   5.674  13.639   5.822 -0.0182 -0.0587  0.1338
 1030loPI   GL116469   5.713  13.512   6.103  0.2353  0.2055 -0.0285
 1030loPI   GL216470   5.739  13.221   6.251  0.2603 -0.1971  0.0024
 1030loPI   C1A16471   5.643  13.692   6.520 -0.0187  0.1117  0.1493
 1030loPI   C2A16472   5.663  13.739   6.960  0.1909 -0.0899 -0.1382
 1030loPI   C3A16473   5.575  13.785   7.409 -0.3643 -0.3925  0.5795
 1030loPI   C4A16474   5.567  13.717   7.849 -0.2687  0.0547  0.0357
 1030loPI   C5A16475   5.503  13.715   8.211 -0.2543  0.0891 -0.0209
 1030loPI   C6A16476   5.431  13.687   8.668 -0.0606 -0.0149  0.0170
 1030loPI   C1B16477   5.759  13.182   6.721 -0.0024 -0.0811  0.0625
 1030loPI   C2B16478   5.711  13.240   7.147  0.2380 -0.1185  0.1448
 1030loPI   C3B16479   5.668  13.292   7.557  0.3691  0.0364 -0.0878
 1030loPI   C4B16480   5.624  13.255   8.045  0.1027  0.0076 -0.0140
 1031loPI    C116481   6.780   2.151   5.921 -0.2562  0.0427 -0.0391
 1031loPI    C216482   6.743   1.821   5.699 -0.0744 -0.0131  0.0117
 1031loPI    C316483   6.698   2.182   5.531  0.1183 -0.0529 -0.1292
 1031loPI   PO416484   6.617   2.114   6.196 -0.0569 -0.0719  0.4611
 1031loPI   GL116485   6.468   1.818   6.547  0.2123  0.2072  0.0656
 1031loPI   GL216486   6.349   2.160   6.635 -0.0443  0.0300  0.3387
 1031loPI   C1A16487   6.461   1.883   7.013  0.3758  0.1334  0.0488
 1031loPI   C2A16488   6.443   1.821   7.474 -0.0376 -0.1061 -0.1114
 1031loPI   C3A16489   6.463   1.722   7.927  0.0672  0.2127  0.4581
 1031loPI   C4A16490   6.799   1.582   8.078  0.2375 -0.1833 -0.1294
 1031loPI   C5A16491   7.120   1.551   8.258 -0.0967  0.4583 -0.2464
 1031loPI   C6A16492   7.311   1.274   8.524 -0.0632 -0.3052  0.1496
 1031loPI   C1B16493   6.341   2.351   7.020  0.3724  0.1526  0.2057
 1031loPI   C2B16494   6.318   2.411   7.406  0.0626  0.1511  0.1341
 1031loPI   C3B16495   6.383   2.200   7.863 -0.0560 -0.0964 -0.4648
 1031loPI   C4B16496   6.448   2.095   8.232  0.2389  0.1527 -0.0536
 1032loPI    C116497  17.509   0.050   5.438 -0.2193 -0.0653 -0.0515
 1032loPI    C216498  17.694   0.266   5.158  0.0509  0.1401  0.2776
 1032loPI    C316499  17.702  -0.133   5.140  0.0148  0.1507 -0.0357
 1032loPI   PO416500  17.580   0.192   5.685 -0.1121 -0.1230  0.3043
 1032loPI   GL116501  17.543   0.303   6.116  0.0124  0.1152  0.0183
 1032loPI   GL216502  17.516   0.624   6.282 -0.0183  0.1412  0.0255
 1032loPI   C1A16503  17.204   0.262   6.425  0.2651  0.1249  0.1779
 1032loPI   C2A16504  17.173   0.210   6.855  0.3694  0.1180  0.1080
 1032loPI   C3A16505  17.166   0.163   7.246  0.0877  0.0991 -0.1925
 1032loPI   C4A16506  17.198   0.177   7.709  0.0894 -0.0676 -0.0406
 1032loPI   C5A16507  17.176   0.200   8.144  0.1427  0.3365 -0.1144
 1032loPI   C6A16508  17.247   0.239   8.577 -0.1703  0.0610 -0.1062
 1032loPI   C1B16509  17.578   0.509   6.727 -0.1093  0.3281  0.1026
 1032loPI   C2B16510  17.625   0.626   7.072  0.1913  0.0811 -0.0504
 1032loPI   C3B16511  17.617   0.509   7.538  0.1890 -0.3757  0.3139
 1032loPI   C4B16512  17.548   0.557   7.976  0.0984  0.0867 -0.3237
 1033loPI    C116513  13.171  17.215   5.562  0.2860  0.1331  0.0996
 1033loPI    C216514  13.404  17.535   5.508  0.0627  0.2991  0.1024
 1033loPI    C316515  13.007  17.577   5.515  0.0314  0.0200  0.0997
 1033loPI   PO416516  13.221  17.065   5.790  0.1438  0.2161  0.0696
 1033loPI   GL116517  13.208  17.048   6.194  0.0495  0.0620  0.0360
 1033loPI   GL216518  12.956  16.855   6.193  0.3099 -0.0217  0.0574
 1033loPI   C1A16519  13.204  16.980   6.617 -0.0827 -0.0562  0.2181
 1033loPI   C2A16520  13.120  16.943   7.037  0.1620  0.1114 -0.0716
 1033loPI   C3A16521  13.327  17.031   7.397  0.1874 -0.2658  0.2067
 1033loPI   C4A16522  13.347  16.976   7.828 -0.0512  0.1607 -0.2002
 1033loPI   C5A16523  13.233  16.871   8.251 -0.0257 -0.1019  0.1955
 1033loPI   C6A16524  12.840  16.635   8.344 -0.0210 -0.4467  0.0625
 1033loPI   C1B16525  12.819  16.706   6.599  0.2817  0.1636  0.1953
 1033loPI   C2B16526  12.755  16.639   7.037 -0.1497  0.0833 -0.2612
 1033loPI   C3B16527  12.839  16.621   7.487  0.0002 -0.1655  0.1556
 1033loPI   C4B16528  12.931  16.643   7.889 -0.0771  0.3261 -0.1276
 1034loPI    C116529   1.067   3.030   5.473 -0.0491 -0.0032  0.1836
 1034loPI    C216530   0.859   3.339   5.326 -0.0097 -0.1843 -0.2696
 1034loPI    C316531   0.965   3.037   5.086  0.2789 -0.3725  0.0843
 1034loPI   PO416532   0.986   3.001   5.711 -0.0528  0.3011 -0.3384
 1034loPI   GL116533   1.120   2.860   6.072 -0.0942 -0.2358 -0.5209
 1034loPI   GL216534   0.834   3.065   6.195  0.0279  0.0027 -0.1291
 1034loPI   C1A16535   1.224   2.928   6.482 -0.4742  0.1337  0.1531
 1034loPI   C2A16536   1.367   2.827   6.879  0.2984 -0.1137 -0.2252
 1034loPI   C3A16537   1.288   2.834   7.339 -0.0828 -0.4174  0.2719
 1034loPI   C4A16538   1.182   2.864   7.792  0.1187  0.2609  0.1905
 1034loPI   C5A16539   1.238   2.895   8.247  0.0180  0.0720 -0.1599
 1034loPI   C6A16540   1.154   2.856   8.721 -0.4812  0.0004  0.1011
 1034loPI   C1B16541   0.780   2.952   6.610 -0.2745  0.1898 -0.1456
 1034loPI   C2B16542   0.896   3.031   7.043  0.0930 -0.0199  0.2068
 1034loPI   C3B16543   0.742   2.986   7.469 -0.0721 -0.0361  0.2264
 1034loPI   C4B16544   0.774   3.032   8.035 -0.3076  0.1364  0.0629
 1035loPI    C116545  16.315   0.959   5.327 -0.4074 -0.1169 -0.3951
 1035loPI    C216546  16.582   0.677   5.231 -0.0466  0.1390 -0.1681
 1035loPI    C316547  16.463   0.941   4.956 -0.0881  0.0077 -0.2773
 1035loPI   PO416548  16.379   1.062   5.572 -0.0894 -0.1662  0.0789
 1035loPI   GL116549  16.561   1.110   5.964 -0.0490  0.0414 -0.0469
 1035loPI   GL216550  16.459   1.336   6.165 -0.0917 -0.0953  0.1954
 1035loPI   C1A16551  16.521   0.958   6.425  0.1081  0.2132  0.0112
 1035loPI   C2A16552  16.595   0.939   6.789 -0.0449  0.2063  0.0072
 1035loPI   C3A16553  16.676   0.895   7.152  0.2681  0.0501 -0.2545
 1035loPI   C4A16554  16.735   0.888   7.547 -0.0372  0.1560 -0.2485
 1035loPI   C5A16555  16.587   0.913   7.967 -0.1917  0.2239  0.1472
 1035loPI   C6A16556  16.223   1.151   8.104 -0.0730  0.0203 -0.1473
 1035loPI   C1B16557  16.525   1.418   6.615 -0.2601 -0.0502  0.0248
 1035loPI   C2B16558  16.560   1.411   7.037 -0.0816  0.1065  0.0885
 1035loPI   C3B16559  16.506   1.344   7.456  0.0958 -0.0438 -0.1677
 1035loPI   C4B16560  16.478   1.465   7.884 -0.1671 -0.2201  0.2039
 1036loPI    C116561  13.733   6.804   5.339  0.0594 -0.1401 -0.0303
 1036loPI    C216562  14.045   6.828   5.091 -0.1217  0.1690 -0.2344
 1036loPI    C316563  13.687   6.719   4.951 -0.2006  0.2363 -0.0864
 1036loPI   PO416564  13.868   6.743   5.579 -0.2415 -0.4067  0.3656
 1036loPI   GL116565  14.063   6.941   5.888  0.1639 -0.0796 -0.1845
 1036loPI   GL216566  14.255   7.173   5.793  0.0251 -0.1819 -0.3596
 1036loPI   C1A16567  13.985   6.817   6.342 -0.1810  0.2747 -0.3427
 1036loPI   C2A16568  13.935   6.639   6.689 -0.0792 -0.1674 -0.1202
 1036loPI   C3A16569  13.993   6.654   7.103 -0.0802  0.1650  0.2486
 1036loPI   C4A16570  13.925   6.688   7.505  0.2546  0.0979 -0.0635
 1036loPI   C5A16571  13.916   6.815   7.920  0.2306  0.2168  0.0255
 1036loPI   C6A16572  13.729   7.008   8.218 -0.0561  0.1980 -0.1923
 1036loPI   C1B16573  14.373   7.154   6.234 -0.4020 -0.2156 -0.1227
 1036loPI   C2B16574  14.414   7.053   6.713  0.2751  0.3150 -0.0647
 1036loPI   C3B16575  14.411   6.973   7.169  0.2620  0.2773  0.2027
 1036loPI   C4B16576  14.349   6.994   7.637  0.2173 -0.0822 -0.1604
 1037loPI    C116577  12.978   3.869   5.429 -0.0868  0.1364 -0.1117
 1037loPI    C216578  13.339   4.016   5.340  0.0845 -0.2884 -0.1403
 1037loPI    C316579  13.078   3.936   5.048  0.0726 -0.2472 -0.1411
 1037loPI   PO416580  13.149   3.749   5.688  0.1582  0.0930 -0.1084
 1037loPI   GL116581  13.135   3.906   6.022  0.2464  0.0107 -0.1031
 1037loPI   GL216582  12.974   4.114   6.145 -0.0235 -0.0019  0.2815
 1037loPI   C1A16583  13.039   3.636   6.353  0.4083 -0.0441  0.0841
 1037loPI   C2A16584  13.063   3.648   6.769 -0.2497  0.3056 -0.1787
 1037loPI   C3A16585  13.118   3.641   7.164  0.2360 -0.0464  0.2885
 1037loPI   C4A16586  13.010   3.655   7.548  0.1958  0.2490  0.0540
 1037loPI   C5A16587  13.015   3.510   8.056 -0.1460  0.1262  0.1804
 1037loPI   C6A16588  12.868   3.593   8.454  0.2890  0.1315 -0.1388
 1037loPI   C1B16589  12.949   4.128   6.551  0.0261 -0.1447 -0.0617
 1037loPI   C2B16590  12.984   4.131   6.981  0.1090 -0.3146 -0.0135
 1037loPI   C3B16591  13.023   4.154   7.439  0.2198  0.0680  0.0185
 1037loPI   C4B16592  12.950   4.072   7.858  0.2006  0.0560 -0.0871
 1038loPI    C116593  12.714   8.267   5.354 -0.0028 -0.0473  0.0093
 1038loPI    C216594  12.333   8.388   5.382 -0.0051 -0.0094 -0.1738
 1038loPI    C316595  12.513   8.374   5.025  0.1377 -0.1136 -0.0988
 1038loPI   PO416596  12.733   8.162   5.637 -0.1427 -0.3489  0.1677
 1038loPI   GL116597  12.976   8.317   6.021 -0.0830 -0.0793  0.0439
 1038loPI   GL216598  13.098   8.613   5.997 -0.3112  0.0548 -0.0068
 1038loPI   C1A16599  12.771   8.530   6.371  0.2236  0.1195  0.0673
 1038loPI   C2A16600  12.761   8.581   6.780  0.0056  0.0805  0.1625
 1038loPI   C3A16601  12.744   8.569   7.251 -0.0612 -0.0422 -0.3566
 1038loPI   C4A16602  12.758   8.562   7.706 -0.0260 -0.4736 -0.1591
 1038loPI   C5A16603  12.654   8.595   8.120  0.0889  0.2630 -0.1222
 1038loPI   C6A16604  12.693   8.605   8.625  0.0047  0.0690 -0.2103
 1038loPI   C1B16605  13.299   8.397   6.344 -0.0937 -0.2292 -0.1071
 1038loPI   C2B16606  13.221   8.373   6.700  0.0005 -0.1101  0.1419
 1038loPI   C3B16607  13.200   8.418   7.165  0.1574 -0.0248 -0.1596
 1038loPI   C4B16608  13.185   8.357   7.492 -0.0113 -0.0363 -0.0998
 1039loPI    C116609   6.036   5.551   5.557 -0.1347  0.1578  0.0674
 1039loPI    C216610   6.128   5.866   5.329 -0.1223  0.0406 -0.0914
 1039loPI    C316611   5.874   5.589   5.194 -0.1289 -0.0210  0.0452
 1039loPI   PO416612   6.181   5.464   5.605 -0.0435  0.0545 -0.3481
 1039loPI   GL116613   6.276   5.315   6.039 -0.0007 -0.2576  0.2049
 1039loPI   GL216614   6.542   5.181   6.073 -0.0605 -0.3487  0.0370
 1039loPI   C1A16615   6.349   5.282   6.516  0.2084 -0.0529  0.0417
 1039loPI   C2A16616   6.397   5.294   6.953 -0.1201  0.1343  0.0712
 1039loPI   C3A16617   6.339   5.313   7.403  0.2452  0.0617  0.1082
 1039loPI   C4A16618   6.309   5.297   7.901 -0.1974  0.1039  0.1333
 1039loPI   C5A16619   6.302   5.264   8.374 -0.1704 -0.1988  0.0581
 1039loPI   C6A16620   6.412   4.835   8.493  0.0417 -0.0856 -0.0556
 1039loPI   C1B16621   6.851   5.095   6.407  0.0724 -0.0834  0.2081
 1039loPI   C2B16622   6.949   5.163   6.781  0.2188 -0.1808  0.4438
 1039loPI   C3B16623   6.805   5.058   7.148 -0.0289  0.0589 -0.0453
 1039loPI   C4B16624   6.883   5.146   7.532 -0.1780  0.2373  0.1849
 1040loPI    C116625   4.868   7.532   5.735  0.0620  0.0087  0.0210
 1040loPI    C216626   4.909   7.142   5.815  0.0841 -0.0001 -0.0329
 1040loPI    C316627   4.969   7.278   5.443 -0.1855  0.0151 -0.0728
 1040loPI   PO416628   4.751   7.591   5.833  0.1690  0.1194 -0.1558
 1040loPI   GL116629   4.737   7.864   6.238 -0.0071 -0.0978 -0.1052
 1040loPI   GL216630   4.820   7.570   6.296  0.0366  0.0390 -0.0214
 1040loPI   C1A16631   4.692   7.814   6.754 -0.0194 -0.0406  0.0881
 1040loPI   C2A16632   4.636   7.824   7.242 -0.1175  0.0913  0.3263
 1040loPI   C3A16633   4.592   7.810   7.693  0.0789  0.1175  0.0066
 1040loPI   C4A16634   4.518   7.885   8.148 -0.3790 -0.0724  0.0749
 1040loPI   C5A16635   4.508   8.191   8.475 -0.1908 -0.2470  0.0445
 1040loPI   C6A16636   4.685   8.628   8.532  0.0640  0.0923  0.1774
 1040loPI   C1B16637   4.777   7.345   6.646 -0.0698 -0.0683 -0.1246
 1040loPI   C2B16638   4.657   7.305   7.054  0.1929  0.1039  0.0054
 1040loPI   C3B16639   4.696   7.308   7.561  0.0971  0.2706 -0.0607
 1040loPI   C4B16640   4.637   7.414   8.035 -0.3404  0.1307 -0.0277
 1041loPI    C116641   3.720   0.474   5.995  0.1440  0.2461 -0.0758
 1041loPI    C216642   3.716   0.858   6.109  0.4797  0.2979 -0.2267
 1041loPI    C316643   3.799   0.763   5.730  0.2666  0.0808 -0.2214
 1041loPI   PO416644   3.814   0.379   6.107  0.0193  0.1075 -0.1693
 1041loPI   GL116645   3.940   0.373   6.586 -0.0997 -0.1217  0.5081
 1041loPI   GL216646   3.671   0.074   6.482 -0.1409  0.0992  0.3358
 1041loPI   C1A16647   4.013   0.350   7.012 -0.0286 -0.1649  0.0801
 1041loPI   C2A16648   3.933   0.429   7.416 -0.2642 -0.1010 -0.2121
 1041loPI   C3A16649   3.866   0.471   7.797  0.1668  0.0152 -0.0364
 1041loPI   C4A16650   3.817   0.537   8.187 -0.0326 -0.0403 -0.0480
 1041loPI   C5A16651   4.087   0.654   8.504  0.0193  0.2008  0.1476
 1041loPI   C6A16652   4.215   0.384   8.908 -0.1100  0.2830 -0.1150
 1041loPI   C1B16653   3.546   0.070   7.014 -0.0551 -0.1115 -0.1569
 1041loPI   C2B16654   3.542   0.110   7.522  0.2076 -0.0037  0.0112
 1041loPI   C3B16655   3.411   0.230   7.937 -0.1348 -0.2746 -0.2087
 1041loPI   C4B16656   3.257   0.149   8.363 -0.0993  0.0320 -0.1956
 1042loPI    C116657   9.060   4.670   5.501 -0.0073  0.2312  0.0475
 1042loPI    C216658   9.051   5.001   5.276 -0.0195  0.1436 -0.0820
 1042loPI    C316659   9.067   4.641   5.102 -0.1522  0.0700  0.0557
 1042loPI   PO416660   8.889   4.657   5.608  0.0587 -0.1283 -0.1765
 1042loPI   GL116661   8.643   4.768   6.044 -0.1327 -0.3000  0.0609
 1042loPI   GL216662   8.279   4.564   5.981 -0.0669 -0.1186  0.2102
 1042loPI   C1A16663   8.731   4.851   6.431  0.0530  0.0792  0.2715
 1042loPI   C2A16664   8.836   4.745   6.959 -0.2911  0.1627 -0.0423
 1042loPI   C3A16665   8.684   4.772   7.418  0.1496  0.0960  0.0321
 1042loPI   C4A16666   8.673   4.757   7.873  0.0486  0.1909 -0.1231
 1042loPI   C5A16667   8.615   4.544   8.305 -0.1193  0.0453 -0.2215
 1042loPI   C6A16668   8.777   4.489   8.654 -0.0375 -0.0122 -0.0983
 1042loPI   C1B16669   8.405   4.410   6.425  0.1147 -0.0533 -0.0305
 1042loPI   C2B16670   8.328   4.406   6.868  0.2204 -0.2598 -0.1196
 1042loPI   C3B16671   8.282   4.464   7.276  0.2688  0.3650  0.0029
 1042loPI   C4B16672   8.298   4.474   7.737  0.0223 -0.2433 -0.0593
 1043loPI    C116673   0.711   4.258   5.518  0.1641  0.2253  0.1424
 1043loPI    C216674   0.424   4.355   5.257  0.1318  0.0939  0.1282
 1043loPI    C316675   0.808   4.415   5.163  0.1416 -0.3116 -0.1116
 1043loPI   PO416676   0.583   4.240   5.818 -0.0390 -0.2761 -0.1268
 1043loPI   GL116677   0.556   4.142   6.270  0.0491 -0.0457  0.0564
 1043loPI   GL216678   0.706   4.020   6.483 -0.2145 -0.2923 -0.0871
 1043loPI   C1A16679   0.612   4.586   6.519 -0.0171 -0.0216 -0.3922
 1043loPI   C2A16680   0.593   4.581   6.920  0.0655  0.1340 -0.2270
 1043loPI   C3A16681   0.602   4.558   7.400  0.2449 -0.5317 -0.3491
 1043loPI   C4A16682   0.578   4.581   7.700 -0.0505 -0.0596 -0.1594
 1043loPI   C5A16683   0.523   4.702   8.093 -0.0004  0.2532 -0.2303
 1043loPI   C6A16684   0.517   4.574   8.541 -0.1969 -0.2890  0.2105
 1043loPI   C1B16685   0.723   4.077   6.956 -0.0433  0.5027 -0.0042
 1043loPI   C2B16686   0.730   4.114   7.324  0.1746  0.2141 -0.2460
 1043loPI   C3B16687   0.608   4.066   7.727 -0.1993  0.1528 -0.3309
 1043loPI   C4B16688   0.550   4.206   8.131 -0.1454 -0.3017 -0.1642
 1044loPI    C116689   9.650   4.167   5.142 -0.3214  0.0828 -0.0183
 1044loPI    C216690   9.733   4.198   4.752 -0.0468 -0.0365  0.0278
 1044loPI    C316691   9.542   4.495   4.941 -0.1572  0.0334 -0.1900
 1044loPI   PO416692   9.827   4.118   5.267 -0.4296 -0.2125 -0.0270
 1044loPI   GL116693   9.876   4.069   5.732  0.0449  0.0144  0.0523
 1044loPI   GL216694  10.035   4.365   5.751  0.2605 -0.1003 -0.2025
 1044loPI   C1A16695   9.843   3.937   6.044  0.1106  0.1122 -0.2783
 1044loPI   C2A16696   9.789   3.888   6.452  0.1374 -0.0230  0.2166
 1044loPI   C3A16697   9.768   3.928   6.943 -0.0454  0.1056 -0.1269
 1044loPI   C4A16698   9.712   3.903   7.421  0.0377  0.0815 -0.0340
 1044loPI   C5A16699   9.699   3.830   7.847 -0.1053  0.0179  0.2154
 1044loPI   C6A16700   9.509   3.964   8.217 -0.1323  0.2373  0.1494
 1044loPI   C1B16701  10.150   4.275   6.193  0.1971 -0.2071 -0.0982
 1044loPI   C2B16702  10.252   4.258   6.570  0.2024  0.0813  0.1532
 1044loPI   C3B16703  10.223   4.176   7.102  0.2889 -0.2731 -0.1920
 1044loPI   C4B16704  10.174   4.178   7.646  0.1709  0.0187 -0.1216
 1045loPI    C116705  12.038   8.934   5.546 -0.3941  0.2885 -0.1070
 1045loPI    C216706  12.209   8.858   5.192 -0.0824  0.0778  0.0846
 1045loPI    C316707  12.185   9.234   5.326  0.0759  0.1273 -0.0231
 1045loPI   PO416708  12.126   8.765   5.738 -0.1717  0.0955 -0.2331
 1045loPI   GL116709  12.062   8.519   6.131  0.1341  0.1847  0.1255
 1045loPI   GL216710  11.863   8.813   6.201 -0.3812 -0.1091  0.3254
 1045loPI   C1A16711  11.902   8.455   6.539 -0.0100  0.0148  0.0367
 1045loPI   C2A16712  11.891   8.485   7.023 -0.1415  0.2116  0.1267
 1045loPI   C3A16713  11.884   8.381   7.464  0.0398  0.0881  0.1859
 1045loPI   C4A16714  11.946   8.328   7.839  0.0085 -0.2004  0.1737
 1045loPI   C5A16715  12.268   8.232   8.183 -0.0286 -0.0758 -0.0242
 1045loPI   C6A16716  12.435   8.185   8.537 -0.1423 -0.4374  0.0039
 1045loPI   C1B16717  11.877   8.960   6.517  0.0361 -0.2274  0.2168
 1045loPI   C2B16718  11.794   8.926   6.942  0.1228 -0.0312  0.1127
 1045loPI   C3B16719  11.772   8.896   7.378  0.1111 -0.1096 -0.2656
 1045loPI   C4B16720  11.804   8.855   7.830 -0.2179  0.0606 -0.0612
 1046loPI    C116721   5.119   4.293   5.534 -0.0434  0.1279 -0.0146
 1046loPI    C216722   5.323   3.949   5.539  0.1369  0.2283 -0.2478
 1046loPI    C316723   4.930   3.948   5.463  0.1138  0.0650 -0.1320
 1046loPI   PO416724   5.242   4.389   5.743 -0.1424 -0.3012  0.0457
 1046loPI   GL116725   5.444   4.251   6.173 -0.0489 -0.0409 -0.0470
 1046loPI   GL216726   5.207   4.163   6.404  0.1780 -0.3263 -0.1166
 1046loPI   C1A16727   5.528   4.494   6.504 -0.2627  0.2218  0.0426
 1046loPI   C2A16728   5.646   4.680   6.859 -0.3303  0.0055  0.0253
 1046loPI   C3A16729   5.598   4.694   7.296 -0.1408 -0.2084 -0.0251
 1046loPI   C4A16730   5.610   4.610   7.700  0.1653  0.1668  0.0363
 1046loPI   C5A16731   5.520   4.761   8.126  0.0443  0.1125 -0.1628
 1046loPI   C6A16732   5.142   4.872   8.471 -0.2009  0.2657  0.2301
 1046loPI   C1B16733   5.174   4.244   6.864 -0.1618 -0.3302 -0.2119
 1046loPI   C2B16734   5.219   4.338   7.240  0.1550 -0.1182  0.0886
 1046loPI   C3B16735   5.197   4.272   7.720 -0.1617  0.3554 -0.0725
 1046loPI   C4B16736   5.170   4.339   8.125  0.0541 -0.5310 -0.0241
 1047loPI    C116737  13.385   9.775   5.613 -0.1923  0.0355 -0.1977
 1047loPI    C216738  13.400   9.858   5.222  0.1070 -0.2802 -0.2589
 1047loPI    C316739  13.351   9.480   5.344  0.0047 -0.1824  0.0104
 1047loPI   PO416740  13.191  10.003   5.685 -0.1404  0.0230 -0.2085
 1047loPI   GL116741  12.827  10.015   5.995  0.3023 -0.0394 -0.0404
 1047loPI   GL216742  13.043   9.826   6.187  0.2332  0.2695  0.0040
 1047loPI   C1A16743  12.625  10.092   6.410 -0.0774 -0.0526  0.1139
 1047loPI   C2A16744  12.587  10.076   6.804 -0.1184  0.0289 -0.0454
 1047loPI   C3A16745  12.430  10.075   7.154 -0.0538  0.1319  0.0367
 1047loPI   C4A16746  12.469  10.078   7.580 -0.2758 -0.1964 -0.3502
 1047loPI   C5A16747  12.423  10.176   8.067 -0.0404  0.0886  0.3178
 1047loPI   C6A16748  12.308  10.657   8.176  0.0531 -0.2974  0.0237
 1047loPI   C1B16749  12.992   9.848   6.668  0.1082 -0.2222  0.0364
 1047loPI   C2B16750  12.932   9.878   7.163 -0.0683 -0.1135  0.0812
 1047loPI   C3B16751  12.923   9.863   7.565  0.1183 -0.1391 -0.0898
 1047loPI   C4B16752  12.922   9.886   7.996 -0.0624  0.0171  0.2641
 1048loPI    C116753  12.831  12.393   5.369 -0.0017 -0.3233  0.0624
 1048loPI    C216754  13.126  12.504   5.122  0.0589 -0.0738  0.2443
 1048loPI    C316755  12.800  12.325   4.976  0.2309 -0.2103  0.0227
 1048loPI   PO416756  12.958  12.484   5.577  0.0616 -0.0952 -0.1824
 1048loPI   GL116757  12.862  12.430   5.946  0.0302  0.0085 -0.0199
 1048loPI   GL216758  13.195  12.269   6.087  0.2703  0.1589 -0.1424
 1048loPI   C1A16759  12.789  12.540   6.333 -0.0817  0.0268  0.0717
 1048loPI   C2A16760  12.613  12.467   6.667  0.2725  0.1245 -0.0946
 1048loPI   C3A16761  12.648  12.480   7.103  0.0171 -0.0809  0.1007
 1048loPI   C4A16762  12.600  12.400   7.486 -0.2360  0.0848 -0.1104
 1048loPI   C5A16763  12.591  12.332   7.974 -0.1643 -0.2425  0.1097
 1048loPI   C6A16764  12.873  12.169   8.297  0.2491  0.0203  0.0672
 1048loPI   C1B16765  13.150  12.251   6.531  0.1735 -0.0788  0.0684
 1048loPI   C2B16766  13.172  12.419   6.927  0.2160  0.0598 -0.0172
 1048loPI   C3B16767  13.078  12.313   7.360  0.0585 -0.1311 -0.2047
 1048loPI   C4B16768  13.057  12.176   7.845  0.1878 -0.1328  0.1615
 1049loPI    C116769  16.319   8.590   5.778  0.0045  0.0538  0.0965
 1049loPI    C216770  16.340   8.192   5.812  0.0169  0.0563  0.1193
 1049loPI    C316771  16.254   8.358   5.458  0.0899  0.0363  0.0919
 1049loPI   PO416772  16.176   8.643   6.095  0.0436 -0.0147  0.2130
 1049loPI   GL116773  16.285   8.553   6.491 -0.0692 -0.1354  0.2480
 1049loPI   GL216774  16.387   8.228   6.654 -0.1360 -0.3679 -0.0877
 1049loPI   C1A16775  16.435   8.696   6.831 -0.0868 -0.0533  0.0903
 1049loPI   C2A16776  16.417   8.704   7.233  0.3972  0.1805 -0.1775
 1049loPI   C3A16777  16.263   8.699   7.599 -0.3687 -0.0377 -0.2028
 1049loPI   C4A16778  16.211   8.711   8.026  0.0214 -0.0523 -0.0233
 1049loPI   C5A16779  16.201   8.974   8.350  0.0376  0.1018 -0.1055
 1049loPI   C6A16780  16.259   9.041   8.745 -0.0524  0.0429  0.0094
 1049loPI   C1B16781  16.464   8.230   7.053 -0.2919  0.3475  0.1073
 1049loPI   C2B16782  16.314   8.220   7.394 -0.0606  0.1697  0.0056
 1049loPI   C3B16783  16.296   8.249   7.948 -0.1713  0.0565  0.4131
 1049loPI   C4B16784  16.296   8.286   8.297  0.1235 -0.1064 -0.2301
 1050loPI    C116785   4.281  15.990   5.446 -0.0747  0.1103 -0.1025
 1050loPI    C216786   4.551  16.076   5.164  0.1228 -0.3301 -0.0556
 1050loPI    C316787   4.278  15.790   5.100 -0.2461  0.0104 -0.0447
 1050loPI   PO416788   4.449  16.037   5.687  0.0137 -0.0442 -0.1196
 1050loPI   GL116789   4.453  15.976   6.108 -0.0160 -0.2399  0.0523
 1050loPI   GL216790   4.734  16.001   6.367  0.0745 -0.0577 -0.1989
 1050loPI   C1A16791   4.273  16.085   6.536  0.0506 -0.1820  0.0810
 1050loPI   C2A16792   4.319  16.103   6.891  0.0951 -0.1736 -0.1440
 1050loPI   C3A16793   4.262  16.157   7.350 -0.1901 -0.0643  0.3163
 1050loPI   C4A16794   4.208  16.079   7.722  0.2826 -0.0849  0.2518
 1050loPI   C5A16795   4.262  16.050   8.161 -0.2077  0.1629  0.0956
 1050loPI   C6A16796   4.546  15.840   8.404  0.0891 -0.1500 -0.0668
 1050loPI   C1B16797   4.822  15.893   6.807  0.1262  0.2834  0.1473
 1050loPI   C2B16798   4.820  15.984   7.172  0.2524 -0.1352  0.3627
 1050loPI   C3B16799   4.766  16.009   7.584  0.2095 -0.0670  0.3100
 1050loPI   C4B16800   4.681  15.866   7.964  0.2880 -0.2128  0.0266
 1051loPI    C116801  12.573  14.743   5.324  0.0351 -0.0069 -0.1416
 1051loPI    C216802  12.508  15.120   5.208 -0.1695 -0.0988 -0.3337
 1051loPI    C316803  12.496  14.823   4.940 -0.0563 -0.2480 -0.1757
 1051loPI   PO416804  12.771  14.783   5.547 -0.1732  0.2398 -0.1062
 1051loPI   GL116805  12.982  14.883   5.848  0.0182 -0.0465 -0.1271
 1051loPI   GL216806  12.967  15.129   6.105  0.0646  0.2971 -0.0017
 1051loPI   C1A16807  13.185  14.622   6.196  0.1023 -0.1520 -0.3158
 1051loPI   C2A16808  13.142  14.638   6.604  0.1610 -0.1529  0.0964
 1051loPI   C3A16809  13.197  14.608   7.064 -0.4646 -0.1009  0.1714
 1051loPI   C4A16810  13.121  14.610   7.468  0.0160 -0.0917 -0.1491
 1051loPI   C5A16811  13.193  14.731   7.987  0.0077  0.5975  0.0525
 1051loPI   C6A16812  13.188  14.433   8.369  0.0559 -0.0027  0.1423
 1051loPI   C1B16813  13.055  15.105   6.530 -0.3689 -0.1480 -0.0448
 1051loPI   C2B16814  12.952  15.133   6.927 -0.0906 -0.0843  0.1111
 1051loPI   C3B16815  13.099  15.097   7.388 -0.0009  0.1321 -0.2905
 1051loPI   C4B16816  13.160  15.225   7.810  0.2321 -0.2066 -0.1236
 1052loPI    C116817  10.503  15.945   5.748  0.0304 -0.1562  0.0188
 1052loPI    C216818  10.881  16.073   5.711 -0.0336 -0.0056 -0.1251
 1052loPI    C316819  10.673  15.964   5.386 -0.1561  0.0346 -0.0610
 1052loPI   PO416820  10.522  15.882   6.056  0.3720  0.0064 -0.0167
 1052loPI   GL116821  10.538  16.122   6.333  0.1286 -0.4033  0.0039
 1052loPI   GL216822  10.171  16.213   6.408  0.0423  0.0658  0.0701
 1052loPI   C1A16823  10.616  16.014   6.671 -0.3964 -0.0108 -0.2923
 1052loPI   C2A16824  10.572  16.037   7.061  0.1152 -0.0435  0.0718
 1052loPI   C3A16825  10.621  16.158   7.515  0.2331 -0.2767 -0.3123
 1052loPI   C4A16826  10.724  16.100   7.959 -0.0434 -0.0724 -0.0974
 1052loPI   C5A16827  10.899  15.880   8.362  0.1831  0.2474 -0.0194
 1052loPI   C6A16828  10.938  15.580   8.763  0.2900  0.1380 -0.0606
 1052loPI   C1B16829  10.012  16.223   6.874 -0.1783 -0.0815 -0.0427
 1052loPI   C2B16830  10.095  16.346   7.311  0.0901  0.0597  0.1409
 1052loPI   C3B16831  10.116  16.363   7.684 -0.0496  0.6025  0.0942
 1052loPI   C4B16832  10.250  16.207   8.066  0.2322 -0.2318  0.2441
 1053loPI    C116833  16.182  10.066   5.478  0.1667 -0.0554  0.1033
 1053loPI    C216834  15.975  10.066   5.136  0.3436 -0.1126 -0.0045
 1053loPI    C316835  16.217  10.372   5.223  0.1683 -0.0169  0.1497
 1053loPI   PO416836  15.995  10.080   5.655  0.1076  0.1694  0.1395
 1053loPI   GL116837  15.926  10.179   5.999 -0.1235 -0.0894  0.0663
 1053loPI   GL216838  15.821   9.858   6.161 -0.0181 -0.0965 -0.3616
 1053loPI   C1A16839  15.679  10.292   6.335 -0.0202 -0.0970  0.1761
 1053loPI   C2A16840  15.625  10.405   6.781 -0.2509 -0.0629 -0.1367
 1053loPI   C3A16841  15.614  10.355   7.183 -0.0692 -0.1462 -0.5768
 1053loPI   C4A16842  15.510  10.344   7.634  0.0928 -0.0368  0.0185
 1053loPI   C5A16843  15.491  10.412   8.021  0.1361  0.1591  0.0174
 1053loPI   C6A16844  15.685  10.248   8.326 -0.0964  0.3093  0.4374
 1053loPI   C1B16845  15.665   9.885   6.616 -0.0436 -0.1845  0.1485
 1053loPI   C2B16846  15.671   9.859   7.085 -0.0702 -0.0727  0.2982
 1053loPI   C3B16847  15.655   9.893   7.589 -0.2124  0.0959 -0.0117
 1053loPI   C4B16848  15.538   9.935   7.956  0.0564 -0.0178 -0.0386
 1054loPI    C116849   2.656  16.088   5.619  0.0130  0.1543 -0.0095
 1054loPI    C216850   2.967  15.847   5.687 -0.0358  0.0641 -0.1036
 1054loPI    C316851   2.954  16.067   5.353 -0.0903  0.0398 -0.1175
 1054loPI   PO416852   2.654  16.230   5.826  0.0437 -0.0951 -0.0809
 1054loPI   GL116853   2.531  16.146   6.312 -0.1874  0.0117  0.1128
 1054loPI   GL216854   2.553  15.735   6.409 -0.1972 -0.0551 -0.2981
 1054loPI   C1A16855   2.419  16.299   6.680 -0.0946 -0.0183 -0.1065
 1054loPI   C2A16856   2.409  16.421   7.127 -0.0319  0.2020 -0.1259
 1054loPI   C3A16857   2.431  16.437   7.524  0.0788  0.1025  0.1369
 1054loPI   C4A16858   2.438  16.392   7.965  0.0024 -0.1599 -0.3787
 1054loPI   C5A16859   2.257  16.437   8.321  0.1293  0.1028  0.1363
 1054loPI   C6A16860   1.860  16.407   8.375 -0.0433  0.2571  0.1681
 1054loPI   C1B16861   2.564  15.850   6.783  0.3066 -0.0992 -0.2399
 1054loPI   C2B16862   2.478  15.935   7.298 -0.3013 -0.1173  0.1619
 1054loPI   C3B16863   2.405  15.894   7.782  0.3038  0.0163 -0.0549
 1054loPI   C4B16864   2.454  15.846   8.215  0.2596 -0.0142  0.1034
 1055loPI    C116865   0.221  10.447   5.589  0.0664 -0.0062 -0.1189
 1055loPI    C216866   0.203  10.128   5.348 -0.1582  0.0229 -0.1426
 1055loPI    C316867   0.417  10.448   5.240 -0.0421 -0.0670 -0.1806
 1055loPI   PO416868   0.200  10.377   5.814  0.1686  0.0170 -0.0977
 1055loPI   GL116869   0.343  10.460   6.177 -0.1730  0.1375  0.2155
 1055loPI   GL216870   0.452  10.135   6.260 -0.2032 -0.1029  0.0772
 1055loPI   C1A16871   0.202  10.471   6.617 -0.0689  0.0698 -0.0785
 1055loPI   C2A16872   0.261  10.483   7.061  0.0697 -0.0467 -0.0424
 1055loPI   C3A16873   0.031  10.569   7.488 -0.0844 -0.0711  0.3399
 1055loPI   C4A16874   0.031  10.490   7.907  0.0781 -0.0717 -0.0129
 1055loPI   C5A16875  -0.101  10.307   8.316  0.1793 -0.1404  0.0587
 1055loPI   C6A16876  -0.356   9.943   8.348 -0.1723  0.0732  0.1286
 1055loPI   C1B16877   0.312  10.008   6.682  0.0824  0.1760 -0.0849
 1055loPI   C2B16878   0.203  10.026   7.241  0.2826 -0.1408 -0.3384
 1055loPI   C3B16879   0.151  10.049   7.651  0.0763  0.3219 -0.1561
 1055loPI   C4B16880   0.118   9.923   8.109 -0.1634 -0.0582  0.3025
 1056loPI    C116881   3.628   7.035   5.643  0.1530 -0.1243  0.0036
 1056loPI    C216882   3.728   7.407   5.537  0.2592 -0.1523  0.0052
 1056loPI    C316883   3.618   7.142   5.258  0.3373 -0.1655 -0.0133
 1056loPI   PO416884   3.515   7.060   5.866 -0.0667  0.1003  0.2951
 1056loPI   GL116885   3.415   7.367   6.329  0.1328  0.1051  0.0181
 1056loPI   GL216886   3.637   7.198   6.414 -0.0451  0.3396  0.0277
 1056loPI   C1A16887   3.312   7.315   6.789  0.2894  0.0162  0.0399
 1056loPI   C2A16888   3.293   7.294   7.245  0.0478  0.1325  0.0771
 1056loPI   C3A16889   3.310   7.299   7.696 -0.3682 -0.0935 -0.1752
 1056loPI   C4A16890   3.261   7.304   8.111 -0.0183  0.0325 -0.2079
 1056loPI   C5A16891   3.032   7.160   8.482 -0.0146 -0.1234  0.2012
 1056loPI   C6A16892   2.857   7.238   8.847 -0.4685 -0.0705 -0.0395
 1056loPI   C1B16893   3.779   7.205   6.887  0.0203  0.1202 -0.0656
 1056loPI   C2B16894   3.785   7.232   7.310 -0.3369  0.0915  0.2042
 1056loPI   C3B16895   3.780   7.130   7.697 -0.0082  0.1800 -0.0305
 1056loPI   C4B16896   3.743   7.150   8.140  0.0345 -0.2818 -0.0411
 1057loPI    C116897  15.129   3.085   5.379  0.0232  0.0214 -0.0978
 1057loPI    C216898  14.773   3.097   5.196 -0.1445  0.0294  0.2210
 1057loPI    C316899  14.977   2.753   5.217  0.0322  0.0970 -0.2631
 1057loPI   PO416900  15.087   3.195   5.609 -0.0234  0.0959 -0.0683
 1057loPI   GL116901  15.124   3.173   5.915  0.1535 -0.1997  0.0828
 1057loPI   GL216902  14.830   3.273   6.080  0.0727 -0.0117 -0.2803
 1057loPI   C1A16903  15.071   2.963   6.337  0.2548 -0.0771 -0.3652
 1057loPI   C2A16904  14.931   2.993   6.747  0.0185  0.2806 -0.1673
 1057loPI   C3A16905  14.965   2.953   7.106 -0.3285 -0.2962  0.1985
 1057loPI   C4A16906  14.953   2.955   7.552 -0.1934 -0.0542  0.4108
 1057loPI   C5A16907  14.896   3.023   7.953 -0.3384  0.4325  0.1214
 1057loPI   C6A16908  15.001   2.858   8.266  0.3050  0.0401 -0.0685
 1057loPI   C1B16909  14.880   3.388   6.462  0.0199  0.0378  0.0331
 1057loPI   C2B16910  14.868   3.470   6.881 -0.1197 -0.2839 -0.0525
 1057loPI   C3B16911  14.850   3.427   7.314 -0.4332 -0.2216 -0.1109
 1057loPI   C4B16912  14.905   3.549   7.796  0.1140 -0.1347 -0.1828
 1058loPI    C116913   6.472  14.407   5.723  0.1982 -0.0075  0.0788
 1058loPI    C216914   6.232  14.657   5.524 -0.0007 -0.0580  0.2525
 1058loPI    C316915   6.625  14.659   5.453 -0.0461  0.0527 -0.0060
 1058loPI   PO416916   6.364  14.407   5.947  0.1229  0.0570 -0.2662
 1058loPI   GL116917   6.610  14.348   6.350  0.3631  0.2108 -0.0959
 1058loPI   GL216918   6.546  13.988   6.455  0.2944 -0.2417 -0.1785
 1058loPI   C1A16919   6.434  14.410   6.746 -0.2618  0.0452 -0.1837
 1058loPI   C2A16920   6.356  14.383   7.221 -0.1021 -0.1765 -0.4602
 1058loPI   C3A16921   6.364  14.394   7.654  0.1556  0.1003  0.0507
 1058loPI   C4A16922   6.238  14.375   8.050 -0.0820 -0.1103  0.0779
 1058loPI   C5A16923   6.068  14.480   8.551 -0.1479 -0.2035  0.1440
 1058loPI   C6A16924   5.880  14.173   8.953 -0.3734 -0.2379 -0.1082
 1058loPI   C1B16925   6.594  13.822   6.875 -0.0418 -0.3609  0.0971
 1058loPI   C2B16926   6.433  13.867   7.364 -0.0913  0.0142  0.4698
 1058loPI   C3B16927   6.381  13.844   7.686 -0.1275 -0.4201  0.2060
 1058loPI   C4B16928   6.399  13.791   8.114 -0.1610 -0.1083 -0.2128
 1059loPI    C116929  15.696   4.175   5.467  0.0351  0.0151  0.1207
 1059loPI    C216930  15.569   4.396   5.159 -0.0410 -0.0315  0.1184
 1059loPI    C316931  15.888   4.159   5.117 -0.1828 -0.2051  0.0082
 1059loPI   PO416932  15.790   4.267   5.768 -0.1961  0.0186 -0.2646
 1059loPI   GL116933  15.664   4.484   6.212  0.0805  0.2647 -0.0586
 1059loPI   GL216934  15.435   4.513   6.109  0.3819 -0.2091 -0.1690
 1059loPI   C1A16935  15.708   4.621   6.555 -0.1157  0.5162 -0.1630
 1059loPI   C2A16936  15.667   4.667   7.073 -0.0917  0.3196 -0.0503
 1059loPI   C3A16937  15.623   4.610   7.489  0.3108  0.1962 -0.1743
 1059loPI   C4A16938  15.579   4.663   7.928  0.1292 -0.0903 -0.0697
 1059loPI   C5A16939  15.654   4.642   8.417  0.1256  0.0178  0.0353
 1059loPI   C6A16940  15.707   4.397   8.794 -0.0239 -0.0884 -0.2343
 1059loPI   C1B16941  15.205   4.634   6.457  0.1928 -0.2496  0.0317
 1059loPI   C2B16942  15.173   4.762   6.862 -0.1352 -0.3602  0.3417
 1059loPI   C3B16943  15.242   4.850   7.224  0.0609 -0.0132 -0.0457
 1059loPI   C4B16944  15.117   4.811   7.680 -0.3396  0.2232  0.1609
 1060loPI    C116945   1.610  17.258   5.404 -0.0267  0.0703 -0.2054
 1060loPI    C216946   1.240  17.111   5.367  0.0158 -0.0554 -0.1397
 1060loPI    C316947   1.551  16.862   5.402  0.0694  0.0503  0.1599
 1060loPI   PO416948   1.696  17.405   5.655 -0.1864  0.1551  0.0085
 1060loPI   GL116949   1.847  17.500   6.032  0.0520 -0.0362  0.3693
 1060loPI   GL216950   2.230  17.491   6.127  0.0718  0.1174 -0.1520
 1060loPI   C1A16951   1.809  17.615   6.474 -0.1257  0.1880  0.0212
 1060loPI   C2A16952   1.716  17.487   6.833 -0.3910 -0.0712 -0.1567
 1060loPI   C3A16953   1.830  17.540   7.272  0.0362  0.0817  0.1518
 1060loPI   C4A16954   1.772  17.629   7.659 -0.2663 -0.0148  0.0264
 1060loPI   C5A16955   1.579  17.690   8.098 -0.0885  0.0944  0.0125
 1060loPI   C6A16956   1.329  18.023   8.342 -0.2629 -0.0949 -0.2165
 1060loPI   C1B16957   2.309  17.331   6.590 -0.1237  0.3388  0.2592
 1060loPI   C2B16958   2.215  17.386   7.050  0.1278  0.2234  0.0160
 1060loPI   C3B16959   2.276  17.383   7.453  0.0583  0.3728  0.0140
 1060loPI   C4B16960   2.207  17.419   7.960  0.6123 -0.3837 -0.0065
 1061loPI    C116961   9.451   5.181   5.535 -0.2889  0.0202 -0.0690
 1061loPI    C216962   9.578   4.925   5.256 -0.1145  0.0498 -0.0178
 1061loPI    C316963   9.465   5.294   5.152  0.2249  0.1573 -0.0166
 1061loPI   PO416964   9.287   5.070   5.666 -0.1019  0.0696 -0.3309
 1061loPI   GL116965   9.230   4.799   5.996 -0.2363 -0.0791  0.0462
 1061loPI   GL216966   9.090   5.040   6.104 -0.1887  0.0611  0.0020
 1061loPI   C1A16967   9.280   4.616   6.354 -0.1543 -0.1880 -0.0137
 1061loPI   C2A16968   9.248   4.570   6.726 -0.0725 -0.3035 -0.0872
 1061loPI   C3A16969   9.251   4.662   7.202 -0.1838  0.3272  0.2430
 1061loPI   C4A16970   9.144   4.548   7.634  0.1500  0.2546 -0.0845
 1061loPI   C5A16971   9.114   4.724   8.094 -0.2250  0.2440 -0.0483
 1061loPI   C6A16972   9.192   4.704   8.489  0.1066  0.3616  0.2121
 1061loPI   C1B16973   9.174   5.117   6.543  0.3323 -0.1745 -0.1122
 1061loPI   C2B16974   9.120   5.130   6.953  0.1154 -0.2137  0.0279
 1061loPI   C3B16975   9.070   5.141   7.438  0.0657  0.1131  0.3491
 1061loPI   C4B16976   9.154   5.148   7.837  0.1655 -0.1144 -0.2776
 1062loPI    C116977   5.945  13.408   5.464  0.1754 -0.0962  0.1531
 1062loPI    C216978   5.869  13.117   5.199  0.1275 -0.0775  0.1463
 1062loPI    C316979   6.216  13.317   5.184 -0.0997  0.3040 -0.2574
 1062loPI   PO416980   5.875  13.208   5.754  0.1529  0.2950  0.2709
 1062loPI   GL116981   6.212  13.046   6.031  0.0553  0.1062  0.2762
 1062loPI   GL216982   6.229  13.346   6.050 -0.1480  0.4963  0.0837
 1062loPI   C1A16983   6.162  12.968   6.416 -0.3047  0.1171  0.0184
 1062loPI   C2A16984   6.237  13.011   6.861  0.0344 -0.0603 -0.1587
 1062loPI   C3A16985   6.186  13.018   7.331 -0.2508  0.0329  0.3385
 1062loPI   C4A16986   6.092  13.016   7.799 -0.0964 -0.0420  0.1191
 1062loPI   C5A16987   6.061  13.145   8.232 -0.1381 -0.1524 -0.0831
 1062loPI   C6A16988   5.994  13.605   8.335  0.0667  0.2095  0.1614
 1062loPI   C1B16989   6.127  13.465   6.430  0.0864  0.1369 -0.1010
 1062loPI   C2B16990   6.102  13.468   6.878 -0.1010 -0.0552  0.1220
 1062loPI   C3B16991   6.053  13.511   7.402 -0.0685 -0.0727 -0.0673
 1062loPI   C4B16992   6.004  13.553   7.820 -0.3981 -0.0027 -0.1958
 1063loPI    C116993   6.163   8.489   5.542  0.2248  0.1685 -0.2659
 1063loPI    C216994   6.420   8.216   5.681 -0.2348 -0.1126  0.0611
 1063loPI    C316995   6.353   8.245   5.288  0.1790 -0.1349 -0.0155
 1063loPI   PO416996   6.071   8.596   5.760  0.0143  0.3254 -0.0660
 1063loPI   GL116997   6.147   8.398   6.064 -0.3777  0.0755  0.0188
 1063loPI   GL216998   6.177   8.096   6.118 -0.0758 -0.1995  0.0739
 1063loPI   C1A16999   6.028   8.334   6.518  0.0650 -0.1402  0.0461
 1063loPI   C2A17000   5.942   8.339   7.028  0.1023  0.1274  0.0191
 1063loPI   C3A17001   5.950   8.313   7.425 -0.0296 -0.0537  0.0030
 1063loPI   C4A17002   5.799   8.284   7.843 -0.1803  0.1243  0.0625
 1063loPI   C5A17003   5.635   8.413   8.230  0.0967 -0.0195  0.1932
 1063loPI   C6A17004   5.670   8.442   8.703 -0.1480 -0.0614 -0.2216
 1063loPI   C1B17005   6.448   8.114   6.582  0.2130 -0.1861  0.2447
 1063loPI   C2B17006   6.472   8.229   6.924 -0.0289 -0.1184  0.2447
 1063loPI   C3B17007   6.454   8.093   7.366 -0.0100 -0.0382 -0.2213
 1063loPI   C4B17008   6.350   8.094   7.775  0.0532  0.2253 -0.0931
 1064loPI    C117009   0.630  17.775   5.501  0.2452  0.0398 -0.0097
 1064loPI    C217010   0.730  17.444   5.299  0.1568 -0.0516  0.0957
 1064loPI    C317011   0.487  17.715   5.132  0.0878 -0.1249  0.0770
 1064loPI   PO417012   0.675  17.688   5.734  0.1935  0.1329  0.0886
 1064loPI   GL117013   0.536  17.625   6.042 -0.1600 -0.1096 -0.0835
 1064loPI   GL217014   0.174  17.651   6.078 -0.0696  0.0361  0.0919
 1064loPI   C1A17015   0.530  17.578   6.470 -0.2792 -0.0473 -0.0581
 1064loPI   C2A17016   0.428  17.580   6.915 -0.3106  0.1531  0.2459
 1064loPI   C3A17017   0.422  17.600   7.371 -0.0730  0.0706  0.0905
 1064loPI   C4A17018   0.430  17.587   7.808 -0.4054 -0.1101 -0.2671
 1064loPI   C5A17019   0.446  17.522   8.284  0.3678  0.0494 -0.0399
 1064loPI   C6A17020   0.178  17.408   8.614  0.0429  0.2556 -0.0503
 1064loPI   C1B17021   0.032  17.714   6.551  0.1147 -0.0423 -0.3500
 1064loPI   C2B17022  -0.073  17.813   7.039 -0.0612  0.1034  0.0684
 1064loPI   C3B17023  -0.070  17.808   7.553 -0.2207  0.0637 -0.0599
 1064loPI   C4B17024  -0.131  17.694   8.022 -0.3724  0.1539  0.0472
 1065loPI    C117025  12.134  13.126   5.507  0.2157 -0.2616 -0.0683
 1065loPI    C217026  11.954  13.457   5.373  0.0118 -0.2540  0.2165
 1065loPI    C317027  11.892  13.108   5.189  0.1763 -0.1482 -0.0454
 1065loPI   PO417028  12.196  13.230   5.724 -0.2963  0.0169  0.2504
 1065loPI   GL117029  12.378  13.018   5.999 -0.2337 -0.1468  0.1401
 1065loPI   GL217030  12.115  13.073   6.186 -0.1297 -0.3016 -0.1608
 1065loPI   C1A17031  12.579  12.973   6.391 -0.0535 -0.3901 -0.1523
 1065loPI   C2A17032  12.552  12.946   6.836  0.0747 -0.1499  0.0009
 1065loPI   C3A17033  12.560  12.902   7.322  0.1083 -0.0331 -0.3628
 1065loPI   C4A17034  12.516  13.018   7.637 -0.1399 -0.1060 -0.2119
 1065loPI   C5A17035  12.470  12.869   8.023 -0.1505 -0.1577 -0.2222
 1065loPI   C6A17036  12.470  13.032   8.417  0.1639 -0.0354 -0.1459
 1065loPI   C1B17037  12.123  13.088   6.636 -0.3175 -0.0777 -0.2229
 1065loPI   C2B17038  12.083  13.076   7.033 -0.0896  0.0081  0.0361
 1065loPI   C3B17039  12.018  13.143   7.528 -0.0296  0.3535  0.0606
 1065loPI   C4B17040  12.125  13.298   7.943 -0.2582 -0.3820  0.1564
 1066loPI    C117041   7.330  10.139   5.779 -0.0433 -0.1772  0.0518
 1066loPI    C217042   7.015  10.005   5.987 -0.1128  0.0081  0.0684
 1066loPI    C317043   7.012   9.989   5.587 -0.1689  0.0648  0.0665
 1066loPI   PO417044   7.441  10.321   5.872  0.2149 -0.2124 -0.1734
 1066loPI   GL117045   7.519  10.263   6.247  0.0502 -0.0801  0.0418
 1066loPI   GL217046   7.471  10.609   6.247 -0.0861 -0.2965 -0.1484
 1066loPI   C1A17047   7.577  10.115   6.579  0.1665 -0.1730  0.0477
 1066loPI   C2A17048   7.592  10.085   7.045  0.0353  0.0488  0.0991
 1066loPI   C3A17049   7.519  10.070   7.446 -0.2005 -0.1214  0.1890
 1066loPI   C4A17050   7.474  10.043   7.776 -0.2646 -0.2370  0.1000
 1066loPI   C5A17051   7.559   9.984   8.155 -0.2228  0.0606 -0.1483
 1066loPI   C6A17052   7.567  10.313   8.455  0.0140 -0.1925  0.2063
 1066loPI   C1B17053   7.462  10.629   6.708 -0.2919  0.1997  0.1347
 1066loPI   C2B17054   7.381  10.607   7.151  0.0696 -0.2459 -0.0489
 1066loPI   C3B17055   7.472  10.594   7.555 -0.2789  0.0101 -0.2653
 1066loPI   C4B17056   7.347  10.589   8.027  0.0890 -0.1852  0.3790
 1067loPI    C117057  12.190   5.936   5.325 -0.0592 -0.1483 -0.0932
 1067loPI    C217058  11.791   5.974   5.327 -0.0446  0.0170 -0.1337
 1067loPI    C317059  11.968   5.723   5.070 -0.1316 -0.1750 -0.0084
 1067loPI   PO417060  12.245   5.915   5.610  0.1188  0.0574  0.1589
 1067loPI   GL117061  12.303   6.105   5.983 -0.0928  0.0374  0.1274
 1067loPI   GL217062  12.499   5.957   5.998  0.0661 -0.0541 -0.0396
 1067loPI   C1A17063  12.281   6.398   6.225  0.2835  0.1359 -0.1506
 1067loPI   C2A17064  12.174   6.410   6.601  0.0269 -0.3339  0.0202
 1067loPI   C3A17065  12.225   6.378   7.053 -0.0825 -0.1652 -0.0247
 1067loPI   C4A17066  12.151   6.409   7.457  0.1038 -0.2841 -0.1748
 1067loPI   C5A17067  12.116   6.358   7.891 -0.0843 -0.3056 -0.2734
 1067loPI   C6A17068  12.034   6.281   8.441 -0.0096 -0.1113  0.0577
 1067loPI   C1B17069  12.279   5.944   6.484  0.2503 -0.0451 -0.2277
 1067loPI   C2B17070  12.202   5.916   6.877 -0.0763 -0.3536 -0.0954
 1067loPI   C3B17071  12.225   5.848   7.287 -0.0722 -0.3161  0.0146
 1067loPI   C4B17072  12.231   5.860   7.757 -0.2278 -0.1020  0.1278
 1068loPI    C117073  13.496   8.988   5.807 -0.0979  0.0259  0.2134
 1068loPI    C217074  13.598   9.042   5.425 -0.0655  0.1474  0.2386
 1068loPI    C317075  13.865   8.895   5.684 -0.1272 -0.0566  0.1881
 1068loPI   PO417076  13.339   9.345   5.839  0.1066 -0.2682 -0.1101
 1068loPI   GL117077  13.051   9.343   6.225 -0.5284 -0.2144  0.1753
 1068loPI   GL217078  13.232   9.066   6.240  0.1978 -0.1419 -0.1232
 1068loPI   C1A17079  13.092   9.373   6.769  0.0443  0.0117  0.0284
 1068loPI   C2A17080  13.009   9.381   7.256 -0.1690  0.0438 -0.3424
 1068loPI   C3A17081  12.995   9.379   7.665 -0.1424  0.2094  0.1770
 1068loPI   C4A17082  12.939   9.289   8.065 -0.3544 -0.1026  0.1318
 1068loPI   C5A17083  13.198   9.015   8.333 -0.1709  0.1843 -0.3419
 1068loPI   C6A17084  13.564   8.799   8.363  0.1045 -0.2089 -0.1196
 1068loPI   C1B17085  13.186   8.884   6.671  0.0325 -0.0022  0.0751
 1068loPI   C2B17086  13.109   8.903   7.030  0.0598 -0.0931  0.0401
 1068loPI   C3B17087  13.096   8.839   7.466  0.2019  0.2822 -0.1544
 1068loPI   C4B17088  13.144   8.886   7.875  0.0335  0.2322  0.3753
 1069loPI    C117089  13.733  10.851   5.550 -0.1769 -0.1487  0.0649
 1069loPI    C217090  14.080  10.729   5.393  0.1078  0.4287  0.2195
 1069loPI    C317091  13.947  11.100   5.322 -0.5663  0.1654  0.0307
 1069loPI   PO417092  13.743  10.765   5.784  0.0149  0.0300 -0.2289
 1069loPI   GL117093  13.688  10.382   6.013  0.1074  0.0212  0.0390
 1069loPI   GL217094  13.438  10.216   6.102 -0.0537  0.1910 -0.0760
 1069loPI   C1A17095  13.839  10.551   6.324 -0.0052  0.2333 -0.3181
 1069loPI   C2A17096  13.828  10.631   6.790 -0.3637 -0.1791  0.2171
 1069loPI   C3A17097  13.716  10.564   7.234 -0.2926  0.1371  0.2675
 1069loPI   C4A17098  13.716  10.533   7.622  0.0898  0.0690 -0.1443
 1069loPI   C5A17099  13.601  10.570   8.108 -0.0489 -0.0406  0.1632
 1069loPI   C6A17100  13.418  10.599   8.504  0.1536  0.2362  0.2863
 1069loPI   C1B17101  13.446  10.136   6.428  0.0505 -0.2522  0.2168
 1069loPI   C2B17102  13.417  10.245   6.851 -0.0874 -0.1942 -0.1134
 1069loPI   C3B17103  13.355  10.232   7.338  0.0147  0.0126 -0.1344
 1069loPI   C4B17104  13.266  10.197   7.775  0.0907 -0.1393 -0.4453
 1070loPI    C117105   9.216   6.002   5.478 -0.0769 -0.1731 -0.1010
 1070loPI    C217106   9.440   6.218   5.226 -0.0705  0.0027  0.0532
 1070loPI    C317107   9.377   5.829   5.155  0.0983  0.0040 -0.1103
 1070loPI   PO417108   9.256   6.062   5.754 -0.0551 -0.2264 -0.1346
 1070loPI   GL117109   9.285   6.200   6.128 -0.1142  0.2071  0.0399
 1070loPI   GL217110   9.531   6.513   6.092 -0.1108 -0.1628  0.2634
 1070loPI   C1A17111   9.106   6.138   6.516  0.2561 -0.1081 -0.4332
 1070loPI   C2A17112   9.060   6.108   6.902 -0.0862  0.3255  0.0399
 1070loPI   C3A17113   9.022   6.070   7.356  0.3600  0.2371  0.1368
 1070loPI   C4A17114   8.973   6.186   7.800 -0.1884 -0.1852  0.2422
 1070loPI   C5A17115   9.235   6.169   8.175 -0.0586 -0.2132 -0.1788
 1070loPI   C6A17116   9.522   6.386   8.444 -0.3199  0.0951  0.1476
 1070loPI   C1B17117   9.518   6.405   6.528 -0.0987 -0.0874  0.1959
 1070loPI   C2B17118   9.475   6.514   6.920 -0.0474 -0.2653  0.0231
 1070loPI   C3B17119   9.377   6.475   7.385  0.0620  0.0122  0.0034
 1070loPI   C4B17120   9.401   6.578   7.812  0.3352 -0.1222 -0.2277
 1071loPI    C117121   4.275   9.743   5.573 -0.1070  0.3436  0.0762
 1071loPI    C217122   4.618   9.871   5.411 -0.1038  0.2475  0.0062
 1071loPI    C317123   4.326   9.729   5.177 -0.0854  0.0742  0.0862
 1071loPI   PO417124   4.408   9.598   5.841  0.0804  0.2306 -0.0704
 1071loPI   GL117125   4.191   9.556   6.205 -0.1676  0.1850 -0.1358
 1071loPI   GL217126   4.336   9.231   6.262 -0.0204  0.0216 -0.1274
 1071loPI   C1A17127   3.917   9.532   6.560 -0.0571 -0.0977  0.0242
 1071loPI   C2A17128   4.005   9.515   7.041 -0.0797 -0.0965 -0.1511
 1071loPI   C3A17129   3.971   9.484   7.417 -0.1687 -0.0408 -0.0937
 1071loPI   C4A17130   3.848   9.469   7.838  0.0782 -0.0042 -0.1117
 1071loPI   C5A17131   3.909   9.497   8.224 -0.1240  0.1222  0.0613
 1071loPI   C6A17132   3.971   9.064   8.304  0.0314 -0.2274 -0.0622
 1071loPI   C1B17133   4.408   9.360   6.626 -0.2142 -0.1744  0.2758
 1071loPI   C2B17134   4.500   9.336   7.054  0.1989  0.2177 -0.0135
 1071loPI   C3B17135   4.402   9.286   7.531 -0.2552  0.0320  0.1776
 1071loPI   C4B17136   4.302   9.236   7.934 -0.1982 -0.0527 -0.2992
 1072loPI    C117137   7.274  12.950   5.393 -0.2284  0.0433 -0.0749
 1072loPI    C217138   7.128  12.949   5.020 -0.2356 -0.3212 -0.0755
 1072loPI    C317139   7.465  12.751   5.103  0.2332  0.4437 -0.0567
 1072loPI   PO417140   7.061  13.018   5.562  0.0796  0.0682 -0.1293
 1072loPI   GL117141   7.092  12.945   6.057 -0.2109 -0.2288 -0.1072
 1072loPI   GL217142   6.982  12.693   5.944  0.2189  0.0489 -0.0965
 1072loPI   C1A17143   7.119  13.065   6.547 -0.0366 -0.1994 -0.0610
 1072loPI   C2A17144   6.991  13.116   6.942  0.0501 -0.0004  0.2944
 1072loPI   C3A17145   6.961  13.148   7.420 -0.0584 -0.3456 -0.0584
 1072loPI   C4A17146   6.978  13.194   7.805  0.0052 -0.1498 -0.1041
 1072loPI   C5A17147   7.046  13.069   8.120 -0.1217  0.1050  0.0150
 1072loPI   C6A17148   7.248  12.699   8.315 -0.1265  0.1001 -0.4455
 1072loPI   C1B17149   7.018  12.618   6.443  0.1224  0.4273  0.1554
 1072loPI   C2B17150   7.160  12.597   6.858  0.0884 -0.1896  0.1025
 1072loPI   C3B17151   7.085  12.659   7.333  0.1774 -0.1616  0.1413
 1072loPI   C4B17152   7.010  12.683   7.792 -0.0061  0.2635  0.0456
 1073loPI    C117153  16.555  12.381   5.537 -0.0114  0.1711 -0.1062
 1073loPI    C217154  16.729  12.061   5.372 -0.0158 -0.0112  0.2319
 1073loPI    C317155  16.470  12.280   5.160  0.0892 -0.1510 -0.0459
 1073loPI   PO417156  16.604  12.299   5.790 -0.0347 -0.4405 -0.0092
 1073loPI   GL117157  16.600  12.010   6.216  0.0587 -0.1080  0.1760
 1073loPI   GL217158  16.814  12.087   6.329 -0.1461 -0.0729  0.0091
 1073loPI   C1A17159  16.416  12.068   6.624  0.0000 -0.1661 -0.1046
 1073loPI   C2A17160  16.334  12.032   6.998 -0.0390  0.0088 -0.3170
 1073loPI   C3A17161  16.329  12.017   7.379 -0.1095  0.2185  0.2729
 1073loPI   C4A17162  16.303  12.036   7.781  0.1050 -0.4594 -0.3046
 1073loPI   C5A17163  16.441  12.013   8.167 -0.0269  0.1310 -0.0607
 1073loPI   C6A17164  16.590  12.353   8.426  0.1364  0.0578 -0.1229
 1073loPI   C1B17165  16.891  11.853   6.596 -0.1117 -0.0832  0.0616
 1073loPI   C2B17166  16.799  11.892   6.983  0.2021  0.0358 -0.0769
 1073loPI   C3B17167  16.876  11.971   7.379 -0.2105 -0.0970 -0.2396
 1073loPI   C4B17168  16.757  11.792   7.845 -0.0347 -0.0508  0.1334
 1074loPI    C117169   7.032   3.046   5.636  0.0346 -0.1138  0.1293
 1074loPI    C217170   6.899   3.075   5.259  0.0756  0.0063  0.1237
 1074loPI    C317171   7.289   3.022   5.331  0.0548 -0.1188  0.1468
 1074loPI   PO417172   6.995   3.277   5.778  0.0419  0.0810  0.1701
 1074loPI   GL117173   7.323   3.319   6.052 -0.3333  0.4206 -0.0643
 1074loPI   GL217174   7.192   3.550   6.146 -0.0668 -0.0297 -0.1464
 1074loPI   C1A17175   7.608   3.369   6.341  0.1757  0.0915  0.1086
 1074loPI   C2A17176   7.598   3.315   6.785  0.0818  0.1487  0.2192
 1074loPI   C3A17177   7.564   3.299   7.273 -0.2209  0.0067  0.0655
 1074loPI   C4A17178   7.486   3.345   7.781 -0.1471  0.3156 -0.0363
 1074loPI   C5A17179   7.432   3.198   8.211 -0.0125  0.1601  0.1601
 1074loPI   C6A17180   7.309   2.957   8.546 -0.5396 -0.4433  0.0316
 1074loPI   C1B17181   7.121   3.489   6.499 -0.1872 -0.2206 -0.1178
 1074loPI   C2B17182   7.111   3.515   6.999  0.1982 -0.1285 -0.1009
 1074loPI   C3B17183   7.094   3.480   7.389  0.2017 -0.3754 -0.2361
 1074loPI   C4B17184   7.062   3.495   7.946 -0.1973 -0.0446 -0.0655
 1075loPI    C117185   9.637  14.764   5.699  0.0329  0.1928  0.3298
 1075loPI    C217186   9.687  15.115   5.513  0.1000  0.0815  0.1350
 1075loPI    C317187   9.980  14.842   5.509 -0.0329 -0.0625  0.0986
 1075loPI   PO417188   9.605  14.801   5.904  0.1881  0.0219  0.1386
 1075loPI   GL117189   9.651  14.750   6.347 -0.4265  0.0349  0.2556
 1075loPI   GL217190   9.548  14.553   6.506 -0.1291 -0.1927 -0.1196
 1075loPI   C1A17191   9.909  14.947   6.749 -0.0927  0.1032 -0.0942
 1075loPI   C2A17192   9.996  14.928   7.206 -0.2867  0.1997 -0.0222
 1075loPI   C3A17193   9.920  14.989   7.666 -0.0792 -0.0968 -0.1411
 1075loPI   C4A17194   9.834  14.789   8.097 -0.2622  0.1494 -0.0590
 1075loPI   C5A17195   9.826  14.624   8.499  0.4987  0.0323  0.1358
 1075loPI   C6A17196   9.484  14.476   8.754 -0.0933  0.0412  0.2260
 1075loPI   C1B17197   9.588  14.606   6.990  0.0429 -0.2182 -0.1474
 1075loPI   C2B17198   9.521  14.642   7.378 -0.0654 -0.0627 -0.0421
 1075loPI   C3B17199   9.488  14.610   7.777 -0.0903 -0.1154  0.3948
 1075loPI   C4B17200   9.457  14.514   8.180  0.0594 -0.2689  0.1497
 1076loPI    C117201   5.713   2.482   5.650 -0.0226  0.0738  0.2110
 1076loPI    C217202   5.717   2.810   5.423  0.2244 -0.0618  0.0143
 1076loPI    C317203   5.669   2.451   5.254 -0.0886 -0.1262  0.2328
 1076loPI   PO417204   5.875   2.487   5.851  0.0034 -0.0395  0.0048
 1076loPI   GL117205   5.994   2.469   6.318 -0.4230  0.3285 -0.2898
 1076loPI   GL217206   6.405   2.552   6.270  0.1464  0.2872  0.1066
 1076loPI   C1A17207   5.904   2.456   6.788 -0.1644  0.0726 -0.0118
 1076loPI   C2A17208   5.877   2.520   7.207 -0.0375 -0.1883  0.0263
 1076loPI   C3A17209   5.941   2.679   7.694 -0.1913 -0.2171 -0.0569
 1076loPI   C4A17210   6.018   2.584   8.124 -0.1932  0.2533  0.0514
 1076loPI   C5A17211   5.775   2.370   8.449 -0.1936 -0.1548 -0.0956
 1076loPI   C6A17212   5.484   2.092   8.635 -0.1126 -0.1052  0.1506
 1076loPI   C1B17213   6.235   2.817   6.613 -0.2702 -0.0182 -0.2200
 1076loPI   C2B17214   6.201   2.864   7.040 -0.1295  0.3087 -0.0622
 1076loPI   C3B17215   6.262   2.958   7.394  0.0249 -0.0003 -0.0270
 1076loPI   C4B17216   6.374   2.903   7.901  0.0375  0.1969  0.0227
 1077loPI    C117217   3.672   6.031   5.575 -0.0056 -0.0871  0.0936
 1077loPI    C217218   3.479   6.170   5.253  0.0949 -0.1067  0.0246
 1077loPI    C317219   3.767   5.895   5.211  0.1586 -0.0558  0.1242
 1077loPI   PO417220   3.545   6.168   5.786  0.1728  0.1110 -0.4104
 1077loPI   GL117221   3.472   6.233   6.091  0.0307 -0.0447  0.2376
 1077loPI   GL217222   3.756   6.243   6.222 -0.0646 -0.0417  0.3166
 1077loPI   C1A17223   3.461   6.308   6.619 -0.1303  0.0888 -0.0608
 1077loPI   C2A17224   3.525   6.347   7.056  0.2384  0.1747  0.0624
 1077loPI   C3A17225   3.410   6.321   7.508  0.1115 -0.3724  0.3122
 1077loPI   C4A17226   3.498   6.329   7.911  0.1098 -0.1152  0.0546
 1077loPI   C5A17227   3.537   6.257   8.308 -0.2074 -0.3843 -0.0830
 1077loPI   C6A17228   3.601   5.946   8.592 -0.0130  0.2304  0.0686
 1077loPI   C1B17229   3.910   6.131   6.564 -0.0098  0.0298 -0.3038
 1077loPI   C2B17230   3.936   6.189   6.951 -0.1165 -0.0944  0.1203
 1077loPI   C3B17231   3.916   6.151   7.460  0.1796  0.1216  0.1723
 1077loPI   C4B17232   3.949   6.184   7.892 -0.0698 -0.0485  0.0082
 1078loPI    C117233   1.279  14.669   5.637  0.0711 -0.1310  0.0164
 1078loPI    C217234   0.976  14.613   5.382 -0.0862  0.1389  0.1400
 1078loPI    C317235   1.353  14.592   5.251 -0.1635  0.1724 -0.0929
 1078loPI   PO417236   1.160  14.802   5.749  0.0329 -0.3483  0.0088
 1078loPI   GL117237   1.232  14.977   6.145  0.0221 -0.2029  0.1803
 1078loPI   GL217238   0.943  14.718   6.160 -0.1265 -0.2829 -0.3155
 1078loPI   C1A17239   1.404  14.872   6.493 -0.3141 -0.0569 -0.2963
 1078loPI   C2A17240   1.276  14.869   6.846  0.1475 -0.0312 -0.4484
 1078loPI   C3A17241   1.285  14.942   7.167 -0.0683  0.1955 -0.0132
 1078loPI   C4A17242   1.301  14.864   7.604  0.2247 -0.1061  0.0423
 1078loPI   C5A17243   1.224  14.877   8.001 -0.0830  0.3050 -0.2694
 1078loPI   C6A17244   1.208  14.699   8.473 -0.2784  0.2166 -0.1884
 1078loPI   C1B17245   0.953  14.472   6.605  0.0362  0.1143 -0.0790
 1078loPI   C2B17246   0.874  14.507   7.042 -0.0059  0.1739  0.1313
 1078loPI   C3B17247   0.908  14.529   7.523 -0.2291  0.1946  0.0945
 1078loPI   C4B17248   0.852  14.576   7.981 -0.0526 -0.0036 -0.0400
 1079loPI    C117249   6.295   1.319   5.637  0.1622  0.2306 -0.1480
 1079loPI    C217250   6.463   0.968   5.545  0.0858  0.1570 -0.0095
 1079loPI    C317251   6.446   1.259   5.271 -0.2127 -0.0863 -0.2578
 1079loPI   PO417252   6.120   1.181   5.828  0.5134 -0.1605  0.0066
 1079loPI   GL117253   6.002   1.342   6.294 -0.1679 -0.1268  0.0024
 1079loPI   GL217254   6.057   1.091   6.439  0.5082 -0.1558 -0.0055
 1079loPI   C1A17255   6.076   1.473   6.703 -0.0094  0.1406  0.1708
 1079loPI   C2A17256   6.031   1.579   7.140  0.1000 -0.1185  0.2440
 1079loPI   C3A17257   6.004   1.489   7.545 -0.2327  0.1705  0.1703
 1079loPI   C4A17258   6.048   1.480   8.037  0.0310  0.0112  0.1976
 1079loPI   C5A17259   6.060   1.429   8.438 -0.0292  0.0780  0.1123
 1079loPI   C6A17260   6.056   1.410   8.848  0.0011  0.0672  0.0671
 1079loPI   C1B17261   6.184   1.011   6.927 -0.1285 -0.1403 -0.1401
 1079loPI   C2B17262   6.071   0.950   7.343 -0.1422  0.2382  0.1684
 1079loPI   C3B17263   6.054   0.990   7.704 -0.2752 -0.0879 -0.3231
 1079loPI   C4B17264   5.977   0.942   8.153  0.1507 -0.1582 -0.1477
 1080loPI    C117265   4.006   0.034   5.697 -0.0183  0.2106  0.1690
 1080loPI    C217266   3.706   0.247   5.541  0.0191  0.2186  0.1074
 1080loPI    C317267   3.886  -0.035   5.321  0.0009  0.1558  0.1727
 1080loPI   PO417268   3.909  -0.098   5.949 -0.1652 -0.2412  0.4498
 1080loPI   GL117269   4.062  -0.223   6.369  0.1190 -0.2422  0.1156
 1080loPI   GL217270   4.108  -0.535   6.456  0.0782 -0.1902  0.0040
 1080loPI   C1A17271   4.003  -0.109   6.779  0.4921  0.1402 -0.3920
 1080loPI   C2A17272   4.012  -0.195   7.255  0.1902  0.3064 -0.1121
 1080loPI   C3A17273   4.021  -0.130   7.707  0.0482  0.1528  0.0334
 1080loPI   C4A17274   3.888   0.036   8.107  0.2484 -0.0503  0.0941
 1080loPI   C5A17275   3.947   0.168   8.614  0.0583 -0.2150  0.0906
 1080loPI   C6A17276   3.707   0.329   8.937 -0.0074 -0.1510 -0.1341
 1080loPI   C1B17277   4.103  -0.627   6.931 -0.0257 -0.3494 -0.1706
 1080loPI   C2B17278   4.007  -0.696   7.415  0.0995  0.0581  0.0748
 1080loPI   C3B17279   4.042  -0.610   7.900  0.0704 -0.1352 -0.1044
 1080loPI   C4B17280   3.977  -0.741   8.276 -0.0875  0.0791  0.1492
 1081loPI    C117281   6.121   0.639   5.711  0.0865  0.2939 -0.0742
 1081loPI    C217282   5.856   0.469   5.464 -0.1638  0.1323  0.2968
 1081loPI    C317283   6.154   0.251   5.619 -0.0768  0.2042  0.2314
 1081loPI   PO417284   5.985   0.743   5.944 -0.2999  0.2673  0.1809
 1081loPI   GL117285   5.757   0.613   6.377 -0.1467 -0.3463  0.2085
 1081loPI   GL217286   5.519   0.397   6.370 -0.2431 -0.1813 -0.1774
 1081loPI   C1A17287   5.812   0.719   6.864  0.0176 -0.4671  0.1543
 1081loPI   C2A17288   5.593   0.717   7.225  0.0905 -0.0817  0.2098
 1081loPI   C3A17289   5.705   0.607   7.605  0.1826  0.2062  0.1701
 1081loPI   C4A17290   5.603   0.729   7.926 -0.0346 -0.0103 -0.1398
 1081loPI   C5A17291   5.628   0.546   8.251 -0.1735  0.1028 -0.0326
 1081loPI   C6A17292   5.970   0.521   8.502  0.1255 -0.0883  0.0269
 1081loPI   C1B17293   5.358   0.380   6.675 -0.0631  0.0462 -0.1547
 1081loPI   C2B17294   5.365   0.322   7.115 -0.0036  0.1495 -0.0336
 1081loPI   C3B17295   5.285   0.319   7.536  0.1931 -0.0431  0.2233
 1081loPI   C4B17296   5.235   0.366   7.972  0.1697 -0.0227 -0.0811
 1082loPI    C117297   8.042   6.640   5.313  0.0130 -0.2275  0.1421
 1082loPI    C217298   8.106   6.984   5.120  0.1667 -0.2967  0.0677
 1082loPI    C317299   7.896   6.692   4.944  0.1236 -0.2794  0.0903
 1082loPI   PO417300   8.130   6.707   5.557  0.1985  0.0286  0.0704
 1082loPI   GL117301   8.105   6.678   5.933  0.0475  0.2097  0.1243
 1082loPI   GL217302   8.060   6.967   6.006 -0.2444 -0.2972  0.0379
 1082loPI   C1A17303   8.071   6.513   6.357 -0.1736  0.2803  0.1673
 1082loPI   C2A17304   8.148   6.569   6.680  0.0632 -0.0463 -0.0246
 1082loPI   C3A17305   8.038   6.600   7.140  0.1287 -0.2628 -0.0749
 1082loPI   C4A17306   8.026   6.525   7.570  0.0258 -0.2647 -0.2942
 1082loPI   C5A17307   8.192   6.668   7.915  0.1411  0.2232 -0.1342
 1082loPI   C6A17308   8.410   6.922   8.175 -0.2168  0.0711 -0.0068
 1082loPI   C1B17309   8.070   7.047   6.392 -0.1658  0.2927 -0.0007
 1082loPI   C2B17310   8.042   7.038   6.886 -0.1114  0.0877  0.1395
 1082loPI   C3B17311   7.925   7.054   7.319  0.0977 -0.2997  0.0506
 1082loPI   C4B17312   7.877   7.053   7.771 -0.1671  0.2061  0.1016
 1083loPI    C117313  10.097   0.718   5.395 -0.0426  0.0455 -0.1502
 1083loPI    C217314   9.882   0.389   5.320  0.0818 -0.0688 -0.0122
 1083loPI    C317315   9.955   0.652   5.027 -0.0120 -0.1674 -0.1250
 1083loPI   PO417316   9.999   0.743   5.695 -0.0031 -0.0927  0.3080
 1083loPI   GL117317  10.040   0.543   6.124 -0.2411 -0.1495  0.1281
 1083loPI   GL217318  10.205   0.289   6.227  0.3339  0.0524 -0.2254
 1083loPI   C1A17319   9.882   0.543   6.587  0.1496 -0.3908 -0.0171
 1083loPI   C2A17320   9.887   0.465   7.052 -0.2267 -0.0484 -0.0584
 1083loPI   C3A17321   9.913   0.586   7.454 -0.1132 -0.1007 -0.3413
 1083loPI   C4A17322   9.826   0.628   7.842  0.0817 -0.1190  0.2524
 1083loPI   C5A17323   9.836   0.557   8.289  0.0659 -0.1208  0.0906
 1083loPI   C6A17324   9.778   0.769   8.632 -0.3325 -0.1199  0.0533
 1083loPI   C1B17325  10.312   0.359   6.748  0.1593  0.0609 -0.0435
 1083loPI   C2B17326  10.420   0.389   7.162  0.1251 -0.0719 -0.0985
 1083loPI   C3B17327  10.363   0.381   7.571 -0.0623  0.2576  0.0628
 1083loPI   C4B17328  10.407   0.405   8.061 -0.1992  0.3525 -0.1997
 1084loPI    C117329   6.440   4.424   5.512  0.0839  0.1326  0.0436
 1084loPI    C217330   6.753   4.203   5.629  0.2024  0.1082 -0.3075
 1084loPI    C317331   6.583   4.137   5.273 -0.0206  0.3147 -0.2424
 1084loPI   PO417332   6.228   4.427   5.701 -0.0602  0.1976  0.1606
 1084loPI   GL117333   6.142   4.433   6.118  0.0815 -0.1360  0.0566
 1084loPI   GL217334   5.988   4.093   6.161 -0.0403 -0.1537  0.0140
 1084loPI   C1A17335   6.150   4.401   6.535  0.1546  0.3897  0.2917
 1084loPI   C2A17336   6.090   4.398   6.967 -0.0797  0.2706  0.0755
 1084loPI   C3A17337   6.077   4.512   7.346  0.0016 -0.0229 -0.0844
 1084loPI   C4A17338   6.090   4.440   7.759  0.0460 -0.0321 -0.1689
 1084loPI   C5A17339   5.990   4.560   8.187 -0.1207 -0.0177  0.2190
 1084loPI   C6A17340   6.071   4.412   8.533  0.1390 -0.1232 -0.3649
 1084loPI   C1B17341   6.133   3.894   6.475  0.0602  0.0116  0.2202
 1084loPI   C2B17342   6.090   3.894   6.908 -0.1047 -0.0965 -0.1658
 1084loPI   C3B17343   6.097   3.952   7.352 -0.1655 -0.0185 -0.0027
 1084loPI   C4B17344   6.206   3.849   7.756  0.1789  0.0236 -0.3667
 1085loPI    C117345  13.697   1.601   5.728 -0.0420 -0.2095 -0.1217
 1085loPI    C217346  13.594   1.988   5.731  0.0452 -0.1857  0.1426
 1085loPI    C317347  13.724   1.817   5.393  0.1016  0.0412  0.0479
 1085loPI   PO417348  13.605   1.558   5.961  0.0940 -0.1402  0.1112
 1085loPI   GL117349  13.420   1.257   6.252  0.3120 -0.1269  0.0518
 1085loPI   GL217350  13.270   1.519   6.372  0.0578 -0.0692 -0.1067
 1085loPI   C1A17351  13.420   1.058   6.605 -0.0300  0.1040  0.1504
 1085loPI   C2A17352  13.429   1.128   7.057 -0.0869 -0.1119  0.3289
 1085loPI   C3A17353  13.440   1.136   7.580 -0.0966 -0.0130 -0.2113
 1085loPI   C4A17354  13.407   1.172   8.081  0.0305  0.2115 -0.0920
 1085loPI   C5A17355  13.341   1.266   8.450 -0.3645  0.2046 -0.0569
 1085loPI   C6A17356  13.315   1.274   8.954 -0.0617 -0.0726  0.1071
 1085loPI   C1B17357  13.314   1.557   6.819 -0.1703 -0.1239  0.2034
 1085loPI   C2B17358  13.342   1.602   7.223  0.1809  0.0780 -0.1254
 1085loPI   C3B17359  13.380   1.685   7.619 -0.3695  0.1272 -0.0425
 1085loPI   C4B17360  13.383   1.645   8.068 -0.1896 -0.3713  0.1232
 1086loPI    C117361   5.764   7.568   5.327 -0.1116  0.1810 -0.0317
 1086loPI    C217362   5.759   7.949   5.206 -0.2145  0.1472 -0.1358
 1086loPI    C317363   5.688   7.655   4.945  0.0380  0.0458 -0.0935
 1086loPI   PO417364   5.846   7.592   5.564  0.0960 -0.1450 -0.2266
 1086loPI   GL117365   5.956   7.673   6.012 -0.1390  0.0431 -0.2677
 1086loPI   GL217366   5.809   7.426   6.036 -0.1232  0.1099  0.1206
 1086loPI   C1A17367   6.075   7.802   6.508 -0.2666  0.2769  0.1194
 1086loPI   C2A17368   6.062   7.893   6.892 -0.1419 -0.1819  0.1448
 1086loPI   C3A17369   5.991   7.827   7.298 -0.4394 -0.0464 -0.0733
 1086loPI   C4A17370   5.919   7.811   7.706 -0.1185 -0.5056 -0.3646
 1086loPI   C5A17371   5.913   7.858   8.132  0.2614 -0.0986 -0.1893
 1086loPI   C6A17372   5.937   7.805   8.619  0.3364 -0.0623  0.1223
 1086loPI   C1B17373   5.656   7.572   6.349 -0.1131 -0.0055  0.1606
 1086loPI   C2B17374   5.607   7.420   6.755 -0.3845  0.0765  0.0978
 1086loPI   C3B17375   5.456   7.456   7.192  0.0089  0.1361  0.0081
 1086loPI   C4B17376   5.539   7.457   7.609 -0.0200 -0.0735 -0.1605
 1087loPI    C117377   5.640   8.418   5.381  0.0299 -0.1507 -0.1264
 1087loPI    C217378   5.267   8.365   5.246 -0.0519  0.0955 -0.0036
 1087loPI    C317379   5.524   8.592   5.040  0.0048 -0.0048 -0.0442
 1087loPI   PO417380   5.633   8.467   5.582 -0.1690 -0.1632 -0.1082
 1087loPI   GL117381   5.585   8.320   5.995 -0.2194 -0.1712 -0.0388
 1087loPI   GL217382   5.723   8.615   6.139  0.0504 -0.2209  0.2343
 1087loPI   C1A17383   5.705   8.059   6.207 -0.0189 -0.1515 -0.1914
 1087loPI   C2A17384   5.569   8.000   6.618 -0.3016 -0.0118  0.0771
 1087loPI   C3A17385   5.499   7.864   6.983 -0.0649 -0.0006  0.2248
 1087loPI   C4A17386   5.544   7.966   7.406  0.2792  0.0224  0.2535
 1087loPI   C5A17387   5.432   7.946   7.931 -0.1317 -0.1001  0.0926
 1087loPI   C6A17388   5.497   7.965   8.388 -0.2165 -0.1364 -0.1180
 1087loPI   C1B17389   5.528   8.558   6.624  0.0892  0.0316  0.0937
 1087loPI   C2B17390   5.448   8.456   7.010  0.0105 -0.1369 -0.2238
 1087loPI   C3B17391   5.450   8.466   7.361 -0.1116  0.0808  0.2642
 1087loPI   C4B17392   5.350   8.500   7.764  0.0056  0.0501  0.2417
 1088loPI    C117393  14.751   2.279   5.439 -0.1431 -0.0430 -0.2529
 1088loPI    C217394  15.123   2.304   5.295 -0.0794 -0.0480 -0.0911
 1088loPI    C317395  14.811   2.330   5.046  0.0205  0.3235 -0.1850
 1088loPI   PO417396  14.779   2.367   5.717  0.1889 -0.0467  0.0527
 1088loPI   GL117397  15.055   2.507   6.109 -0.1345 -0.2614  0.0168
 1088loPI   GL217398  14.680   2.651   6.165 -0.0434 -0.0830  0.1361
 1088loPI   C1A17399  15.115   2.443   6.410 -0.1165  0.0507  0.1097
 1088loPI   C2A17400  15.074   2.460   6.913 -0.0727  0.1179 -0.2624
 1088loPI   C3A17401  15.032   2.497   7.342 -0.2133  0.2189  0.1172
 1088loPI   C4A17402  15.028   2.452   7.743  0.0154  0.0770  0.1903
 1088loPI   C5A17403  14.885   2.361   8.138  0.1522 -0.1860  0.1671
 1088loPI   C6A17404  14.717   2.049   8.327  0.0974 -0.0676  0.2475
 1088loPI   C1B17405  14.573   2.644   6.607 -0.0907  0.0961 -0.1386
 1088loPI   C2B17406  14.577   2.638   7.077 -0.0081  0.0397 -0.1506
 1088loPI   C3B17407  14.545   2.703   7.368 -0.1835 -0.2013 -0.2265
 1088loPI   C4B17408  14.588   2.653   7.829 -0.0349  0.0566 -0.0510
 1089loPI    C117409   2.606   8.463   5.700 -0.0536 -0.1003 -0.0620
 1089loPI    C217410   2.839   8.266   5.958  0.1647  0.2137 -0.0128
 1089loPI    C317411   2.681   8.074   5.645  0.1299 -0.1040  0.1945
 1089loPI   PO417412   2.479   8.576   5.851 -0.3028 -0.2573 -0.0198
 1089loPI   GL117413   2.474   8.616   6.257 -0.0009  0.0239  0.0585
 1089loPI   GL217414   2.721   8.543   6.377 -0.2315 -0.0062  0.0004
 1089loPI   C1A17415   2.193   8.771   6.584 -0.0096 -0.2231  0.1446
 1089loPI   C2A17416   2.207   8.714   7.016 -0.1758  0.0890  0.0252
 1089loPI   C3A17417   2.123   8.735   7.461 -0.0593  0.1881  0.2595
 1089loPI   C4A17418   2.072   8.709   7.939 -0.2169  0.0082  0.0275
 1089loPI   C5A17419   2.041   8.658   8.355 -0.1096 -0.1413 -0.1538
 1089loPI   C6A17420   1.922   8.425   8.717  0.0454  0.2887 -0.0164
 1089loPI   C1B17421   2.616   8.594   6.829  0.1502  0.0755  0.0041
 1089loPI   C2B17422   2.669   8.515   7.292  0.0615 -0.1936  0.0976
 1089loPI   C3B17423   2.653   8.488   7.764  0.1686 -0.3597  0.2929
 1089loPI   C4B17424   2.648   8.584   8.265  0.1042 -0.4486 -0.1247
 1090loPI    C117425  16.695  15.499   6.147 -0.0319 -0.0729  0.1320
 1090loPI    C217426  16.495  15.839   6.213  0.2202  0.0803  0.1185
 1090loPI    C317427  16.542  15.704   5.839  0.0650 -0.0041  0.1289
 1090loPI   PO417428  16.596  15.304   6.218  0.1564 -0.2698  0.0422
 1090loPI   GL117429  16.586  15.163   6.615 -0.2848  0.0327  0.3085
 1090loPI   GL217430  16.386  14.921   6.727 -0.1172 -0.1018  0.1322
 1090loPI   C1A17431  16.682  15.210   7.087  0.0644  0.0985  0.2385
 1090loPI   C2A17432  16.747  15.238   7.525 -0.1942 -0.0342  0.1335
 1090loPI   C3A17433  16.683  15.256   7.976 -0.1428  0.1722 -0.0193
 1090loPI   C4A17434  16.905  15.187   8.392 -0.1344  0.1694  0.2242
 1090loPI   C5A17435  17.153  15.229   8.815 -0.0705 -0.0030 -0.2890
 1090loPI   C6A17436  17.478  15.478   8.925 -0.1931 -0.3879 -0.1256
 1090loPI   C1B17437  16.289  14.871   7.101 -0.2572 -0.0624  0.2346
 1090loPI   C2B17438  16.351  14.883   7.505 -0.0835 -0.1896 -0.0081
 1090loPI   C3B17439  16.281  14.945   7.906 -0.0227  0.0346 -0.3222
 1090loPI   C4B17440  16.261  15.089   8.363 -0.0671  0.2782  0.0636
 1091loPI    C117441  11.563  12.291   5.536  0.1486  0.1116  0.0316
 1091loPI    C217442  11.642  12.662   5.408  0.2529  0.0089 -0.2078
 1091loPI    C317443  11.700  12.350   5.165  0.0173 -0.1528 -0.0613
 1091loPI   PO417444  11.712  12.343   5.862  0.1329 -0.1633 -0.3619
 1091loPI   GL117445  11.730  12.408   6.286 -0.0532  0.0678  0.0596
 1091loPI   GL217446  11.700  12.792   6.225 -0.0914 -0.0162  0.0487
 1091loPI   C1A17447  11.802  12.268   6.721 -0.0674  0.1021  0.1388
 1091loPI   C2A17448  11.778  12.232   7.101 -0.0875 -0.0470 -0.0108
 1091loPI   C3A17449  11.696  12.345   7.628  0.0527  0.0408 -0.0221
 1091loPI   C4A17450  11.779  12.336   8.003 -0.1135 -0.1456  0.0797
 1091loPI   C5A17451  11.536  12.524   8.417  0.1772 -0.1420  0.3289
 1091loPI   C6A17452  11.619  12.714   8.816  0.0906 -0.0672  0.2561
 1091loPI   C1B17453  11.669  12.834   6.642  0.2153 -0.2837 -0.2182
 1091loPI   C2B17454  11.684  12.772   7.024  0.1957 -0.1066  0.0760
 1091loPI   C3B17455  11.622  12.850   7.379  0.0700 -0.1414  0.1601
 1091loPI   C4B17456  11.553  12.908   7.773  0.0644 -0.2287  0.3203
 1092loPI    C117457   7.143   3.954   5.462 -0.0640 -0.0259 -0.0101
 1092loPI    C217458   7.340   3.652   5.633  0.0158  0.0253 -0.0111
 1092loPI    C317459   7.053   3.577   5.365  0.0917 -0.0477 -0.0728
 1092loPI   PO417460   7.218   4.169   5.622 -0.1545 -0.0842  0.0249
 1092loPI   GL117461   6.969   4.159   6.064  0.0434  0.1310  0.1744
 1092loPI   GL217462   7.081   4.008   6.175 -0.0211  0.2437  0.0435
 1092loPI   C1A17463   6.649   4.258   6.393  0.1793 -0.2199 -0.1942
 1092loPI   C2A17464   6.600   4.319   6.781 -0.3515  0.0654 -0.0224
 1092loPI   C3A17465   6.541   4.249   7.203  0.2128 -0.0151 -0.2611
 1092loPI   C4A17466   6.564   4.298   7.593  0.0317  0.2393 -0.1968
 1092loPI   C5A17467   6.408   4.238   8.045  0.0303 -0.1810  0.0254
 1092loPI   C6A17468   6.081   4.014   8.211 -0.2025 -0.1267 -0.0055
 1092loPI   C1B17469   7.086   4.060   6.611  0.1806 -0.2358  0.1975
 1092loPI   C2B17470   7.023   4.083   7.042  0.2298  0.0167 -0.1587
 1092loPI   C3B17471   7.033   4.114   7.451  0.2546 -0.1589  0.2240
 1092loPI   C4B17472   6.946   4.206   7.978  0.1357 -0.1284  0.3956
 1093loPI    C117473  13.173   1.359   5.717  0.0872 -0.0753  0.1665
 1093loPI    C217474  13.235   1.697   5.513  0.0004 -0.1523  0.0106
 1093loPI    C317475  13.365   1.348   5.366 -0.0915 -0.2123  0.0709
 1093loPI   PO417476  13.056   1.418   5.876  0.2789 -0.0900 -0.0844
 1093loPI   GL117477  12.868   1.249   6.223  0.2361 -0.0772 -0.1844
 1093loPI   GL217478  13.055   0.933   6.057  0.0303  0.0865 -0.1937
 1093loPI   C1A17479  12.971   1.245   6.642  0.0498 -0.0121  0.1331
 1093loPI   C2A17480  12.912   1.292   7.149 -0.1161  0.1233 -0.0350
 1093loPI   C3A17481  12.922   1.261   7.477  0.2468  0.1715  0.2476
 1093loPI   C4A17482  13.044   1.378   7.833 -0.1461 -0.0864 -0.2616
 1093loPI   C5A17483  12.925   1.555   8.345 -0.2876  0.0688  0.1238
 1093loPI   C6A17484  12.896   1.526   8.754  0.0127 -0.2279  0.1768
 1093loPI   C1B17485  13.060   0.757   6.487  0.0225 -0.2379 -0.0539
 1093loPI   C2B17486  13.014   0.808   6.882  0.0590  0.1733 -0.2338
 1093loPI   C3B17487  13.053   0.807   7.322 -0.0681  0.0686 -0.0270
 1093loPI   C4B17488  13.127   0.789   7.816 -0.1009  0.1830  0.0144
 1094loPI    C117489   4.968  13.047   5.560 -0.2608  0.1534  0.0956
 1094loPI    C217490   4.631  12.910   5.392 -0.0682 -0.1895 -0.0213
 1094loPI    C317491   4.888  13.129   5.177 -0.3139  0.2606  0.1292
 1094loPI   PO417492   4.969  12.913   5.852 -0.3894  0.2003 -0.1718
 1094loPI   GL117493   4.926  13.093   6.243  0.0031  0.1089  0.1394
 1094loPI   GL217494   4.811  13.407   6.039 -0.0325  0.1122  0.1754
 1094loPI   C1A17495   4.794  13.166   6.651  0.1270  0.0133 -0.1483
 1094loPI   C2A17496   4.854  13.041   7.058 -0.1106 -0.0359 -0.1252
 1094loPI   C3A17497   4.756  13.103   7.447 -0.1473  0.1374 -0.4226
 1094loPI   C4A17498   4.773  13.013   7.939  0.3079  0.0951 -0.0040
 1094loPI   C5A17499   4.512  12.940   8.336 -0.0329  0.1159  0.0347
 1094loPI   C6A17500   4.590  12.585   8.538  0.0647  0.4487 -0.0063
 1094loPI   C1B17501   4.744  13.577   6.343 -0.1950  0.2947  0.0997
 1094loPI   C2B17502   4.822  13.633   6.866  0.3026  0.1251 -0.0947
 1094loPI   C3B17503   4.749  13.570   7.232  0.1575 -0.0621  0.0471
 1094loPI   C4B17504   4.670  13.499   7.798 -0.0765 -0.0950  0.2611
 1095loPI    C117505   9.655  13.468   5.748 -0.0854  0.2842 -0.1044
 1095loPI    C217506   9.769  13.439   5.366 -0.1662 -0.0713 -0.1053
 1095loPI    C317507   9.440  13.249   5.491 -0.2479  0.1995  0.1006
 1095loPI   PO417508   9.656  13.668   5.871  0.1895  0.1609 -0.0515
 1095loPI   GL117509   9.888  13.789   6.169  0.2092 -0.3193  0.1995
 1095loPI   GL217510   9.771  14.063   6.260  0.3116 -0.1075  0.1429
 1095loPI   C1A17511   9.899  13.564   6.625  0.0965 -0.1478  0.3662
 1095loPI   C2A17512   9.675  13.473   6.975  0.1829 -0.0929  0.1122
 1095loPI   C3A17513   9.637  13.651   7.339  0.1191  0.4136  0.0481
 1095loPI   C4A17514   9.630  13.633   7.747 -0.1860 -0.0355  0.1812
 1095loPI   C5A17515   9.571  13.614   8.208  0.0636 -0.0148 -0.2240
 1095loPI   C6A17516   9.206  13.699   8.381 -0.2017  0.0696 -0.0420
 1095loPI   C1B17517   9.682  14.099   6.664 -0.1712 -0.1233  0.4766
 1095loPI   C2B17518   9.626  14.055   7.062  0.0441  0.3080  0.1201
 1095loPI   C3B17519   9.608  14.128   7.435 -0.0286 -0.1346  0.1200
 1095loPI   C4B17520   9.590  14.133   7.900 -0.2617  0.2167  0.3851
 1096loPI    C117521   5.949  14.275   5.465 -0.0989 -0.0185  0.0326
 1096loPI    C217522   5.633  14.277   5.220  0.0210  0.3730 -0.1261
 1096loPI    C317523   5.954  14.501   5.136  0.2929  0.0792  0.1001
 1096loPI   PO417524   5.883  14.335   5.692 -0.0847  0.2638  0.4270
 1096loPI   GL117525   5.835  14.261   6.048 -0.2023 -0.0850 -0.2564
 1096loPI   GL217526   5.619  14.063   6.212 -0.0270 -0.0728  0.0587
 1096loPI   C1A17527   6.031  14.065   6.523  0.1727 -0.0516 -0.2150
 1096loPI   C2A17528   6.044  14.040   6.954  0.0390 -0.0397  0.1373
 1096loPI   C3A17529   5.982  14.063   7.332  0.0331  0.5169 -0.0457
 1096loPI   C4A17530   5.971  14.083   7.783 -0.0380 -0.0326  0.1693
 1096loPI   C5A17531   5.889  13.986   8.091 -0.0669 -0.2514 -0.0822
 1096loPI   C6A17532   5.713  14.081   8.457 -0.0142  0.1713 -0.1183
 1096loPI   C1B17533   5.564  14.225   6.657  0.2264 -0.2493  0.1049
 1096loPI   C2B17534   5.591  14.255   7.061 -0.0427 -0.1977 -0.0165
 1096loPI   C3B17535   5.440  14.262   7.521 -0.2656 -0.2653 -0.1212
 1096loPI   C4B17536   5.429  14.213   7.858  0.0664  0.1235  0.0680
 1097loPI    C117537   2.763  16.579   5.442  0.1261 -0.1693 -0.0154
 1097loPI    C217538   3.162  16.559   5.433  0.1399  0.0991 -0.0906
 1097loPI    C317539   2.954  16.558   5.091  0.0894  0.1907 -0.0603
 1097loPI   PO417540   2.801  16.755   5.716  0.1652 -0.1580 -0.1620
 1097loPI   GL117541   2.804  16.616   6.147 -0.0428  0.0897 -0.0007
 1097loPI   GL217542   2.428  16.666   6.357 -0.0842  0.2709 -0.0514
 1097loPI   C1A17543   2.830  16.638   6.688  0.0972 -0.1386 -0.0158
 1097loPI   C2A17544   2.819  16.704   7.100  0.1776  0.4795 -0.0336
 1097loPI   C3A17545   2.827  16.679   7.446  0.0296 -0.2245 -0.0286
 1097loPI   C4A17546   2.825  16.646   7.885 -0.1761  0.2250  0.2909
 1097loPI   C5A17547   2.756  16.784   8.281 -0.3215 -0.0241  0.1059
 1097loPI   C6A17548   2.927  16.966   8.628 -0.1953 -0.0488  0.1223
 1097loPI   C1B17549   2.395  16.809   6.814 -0.0661  0.2147 -0.4108
 1097loPI   C2B17550   2.375  16.939   7.216  0.1414  0.0074  0.0808
 1097loPI   C3B17551   2.351  16.902   7.661 -0.0409  0.0461 -0.1165
 1097loPI   C4B17552   2.358  16.963   7.985  0.1758 -0.0268 -0.0070
 1098loPI    C117553   3.436  12.365   5.506  0.1939  0.1445 -0.1384
 1098loPI    C217554   3.406  12.152   5.168  0.1144  0.0859 -0.0947
 1098loPI    C317555   3.234  12.512   5.194 -0.0315  0.0140 -0.0563
 1098loPI   PO417556   3.356  12.189   5.831  0.0101 -0.1209  0.3027
 1098loPI   GL117557   3.048  12.062   6.177  0.0374 -0.1635  0.0043
 1098loPI   GL217558   3.229  11.872   6.354  0.0889 -0.1937 -0.2513
 1098loPI   C1A17559   3.060  12.313   6.487 -0.0392 -0.0716  0.2616
 1098loPI   C2A17560   3.150  12.360   6.904 -0.0090 -0.0386 -0.0392
 1098loPI   C3A17561   3.106  12.208   7.322 -0.1323 -0.0538  0.2802
 1098loPI   C4A17562   2.995  12.142   7.781 -0.1051 -0.2077 -0.1148
 1098loPI   C5A17563   3.050  12.088   8.263 -0.0143 -0.0537  0.0513
 1098loPI   C6A17564   2.945  12.153   8.682 -0.1589  0.2188  0.0048
 1098loPI   C1B17565   3.193  11.850   6.755  0.0473 -0.1618 -0.1092
 1098loPI   C2B17566   3.121  11.673   7.115  0.0941 -0.1690 -0.1277
 1098loPI   C3B17567   3.081  11.681   7.521  0.0055  0.1314  0.0997
 1098loPI   C4B17568   3.020  11.648   8.003 -0.0095  0.1022  0.0775
 1099loPI    C117569   6.762  16.308   5.546 -0.0886  0.0367  0.2270
 1099loPI    C217570   6.390  16.165   5.516 -0.0397 -0.0396 -0.0445
 1099loPI    C317571   6.592  16.265   5.186  0.0393  0.3702  0.1225
 1099loPI   PO417572   6.721  16.252   5.888  0.2992 -0.0196 -0.1764
 1099loPI   GL117573   6.838  16.055   6.247 -0.3261 -0.2348 -0.0303
 1099loPI   GL217574   6.628  15.795   6.431 -0.0029  0.0370  0.1543
 1099loPI   C1A17575   7.039  16.108   6.551 -0.1340  0.0716 -0.1320
 1099loPI   C2A17576   7.051  16.032   6.974 -0.0985 -0.0148  0.0957
 1099loPI   C3A17577   6.960  16.058   7.409  0.0872  0.1460 -0.5185
 1099loPI   C4A17578   6.973  16.153   7.787  0.2158  0.0428 -0.0253
 1099loPI   C5A17579   7.068  16.115   8.208 -0.0706  0.2453  0.0646
 1099loPI   C6A17580   6.926  15.959   8.643  0.2353  0.0135  0.1432
 1099loPI   C1B17581   6.692  15.783   6.848  0.1074  0.0380  0.1004
 1099loPI   C2B17582   6.671  15.657   7.305  0.0558 -0.1228 -0.0375
 1099loPI   C3B17583   6.593  15.659   7.750  0.1835  0.1544  0.0359
 1099loPI   C4B17584   6.586  15.848   8.219 -0.5330 -0.0256  0.1036
 1100loPI    C117585   4.661   8.342   5.444  0.1494 -0.1451  0.0747
 1100loPI    C217586   4.832   8.561   5.157 -0.3557  0.1088 -0.0440
 1100loPI    C317587   4.574   8.272   5.060 -0.2684 -0.0338  0.1435
 1100loPI   PO417588   4.597   8.541   5.677 -0.0264 -0.1059 -0.1448
 1100loPI   GL117589   4.502   8.601   6.042  0.2530  0.1084  0.2671
 1100loPI   GL217590   4.816   8.362   6.159 -0.0556 -0.0007 -0.1492
 1100loPI   C1A17591   4.524   8.859   6.410  0.2604  0.0337 -0.3510
 1100loPI   C2A17592   4.514   8.815   6.860  0.3216 -0.0298  0.2588
 1100loPI   C3A17593   4.425   8.797   7.303  0.2213 -0.0209 -0.0961
 1100loPI   C4A17594   4.364   8.814   7.739 -0.1155  0.2748 -0.0515
 1100loPI   C5A17595   4.357   8.789   8.166  0.2928 -0.0438 -0.1093
 1100loPI   C6A17596   4.215   8.787   8.682 -0.2314 -0.2682  0.1086
 1100loPI   C1B17597   4.584   8.368   6.622  0.1649 -0.2784 -0.4669
 1100loPI   C2B17598   4.555   8.342   7.110  0.4949 -0.6291 -0.0346
 1100loPI   C3B17599   4.443   8.311   7.594  0.0726  0.2599  0.0989
 1100loPI   C4B17600   4.466   8.340   7.977  0.1095  0.1447  0.1438
 1101loPI    C117601  12.117  14.942   5.451  0.1051 -0.1524  0.1693
 1101loPI    C217602  12.091  14.619   5.217  0.0337 -0.0626  0.0522
 1101loPI    C317603  11.768  14.847   5.281  0.0743 -0.0363  0.1663
 1101loPI   PO417604  12.179  14.939   5.612  0.1154  0.0774  0.0615
 1101loPI   GL117605  12.429  14.784   5.981  0.0932  0.1063  0.3103
 1101loPI   GL217606  12.269  15.059   6.157 -0.4348  0.2491 -0.0193
 1101loPI   C1A17607  12.728  14.733   6.252 -0.2516  0.0816 -0.1073
 1101loPI   C2A17608  12.653  14.799   6.689 -0.0519  0.0961  0.0184
 1101loPI   C3A17609  12.723  14.766   7.199  0.0468 -0.3650  0.1918
 1101loPI   C4A17610  12.664  14.843   7.670 -0.2403  0.2692 -0.0431
 1101loPI   C5A17611  12.782  14.968   8.185  0.1171 -0.2163  0.3834
 1101loPI   C6A17612  12.974  15.326   8.353  0.1412  0.1258 -0.1971
 1101loPI   C1B17613  12.176  14.952   6.610 -0.1074  0.0213  0.0737
 1101loPI   C2B17614  12.204  15.042   7.040 -0.4689  0.1055  0.0863
 1101loPI   C3B17615  12.225  15.036   7.489 -0.2069  0.2574  0.1245
 1101loPI   C4B17616  12.137  14.919   7.931 -0.4598  0.2372  0.2247
 1102loPI    C117617   6.193   6.897   5.314  0.0098 -0.0382 -0.0525
 1102loPI    C217618   6.456   6.630   5.173 -0.1563 -0.1122 -0.2265
 1102loPI    C317619   6.127   6.718   4.963 -0.2920 -0.0497  0.0077
 1102loPI   PO417620   6.162   6.822   5.587  0.2973  0.1469 -0.1313
 1102loPI   GL117621   6.156   6.759   6.112 -0.0698 -0.3018 -0.2903
 1102loPI   GL217622   6.005   6.955   6.047 -0.1895  0.1054 -0.1502
 1102loPI   C1A17623   6.270   6.851   6.546 -0.1404 -0.1255 -0.3622
 1102loPI   C2A17624   6.161   6.790   6.940 -0.0696  0.1302  0.2598
 1102loPI   C3A17625   6.127   6.759   7.381  0.1377  0.1063 -0.1780
 1102loPI   C4A17626   6.077   6.789   7.850 -0.3411 -0.0446  0.4026
 1102loPI   C5A17627   6.190   6.750   8.342 -0.0972 -0.0169 -0.2806
 1102loPI   C6A17628   6.380   6.930   8.576 -0.3475 -0.1620  0.1561
 1102loPI   C1B17629   5.731   7.042   6.356  0.3397 -0.2837 -0.0794
 1102loPI   C2B17630   5.725   6.964   6.739 -0.0789  0.0665 -0.0129
 1102loPI   C3B17631   5.595   6.983   7.143 -0.0875 -0.1090  0.0090
 1102loPI   C4B17632   5.628   6.961   7.576  0.0097 -0.0963 -0.0767
 1103loPI    C117633  17.212  16.402   5.829 -0.0225  0.1549  0.1856
 1103loPI    C217634  17.520  16.165   5.735  0.0067  0.2214  0.1124
 1103loPI    C317635  17.375  16.422   5.464 -0.2500  0.0409  0.0753
 1103loPI   PO417636  17.293  16.498   6.028 -0.1627 -0.0604 -0.0401
 1103loPI   GL117637  17.421  16.656   6.326  0.1499  0.1751  0.0911
 1103loPI   GL217638  17.686  16.771   6.386 -0.3117  0.1022  0.0638
 1103loPI   C1A17639  17.415  16.493   6.795  0.2817 -0.1234  0.0482
 1103loPI   C2A17640  17.453  16.472   7.276 -0.4064  0.2301  0.1583
 1103loPI   C3A17641  17.454  16.376   7.751  0.2876  0.1112  0.0234
 1103loPI   C4A17642  17.470  16.446   8.253 -0.2515  0.4044 -0.3766
 1103loPI   C5A17643  17.632  16.646   8.507  0.1196  0.3434 -0.1483
 1103loPI   C6A17644  17.702  17.030   8.862  0.1375  0.3251 -0.1599
 1103loPI   C1B17645  17.809  16.788   6.782  0.3626 -0.0443 -0.0738
 1103loPI   C2B17646  17.820  16.876   7.219  0.2706  0.0141 -0.0418
 1103loPI   C3B17647  17.894  16.750   7.669  0.1781  0.3021  0.3016
 1103loPI   C4B17648  17.840  16.733   8.079 -0.4628 -0.0751  0.1014
 1104loPI    C117649   3.449  15.979   5.383 -0.2176  0.1208 -0.0585
 1104loPI    C217650   3.709  16.090   5.099 -0.2611  0.2198 -0.0600
 1104loPI    C317651   3.333  16.226   5.090 -0.3205  0.0568 -0.0721
 1104loPI   PO417652   3.522  16.012   5.662  0.0137  0.0879  0.4478
 1104loPI   GL117653   3.543  16.061   6.031 -0.2889  0.1247 -0.0963
 1104loPI   GL217654   3.794  16.271   6.190  0.1912 -0.1377 -0.1395
 1104loPI   C1A17655   3.401  15.994   6.459  0.0828  0.3667 -0.1360
 1104loPI   C2A17656   3.403  16.022   6.940  0.0554  0.1741 -0.2030
 1104loPI   C3A17657   3.426  15.991   7.387  0.2179  0.0117  0.1385
 1104loPI   C4A17658   3.395  15.955   7.803  0.0262  0.1608  0.2845
 1104loPI   C5A17659   3.345  15.862   8.199  0.1497 -0.3180 -0.0596
 1104loPI   C6A17660   3.389  16.067   8.629 -0.1629  0.1077 -0.0048
 1104loPI   C1B17661   3.819  16.443   6.547 -0.0105  0.3156  0.1071
 1104loPI   C2B17662   3.858  16.238   7.069  0.1289 -0.0462  0.1224
 1104loPI   C3B17663   3.755  16.315   7.532 -0.1426  0.0224  0.0646
 1104loPI   C4B17664   3.659  16.277   8.027 -0.0801  0.1848 -0.0238
 1105loPI    C117665   1.208  15.819   5.473 -0.1890  0.0319  0.1216
 1105loPI    C217666   0.961  15.600   5.248 -0.0350 -0.0766  0.0560
 1105loPI    C317667   1.190  15.881   5.079  0.0534 -0.1325  0.0824
 1105loPI   PO417668   1.085  15.845   5.717 -0.1993 -0.1510  0.0822
 1105loPI   GL117669   0.995  15.679   6.024  0.1860 -0.1554 -0.0690
 1105loPI   GL217670   1.371  15.720   6.099 -0.1800 -0.1471 -0.0654
 1105loPI   C1A17671   1.229  15.815   6.523  0.2248 -0.0555 -0.1237
 1105loPI   C2A17672   1.155  15.948   6.842 -0.0902 -0.2387 -0.1775
 1105loPI   C3A17673   1.105  15.908   7.238  0.1029  0.0848 -0.0144
 1105loPI   C4A17674   1.170  15.861   7.535 -0.4047 -0.1409  0.0708
 1105loPI   C5A17675   1.103  15.874   7.902  0.1815 -0.0877  0.0195
 1105loPI   C6A17676   0.712  16.058   8.171 -0.1163  0.4797 -0.0401
 1105loPI   C1B17677   1.283  15.372   6.419 -0.0970  0.2028  0.0995
 1105loPI   C2B17678   1.226  15.359   6.848  0.1647 -0.0272  0.0829
 1105loPI   C3B17679   1.249  15.386   7.295 -0.0466 -0.0839 -0.0086
 1105loPI   C4B17680   1.179  15.332   7.733  0.2819  0.0444  0.1213
 1106loPI    C117681  14.309   9.190   5.611  0.3486 -0.0704 -0.1012
 1106loPI    C217682  14.292   8.884   5.354 -0.0129 -0.1814  0.0481
 1106loPI    C317683  14.075   9.213   5.287  0.0639 -0.1204  0.0973
 1106loPI   PO417684  14.335   9.095   5.900  0.0176  0.2340 -0.0637
 1106loPI   GL117685  13.970   9.055   6.150 -0.0340  0.2640 -0.3526
 1106loPI   GL217686  13.687   9.208   6.251  0.1147  0.1309 -0.3010
 1106loPI   C1A17687  14.071   9.109   6.570  0.2944  0.2920  0.1847
 1106loPI   C2A17688  14.038   9.044   6.996  0.2093 -0.0003 -0.1184
 1106loPI   C3A17689  13.967   8.956   7.386  0.1903 -0.0125 -0.0620
 1106loPI   C4A17690  14.014   9.042   7.763  0.0033 -0.1895 -0.1054
 1106loPI   C5A17691  13.996   9.194   8.294 -0.3932  0.1014 -0.3982
 1106loPI   C6A17692  13.811   9.227   8.734 -0.1347  0.0268 -0.1670
 1106loPI   C1B17693  13.562   9.265   6.736  0.2279  0.1220  0.0427
 1106loPI   C2B17694  13.539   9.256   7.135 -0.4801  0.1490 -0.1153
 1106loPI   C3B17695  13.546   9.215   7.547  0.0104 -0.0985 -0.1057
 1106loPI   C4B17696  13.532   9.150   7.967 -0.1179 -0.2579 -0.0140
 1107loPI    C117697   7.726  11.033   5.336 -0.0225 -0.0716 -0.0198
 1107loPI    C217698   7.836  10.664   5.225  0.0106 -0.0344 -0.1120
 1107loPI    C317699   7.987  10.983   5.037  0.1249  0.0328  0.0899
 1107loPI   PO417700   7.765  11.052   5.553 -0.1114  0.0137 -0.5135
 1107loPI   GL117701   7.718  11.388   5.995 -0.0706 -0.1206  0.1860
 1107loPI   GL217702   7.732  11.081   6.122 -0.0323 -0.2544  0.0094
 1107loPI   C1A17703   7.874  11.472   6.378 -0.1004  0.0594 -0.0139
 1107loPI   C2A17704   7.809  11.430   6.735  0.0547 -0.0302  0.3366
 1107loPI   C3A17705   7.784  11.423   7.208 -0.0058  0.1099  0.0091
 1107loPI   C4A17706   7.661  11.327   7.657 -0.1791 -0.2805  0.2139
 1107loPI   C5A17707   7.772  11.316   8.075 -0.1800 -0.1839 -0.1168
 1107loPI   C6A17708   7.873  11.245   8.448  0.0362  0.0305 -0.1740
 1107loPI   C1B17709   7.923  10.957   6.475  0.2021 -0.2193 -0.1613
 1107loPI   C2B17710   7.865  10.980   6.965 -0.1364 -0.3843 -0.0338
 1107loPI   C3B17711   7.837  10.907   7.429  0.3716  0.0674 -0.3031
 1107loPI   C4B17712   7.834  10.848   7.868  0.0575 -0.1939 -0.2057
 1108loPI    C117713  13.574  10.395   5.417  0.0054 -0.1475  0.0246
 1108loPI    C217714  13.200  10.380   5.278  0.0267 -0.2931 -0.0188
 1108loPI    C317715  13.508  10.319   5.030  0.0794 -0.1738  0.0169
 1108loPI   PO417716  13.639  10.231   5.524 -0.0607  0.0676 -0.1692
 1108loPI   GL117717  13.760   9.897   5.863  0.0375  0.1228  0.0517
 1108loPI   GL217718  13.618   9.732   6.045  0.2974  0.0252 -0.1062
 1108loPI   C1A17719  13.942  10.067   6.308  0.0584 -0.0702  0.0097
 1108loPI   C2A17720  13.869  10.022   6.742 -0.1995  0.1515  0.1208
 1108loPI   C3A17721  13.835  10.065   7.204  0.0068  0.0421 -0.1695
 1108loPI   C4A17722  13.783  10.039   7.670  0.0844 -0.2175  0.1193
 1108loPI   C5A17723  13.637  10.002   8.078 -0.1402  0.2523  0.1778
 1108loPI   C6A17724  13.225   9.980   8.362 -0.0968 -0.0757  0.1184
 1108loPI   C1B17725  13.417   9.670   6.460  0.1132  0.0823 -0.1881
 1108loPI   C2B17726  13.446   9.697   6.972 -0.2259 -0.2102  0.1161
 1108loPI   C3B17727  13.428   9.727   7.479 -0.5431  0.3444 -0.3721
 1108loPI   C4B17728  13.358   9.615   7.894 -0.1816 -0.0573 -0.1612
 1109loPI    C117729   4.843  15.801   5.443 -0.1148  0.1486 -0.2267
 1109loPI    C217730   5.210  15.958   5.437 -0.0095 -0.0742  0.1138
 1109loPI    C317731   5.096  15.706   5.149  0.0722  0.0641 -0.0409
 1109loPI   PO417732   4.838  15.676   5.748 -0.0248 -0.3323 -0.0083
 1109loPI   GL117733   4.938  15.631   6.106 -0.2030 -0.0044  0.1497
 1109loPI   GL217734   5.172  15.933   6.273  0.3754  0.1540  0.1166
 1109loPI   C1A17735   4.978  15.504   6.534 -0.0344  0.1784 -0.1786
 1109loPI   C2A17736   4.955  15.415   6.974  0.2848 -0.1429  0.1266
 1109loPI   C3A17737   4.830  15.485   7.381  0.3344  0.0913 -0.0610
 1109loPI   C4A17738   4.782  15.418   7.766 -0.3373 -0.1543  0.3167
 1109loPI   C5A17739   4.823  15.193   8.109 -0.0114 -0.1828 -0.0342
 1109loPI   C6A17740   4.478  15.318   8.340 -0.1666  0.1378 -0.0451
 1109loPI   C1B17741   5.334  15.839   6.471  0.2612  0.2015 -0.1098
 1109loPI   C2B17742   5.309  15.800   6.923 -0.1911  0.0568  0.0053
 1109loPI   C3B17743   5.196  15.794   7.408 -0.0276  0.1356 -0.0201
 1109loPI   C4B17744   5.184  15.857   7.804  0.1131  0.0816 -0.2057
 1110loPI    C117745   0.917  13.310   5.495 -0.1384  0.0183  0.0876
 1110loPI    C217746   0.883  13.619   5.244  0.1602  0.0332  0.0626
 1110loPI    C317747   1.120  13.310   5.151 -0.2107 -0.2526  0.0423
 1110loPI   PO417748   0.775  13.369   5.654 -0.0603  0.1566  0.1956
 1110loPI   GL117749   0.759  13.495   6.091 -0.1833 -0.2125 -0.2587
 1110loPI   GL217750   0.803  13.117   6.245 -0.0606  0.0605 -0.0427
 1110loPI   C1A17751   0.672  13.579   6.515 -0.3506 -0.2398 -0.1486
 1110loPI   C2A17752   0.619  13.709   6.974  0.1604  0.0207  0.1297
 1110loPI   C3A17753   0.624  13.780   7.434  0.0699  0.2727  0.0273
 1110loPI   C4A17754   0.564  13.692   7.881 -0.1088  0.2665  0.0846
 1110loPI   C5A17755   0.664  13.670   8.279 -0.1515 -0.1798 -0.0549
 1110loPI   C6A17756   0.612  13.999   8.647 -0.0989 -0.1348  0.1369
 1110loPI   C1B17757   0.693  13.106   6.671  0.2310 -0.2564 -0.0468
 1110loPI   C2B17758   0.745  13.207   7.112 -0.0482  0.2797  0.0880
 1110loPI   C3B17759   0.717  13.277   7.539  0.1414  0.4309  0.1540
 1110loPI   C4B17760   0.666  13.222   8.039 -0.0610 -0.3638 -0.1715
 1111loPI    C117761  11.516   6.533   5.541 -0.1742  0.0030  0.0213
 1111loPI    C217762  11.500   6.786   5.231 -0.1143  0.0320  0.0416
 1111loPI    C317763  11.474   6.391   5.169 -0.0505  0.0349 -0.0054
 1111loPI   PO417764  11.375   6.749   5.787 -0.0688 -0.0243  0.3045
 1111loPI   GL117765  11.526   6.979   6.120 -0.0846 -0.0004 -0.1809
 1111loPI   GL217766  11.265   6.803   6.250 -0.0236 -0.0681 -0.2544
 1111loPI   C1A17767  11.642   7.011   6.599  0.1858  0.2618 -0.1129
 1111loPI   C2A17768  11.606   7.040   6.979 -0.2638 -0.1996 -0.0298
 1111loPI   C3A17769  11.549   6.997   7.412 -0.1517 -0.0519 -0.0048
 1111loPI   C4A17770  11.592   7.046   7.893 -0.0114 -0.0872  0.0746
 1111loPI   C5A17771  11.502   6.920   8.295  0.3703 -0.0809 -0.0480
 1111loPI   C6A17772  11.689   6.967   8.656 -0.2121 -0.1857 -0.1677
 1111loPI   C1B17773  11.209   6.820   6.740  0.5440  0.1684 -0.4845
 1111loPI   C2B17774  11.242   6.694   7.159  0.2376  0.2329 -0.2037
 1111loPI   C3B17775  11.215   6.712   7.577 -0.0997  0.1823 -0.2682
 1111loPI   C4B17776  11.181   6.623   8.004  0.0406  0.2439 -0.0578
 1112loPI    C117777   9.967   1.612   5.550 -0.1545  0.0837  0.0565
 1112loPI    C217778  10.330   1.676   5.395 -0.0648 -0.1151  0.1798
 1112loPI    C317779  10.003   1.750   5.176  0.0522 -0.0566  0.0230
 1112loPI   PO417780   9.918   1.687   5.705  0.2526  0.4194  0.2027
 1112loPI   GL117781   9.864   1.988   6.041 -0.1247 -0.0941  0.0382
 1112loPI   GL217782   9.638   2.106   6.028  0.0296  0.2018  0.0908
 1112loPI   C1A17783  10.117   1.925   6.394 -0.1770  0.2433 -0.0152
 1112loPI   C2A17784  10.116   1.929   6.825 -0.1572  0.3316  0.0848
 1112loPI   C3A17785  10.080   1.911   7.269  0.1652 -0.0100  0.1826
 1112loPI   C4A17786  10.046   1.905   7.722  0.0419  0.0240 -0.0704
 1112loPI   C5A17787  10.145   1.892   8.152  0.1417  0.0005 -0.0452
 1112loPI   C6A17788  10.346   1.646   8.523  0.1039 -0.0111 -0.0793
 1112loPI   C1B17789   9.677   2.077   6.547  0.4807  0.0227  0.1214
 1112loPI   C2B17790   9.499   2.148   6.934 -0.0478  0.3338 -0.1806
 1112loPI   C3B17791   9.643   2.138   7.317  0.1146  0.0983 -0.0822
 1112loPI   C4B17792   9.565   2.161   7.732  0.1810  0.2676 -0.0199
 1113loPI    C117793  12.719   2.639   5.484  0.1182 -0.3326 -0.1280
 1113loPI    C217794  12.486   2.751   5.179 -0.1130  0.1236  0.2042
 1113loPI    C317795  12.873   2.671   5.116 -0.1762  0.1280 -0.2185
 1113loPI   PO417796  12.670   2.806   5.667  0.1227 -0.0511 -0.1559
 1113loPI   GL117797  12.637   2.859   6.030 -0.0672  0.0768  0.2596
 1113loPI   GL217798  12.446   2.594   6.213 -0.1533 -0.0615  0.0960
 1113loPI   C1A17799  12.788   2.878   6.505  0.0573  0.0235 -0.0721
 1113loPI   C2A17800  12.635   2.832   6.843  0.2589  0.0502 -0.0240
 1113loPI   C3A17801  12.749   2.816   7.145  0.0168 -0.1452 -0.0506
 1113loPI   C4A17802  12.839   2.752   7.557 -0.1262  0.0880  0.3733
 1113loPI   C5A17803  12.671   2.803   7.899 -0.4118  0.1563 -0.0508
 1113loPI   C6A17804  12.417   2.874   8.282 -0.1199 -0.3332  0.0432
 1113loPI   C1B17805  12.234   2.531   6.589  0.1332 -0.2462  0.0493
 1113loPI   C2B17806  12.310   2.511   6.989  0.0617 -0.0681  0.1035
 1113loPI   C3B17807  12.438   2.473   7.435 -0.0463 -0.0056 -0.4262
 1113loPI   C4B17808  12.274   2.453   7.893  0.1821  0.1823 -0.0539
 1114loPI    C117809  16.483  14.842   5.945 -0.0741  0.0535 -0.0344
 1114loPI    C217810  16.543  15.183   5.743  0.0684  0.1199  0.1173
 1114loPI    C317811  16.205  14.975   5.689  0.0840  0.1606 -0.1531
 1114loPI   PO417812  16.478  14.840   6.277  0.0738 -0.1397 -0.2795
 1114loPI   GL117813  16.787  14.701   6.520 -0.0335 -0.0087  0.0720
 1114loPI   GL217814  16.901  14.358   6.586 -0.2358  0.0403  0.2405
 1114loPI   C1A17815  16.823  14.692   6.945 -0.0467 -0.1960  0.1374
 1114loPI   C2A17816  16.838  14.781   7.376  0.1807  0.1045  0.1243
 1114loPI   C3A17817  16.836  14.724   7.793  0.2276  0.0286  0.1137
 1114loPI   C4A17818  16.685  14.715   8.194  0.2150 -0.0782  0.1564
 1114loPI   C5A17819  16.353  14.622   8.522 -0.3051 -0.1003 -0.2182
 1114loPI   C6A17820  16.223  14.825   8.887 -0.2925  0.2478  0.0686
 1114loPI   C1B17821  16.904  14.176   7.028 -0.0277  0.0626  0.1727
 1114loPI   C2B17822  16.945  14.231   7.487 -0.1355 -0.2299 -0.2374
 1114loPI   C3B17823  16.903  14.267   8.004  0.0776 -0.2153 -0.1436
 1114loPI   C4B17824  16.912  14.238   8.424 -0.1064  0.1661 -0.4578
 1115loPI    C117825  13.284   7.125   5.258 -0.1697  0.0320  0.0393
 1115loPI    C217826  13.017   7.072   4.964 -0.0202  0.0504 -0.1013
 1115loPI    C317827  13.405   7.109   4.877  0.0314  0.0048  0.1036
 1115loPI   PO417828  13.142   7.216   5.472 -0.0378 -0.2086  0.0992
 1115loPI   GL117829  13.217   7.403   5.942 -0.2920 -0.4219 -0.1690
 1115loPI   GL217830  12.960   7.402   6.157 -0.0446 -0.3645 -0.2100
 1115loPI   C1A17831  13.398   7.434   6.350  0.0031  0.0864  0.0438
 1115loPI   C2A17832  13.481   7.388   6.742  0.0653 -0.1663  0.0739
 1115loPI   C3A17833  13.413   7.403   7.241 -0.3405 -0.2102 -0.2355
 1115loPI   C4A17834  13.326   7.288   7.675 -0.1874 -0.1806  0.2332
 1115loPI   C5A17835  13.308   7.189   8.042  0.1002  0.1575 -0.2502
 1115loPI   C6A17836  13.195   7.501   8.417 -0.1343  0.1570  0.2522
 1115loPI   C1B17837  12.910   7.549   6.649  0.1026  0.1064  0.0985
 1115loPI   C2B17838  12.930   7.555   7.103 -0.2671 -0.0467 -0.2674
 1115loPI   C3B17839  12.909   7.517   7.542 -0.1994 -0.0913 -0.0995
 1115loPI   C4B17840  12.876   7.444   8.032  0.2541  0.0887 -0.0847
 1116loPI    C117841  12.508  10.975   5.142  0.1262  0.0107 -0.2802
 1116loPI    C217842  12.827  10.758   5.248  0.0662  0.0091 -0.0989
 1116loPI    C317843  12.579  10.623   4.965  0.0578 -0.1352 -0.0241
 1116loPI   PO417844  12.373  10.989   5.457 -0.0225  0.2252  0.0058
 1116loPI   GL117845  12.282  10.692   5.803  0.1559  0.1045 -0.3846
 1116loPI   GL217846  12.462  10.611   5.975  0.0618  0.3088 -0.0056
 1116loPI   C1A17847  12.019  10.799   6.201 -0.0835  0.1083  0.3193
 1116loPI   C2A17848  12.038  10.734   6.620  0.1331  0.0600 -0.0145
 1116loPI   C3A17849  12.009  10.773   7.011 -0.2580  0.0990  0.0854
 1116loPI   C4A17850  11.859  10.745   7.464 -0.1563 -0.2833 -0.1166
 1116loPI   C5A17851  11.892  10.805   7.907  0.1535  0.0370  0.2691
 1116loPI   C6A17852  11.873  10.696   8.383 -0.4441  0.2358 -0.1433
 1116loPI   C1B17853  12.466  10.550   6.380 -0.0330  0.0950  0.1339
 1116loPI   C2B17854  12.455  10.593   6.831 -0.1306 -0.0647 -0.0025
 1116loPI   C3B17855  12.410  10.600   7.327  0.1025 -0.0043 -0.0514
 1116loPI   C4B17856  12.425  10.605   7.734  0.0144  0.0681 -0.0615
 1117loPI    C117857  15.195  14.031   5.406  0.0530  0.1732 -0.2427
 1117loPI    C217858  15.050  13.867   5.071  0.0157 -0.0996 -0.0964
 1117loPI    C317859  15.406  14.049   5.067  0.0404 -0.1501 -0.2712
 1117loPI   PO417860  15.004  14.057   5.544  0.1972  0.1121  0.4968
 1117loPI   GL117861  14.940  14.222   6.049  0.1790  0.1219  0.0036
 1117loPI   GL217862  15.169  14.241   6.272  0.0387  0.0578 -0.0990
 1117loPI   C1A17863  14.656  14.134   6.429 -0.0132 -0.0437 -0.1059
 1117loPI   C2A17864  14.591  14.107   6.815  0.0751  0.4537 -0.0985
 1117loPI   C3A17865  14.598  14.131   7.240  0.1165 -0.1011  0.0378
 1117loPI   C4A17866  14.613  14.170   7.655  0.1093  0.0591  0.1680
 1117loPI   C5A17867  14.563  14.050   7.997  0.0062  0.1089 -0.0928
 1117loPI   C6A17868  14.867  14.275   8.415 -0.2532  0.3296 -0.0941
 1117loPI   C1B17869  15.013  14.458   6.625  0.1127 -0.0797 -0.0300
 1117loPI   C2B17870  15.044  14.492   7.088 -0.2470  0.0488 -0.0970
 1117loPI   C3B17871  14.991  14.450   7.498  0.3070  0.0275 -0.0275
 1117loPI   C4B17872  14.971  14.399   7.879 -0.2669  0.1120  0.2426
 1118loPI    C117873   5.388  11.908   5.874 -0.1041 -0.3417 -0.0011
 1118loPI    C217874   5.611  11.874   5.544 -0.0123 -0.1473  0.0394
 1118loPI    C317875   5.248  12.043   5.524  0.1070  0.1206  0.0845
 1118loPI   PO417876   5.428  11.760   6.033  0.2364  0.1400 -0.0772
 1118loPI   GL117877   5.293  11.735   6.402 -0.0492  0.1378  0.1057
 1118loPI   GL217878   5.063  11.641   6.389 -0.1348 -0.2823  0.3622
 1118loPI   C1A17879   5.437  11.870   6.831  0.0669  0.0080 -0.0061
 1118loPI   C2A17880   5.370  11.860   7.260 -0.0368  0.3389 -0.2378
 1118loPI   C3A17881   5.401  11.843   7.692 -0.0999  0.0345  0.2548
 1118loPI   C4A17882   5.472  11.675   8.097 -0.2638 -0.4662  0.0070
 1118loPI   C5A17883   5.185  11.618   8.523 -0.2556 -0.0542 -0.2118
 1118loPI   C6A17884   4.780  11.575   8.586  0.2603 -0.0975  0.0113
 1118loPI   C1B17885   5.021  11.517   6.857  0.0222  0.0678  0.0803
 1118loPI   C2B17886   5.050  11.521   7.222 -0.1586 -0.0475 -0.1070
 1118loPI   C3B17887   4.980  11.530   7.566  0.0847 -0.0505  0.0921
 1118loPI   C4B17888   5.001  11.472   8.016  0.0709 -0.1929  0.0722
 1119loPI    C117889   3.591   3.356   5.510 -0.2822 -0.0288  0.1112
 1119loPI    C217890   3.705   3.429   5.133 -0.2086 -0.0535  0.1284
 1119loPI    C317891   3.421   3.653   5.304 -0.5206 -0.2868 -0.0723
 1119loPI   PO417892   3.795   3.319   5.648  0.0563 -0.2466  0.0588
 1119loPI   GL117893   3.856   3.215   6.014  0.3626  0.0727  0.2252
 1119loPI   GL217894   3.569   3.398   6.195 -0.1065 -0.2323  0.1551
 1119loPI   C1A17895   3.990   3.229   6.399 -0.1167  0.2708  0.1294
 1119loPI   C2A17896   4.009   3.231   6.921  0.3594  0.1368  0.2234
 1119loPI   C3A17897   3.940   3.367   7.326  0.2109 -0.0536 -0.2753
 1119loPI   C4A17898   3.944   3.264   7.803 -0.0914 -0.1378 -0.0157
 1119loPI   C5A17899   3.744   3.400   8.212  0.0537 -0.0088  0.1699
 1119loPI   C6A17900   3.466   3.635   8.333 -0.0099  0.1311 -0.2343
 1119loPI   C1B17901   3.489   3.344   6.608 -0.1168  0.1838  0.4020
 1119loPI   C2B17902   3.558   3.426   6.954 -0.1742 -0.2129  0.1949
 1119loPI   C3B17903   3.471   3.504   7.371  0.0695  0.1948 -0.1161
 1119loPI   C4B17904   3.484   3.510   7.807  0.0207  0.1437  0.3244
 1120loPI    C117905   8.497  11.825   5.277  0.0795 -0.0647  0.0623
 1120loPI    C217906   8.865  11.695   5.193  0.0221 -0.1675 -0.0329
 1120loPI    C317907   8.558  11.589   4.960 -0.0450  0.0398 -0.0408
 1120loPI   PO417908   8.442  11.722   5.544 -0.1649  0.1247 -0.1659
 1120loPI   GL117909   8.632  11.686   5.985 -0.3954 -0.1637  0.0429
 1120loPI   GL217910   8.534  11.340   6.038  0.3289  0.1736  0.1543
 1120loPI   C1A17911   8.797  11.552   6.479 -0.0872 -0.0355  0.4129
 1120loPI   C2A17912   8.674  11.538   6.936 -0.0177  0.0267 -0.1286
 1120loPI   C3A17913   8.561  11.565   7.431 -0.0836  0.2184  0.0732
 1120loPI   C4A17914   8.503  11.654   7.820 -0.2467 -0.1732 -0.3479
 1120loPI   C5A17915   8.555  11.391   8.146 -0.2203 -0.1714  0.2957
 1120loPI   C6A17916   8.728  11.213   8.588  0.2957 -0.3843 -0.1569
 1120loPI   C1B17917   8.382  11.202   6.427  0.0137 -0.0467  0.0024
 1120loPI   C2B17918   8.249  11.258   6.815  0.0895  0.1859 -0.0063
 1120loPI   C3B17919   8.224  11.173   7.266  0.0131  0.0889  0.0823
 1120loPI   C4B17920   8.214  11.242   7.722 -0.0578 -0.0542  0.3115
 1121loPI    C117921   3.096   1.484   5.818  0.0414  0.0309  0.0130
 1121loPI    C217922   3.318   1.602   5.507  0.0407 -0.0402 -0.0148
 1121loPI    C317923   3.087   1.277   5.475 -0.0660  0.0322  0.0146
 1121loPI   PO417924   3.230   1.634   6.044 -0.0587  0.1621 -0.0372
 1121loPI   GL117925   3.351   1.545   6.456  0.0603  0.1354  0.2688
 1121loPI   GL217926   3.378   1.143   6.413  0.0842  0.3376  0.0429
 1121loPI   C1A17927   3.378   1.593   6.861  0.1139 -0.0208 -0.3011
 1121loPI   C2A17928   3.309   1.587   7.297  0.1742 -0.2059  0.0079
 1121loPI   C3A17929   3.233   1.595   7.751  0.0155  0.2374 -0.3500
 1121loPI   C4A17930   3.331   1.662   8.268 -0.1558  0.2551 -0.2600
 1121loPI   C5A17931   3.177   1.994   8.566  0.1077 -0.0792  0.0093
 1121loPI   C6A17932   2.889   2.242   8.714  0.1549  0.1382  0.0056
 1121loPI   C1B17933   3.415   1.124   6.791 -0.2401  0.0429  0.1616
 1121loPI   C2B17934   3.370   1.043   7.257  0.0518 -0.0106  0.0570
 1121loPI   C3B17935   3.446   1.177   7.615  0.1103  0.0241  0.0939
 1121loPI   C4B17936   3.293   1.158   8.070 -0.0235  0.0197 -0.2364
 1122loPI    C117937   5.396  15.860   5.885  0.0311 -0.0641 -0.1087
 1122loPI    C217938   5.676  15.769   5.614  0.0706 -0.0847 -0.0612
 1122loPI    C317939   5.694  15.611   5.981  0.0572 -0.0008 -0.0242
 1122loPI   PO417940   5.352  16.227   5.842 -0.2991  0.1485  0.0329
 1122loPI   GL117941   5.272  16.439   6.148  0.1060 -0.2432 -0.2703
 1122loPI   GL217942   5.537  16.690   6.333 -0.0476  0.1312  0.1010
 1122loPI   C1A17943   5.190  16.282   6.576 -0.0183 -0.0073 -0.0303
 1122loPI   C2A17944   5.247  16.294   7.046  0.1253 -0.0020 -0.1963
 1122loPI   C3A17945   5.212  16.254   7.435  0.0379 -0.0351 -0.3436
 1122loPI   C4A17946   5.082  16.383   7.803 -0.1166 -0.0875 -0.1498
 1122loPI   C5A17947   5.173  16.210   8.197 -0.3578  0.0955  0.1952
 1122loPI   C6A17948   5.056  15.789   8.327  0.0759  0.2586  0.0669
 1122loPI   C1B17949   5.599  16.543   6.806  0.1604  0.0616  0.3047
 1122loPI   C2B17950   5.584  16.581   7.303 -0.0802 -0.1584 -0.0578
 1122loPI   C3B17951   5.527  16.546   7.818  0.1191  0.1132  0.1838
 1122loPI   C4B17952   5.488  16.610   8.209  0.2025 -0.3773  0.0357
 1123loPI    C117953   7.900   9.355   5.562 -0.4419 -0.0526 -0.2773
 1123loPI    C217954   8.232   9.136   5.516 -0.2121  0.2217  0.0352
 1123loPI    C317955   8.039   9.276   5.195  0.0994  0.2428 -0.1469
 1123loPI   PO417956   7.970   9.511   5.807  0.0042  0.0618  0.0903
 1123loPI   GL117957   8.023   9.435   6.266 -0.2448 -0.3003 -0.1339
 1123loPI   GL217958   8.116   9.121   6.169 -0.1234 -0.0243 -0.0921
 1123loPI   C1A17959   7.703   9.174   6.421 -0.3739  0.2896  0.0063
 1123loPI   C2A17960   7.641   9.124   6.832  0.1493  0.1585 -0.1531
 1123loPI   C3A17961   7.639   9.028   7.234 -0.0674  0.0420  0.0029
 1123loPI   C4A17962   7.587   9.070   7.747 -0.0443  0.0292  0.0835
 1123loPI   C5A17963   7.524   9.016   8.201 -0.0715 -0.1130 -0.0646
 1123loPI   C6A17964   7.505   9.028   8.596  0.0028  0.1369 -0.1186
 1123loPI   C1B17965   8.161   8.882   6.539 -0.3008 -0.1779  0.2186
 1123loPI   C2B17966   8.153   8.876   7.004 -0.1317 -0.0534 -0.1132
 1123loPI   C3B17967   8.070   8.810   7.439 -0.2772  0.0806 -0.2205
 1123loPI   C4B17968   8.042   8.833   7.870 -0.2124  0.3986 -0.1030
 1124loPI    C117969   4.949  11.193   5.632  0.0886  0.0084  0.1033
 1124loPI    C217970   5.165  11.523   5.568 -0.0788  0.0955 -0.0224
 1124loPI    C317971   5.058  11.292   5.260  0.2903 -0.2411  0.0934
 1124loPI   PO417972   4.786  11.276   5.976 -0.0421  0.2845  0.0225
 1124loPI   GL117973   4.943  11.120   6.360  0.2753  0.0824  0.0289
 1124loPI   GL217974   5.194  10.980   6.459  0.0846 -0.3130  0.1650
 1124loPI   C1A17975   4.692  11.193   6.621 -0.1427  0.3383 -0.0176
 1124loPI   C2A17976   4.669  11.245   7.097  0.2617 -0.0900 -0.1142
 1124loPI   C3A17977   4.561  11.185   7.454  0.2806 -0.0666  0.1543
 1124loPI   C4A17978   4.484  11.092   7.931  0.1847  0.2167  0.1606
 1124loPI   C5A17979   4.553  11.197   8.373  0.0977  0.0575 -0.0778
 1124loPI   C6A17980   4.764  11.110   8.755  0.2042  0.0351  0.1319
 1124loPI   C1B17981   5.154  11.028   6.867  0.1930 -0.1092 -0.2158
 1124loPI   C2B17982   5.051  11.011   7.306  0.0635 -0.1795 -0.3815
 1124loPI   C3B17983   5.001  10.943   7.789  0.0808 -0.2080  0.0331
 1124loPI   C4B17984   4.977  10.998   8.238  0.2296  0.0977  0.1847
 1125loPI    C117985   8.532   1.318   5.782  0.2696  0.1910 -0.0655
 1125loPI    C217986   8.510   1.068   5.470  0.0104 -0.0166  0.1146
 1125loPI    C317987   8.282   1.397   5.480  0.1656  0.0961 -0.0051
 1125loPI   PO417988   8.519   1.225   5.935 -0.2287 -0.1282  0.0780
 1125loPI   GL117989   8.529   1.031   6.230  0.1931  0.1430  0.3998
 1125loPI   GL217990   8.749   1.378   6.390 -0.0311  0.6233 -0.0490
 1125loPI   C1A17991   8.416   1.017   6.652 -0.1227  0.2344  0.3335
 1125loPI   C2A17992   8.451   1.125   7.083 -0.0814  0.0705  0.4727
 1125loPI   C3A17993   8.524   1.193   7.406 -0.2704 -0.1576  0.0040
 1125loPI   C4A17994   8.329   1.239   7.751  0.0226 -0.1647 -0.2201
 1125loPI   C5A17995   7.956   1.376   7.938 -0.1125  0.0698 -0.1027
 1125loPI   C6A17996   7.866   1.474   8.276 -0.4188 -0.0229  0.0416
 1125loPI   C1B17997   8.777   1.373   6.808  0.3124  0.0865  0.0218
 1125loPI   C2B17998   8.915   1.478   7.287  0.0341  0.2633  0.1208
 1125loPI   C3B17999   8.712   1.540   7.720  0.0504  0.0661 -0.1783
 1125loPI   C4B18000   8.771   1.576   8.109  0.2134  0.1823 -0.1509
 1126loPI    C118001  14.309   2.034   5.563 -0.0134 -0.0903  0.0781
 1126loPI    C218002  14.173   2.203   5.227  0.0751  0.1185  0.1457
 1126loPI    C318003  14.464   1.929   5.210 -0.1762 -0.1457  0.0223
 1126loPI   PO418004  14.121   2.035   5.678 -0.2161  0.2654 -0.2446
 1126loPI   GL118005  13.996   1.879   6.081  0.1205  0.2187 -0.3386
 1126loPI   GL218006  13.685   1.951   6.241 -0.2350 -0.0983 -0.3466
 1126loPI   C1A18007  14.209   1.861   6.447 -0.0779  0.2696 -0.4239
 1126loPI   C2A18008  14.255   1.733   6.877  0.0603  0.0244  0.0401
 1126loPI   C3A18009  14.320   1.823   7.207  0.0602 -0.1303 -0.1189
 1126loPI   C4A18010  14.221   1.778   7.653  0.0031 -0.1153  0.1541
 1126loPI   C5A18011  14.219   1.822   8.084 -0.2395 -0.3371 -0.1850
 1126loPI   C6A18012  14.181   1.968   8.572  0.0216  0.1448 -0.1649
 1126loPI   C1B18013  13.660   1.999   6.600 -0.1802  0.1428  0.0487
 1126loPI   C2B18014  13.863   2.028   6.936  0.4283  0.0146  0.0435
 1126loPI   C3B18015  13.820   1.928   7.345 -0.3503  0.0031 -0.0271
 1126loPI   C4B18016  13.777   1.990   7.698  0.2629 -0.0806 -0.0923
 1127loPI    C118017   0.202  11.338   5.785 -0.1981 -0.2251 -0.3138
 1127loPI    C218018   0.392  11.576   5.526 -0.1069 -0.1818 -0.2081
 1127loPI    C318019   0.594  11.292   5.722 -0.1861 -0.2488 -0.2229
 1127loPI   PO418020   0.082  11.493   5.910  0.1022 -0.1811  0.2231
 1127loPI   GL118021  -0.021  11.466   6.316  0.2142 -0.1930 -0.0251
 1127loPI   GL218022   0.289  11.538   6.391  0.0994 -0.3649  0.1070
 1127loPI   C1A18023  -0.034  11.417   6.753 -0.0848 -0.0201  0.2537
 1127loPI   C2A18024   0.017  11.548   7.207  0.2656  0.1676  0.1068
 1127loPI   C3A18025   0.083  11.609   7.642  0.1017 -0.0140  0.0372
 1127loPI   C4A18026   0.206  11.659   8.061 -0.1469  0.0883 -0.3563
 1127loPI   C5A18027   0.473  11.869   8.377  0.3036 -0.0127 -0.0371
 1127loPI   C6A18028   0.636  12.355   8.364  0.1058 -0.2140 -0.1990
 1127loPI   C1B18029   0.457  11.369   6.678  0.0630 -0.2634  0.0380
 1127loPI   C2B18030   0.539  11.330   7.078 -0.3135 -0.3005  0.1832
 1127loPI   C3B18031   0.364  11.272   7.524 -0.0685 -0.0327  0.0072
 1127loPI   C4B18032   0.474  11.225   7.928 -0.0760  0.0388 -0.1161
 1128loPI    C118033   8.057   2.628   5.582 -0.3843  0.1403 -0.4307
 1128loPI    C218034   8.380   2.437   5.443 -0.1342  0.1022  0.1689
 1128loPI    C318035   8.028   2.247   5.464  0.0038 -0.1427  0.3164
 1128loPI   PO418036   8.163   2.770   5.763 -0.1165  0.2410  0.2965
 1128loPI   GL118037   8.142   2.708   6.217 -0.4694  0.2737  0.2289
 1128loPI   GL218038   8.437   2.547   6.284  0.3084 -0.0899 -0.1465
 1128loPI   C1A18039   8.172   2.655   6.648 -0.1817 -0.0780  0.0656
 1128loPI   C2A18040   8.107   2.635   7.114  0.0195 -0.2082 -0.0982
 1128loPI   C3A18041   8.163   2.594   7.529 -0.4744 -0.2540 -0.1411
 1128loPI   C4A18042   8.090   2.748   7.945 -0.0620 -0.0922  0.0650
 1128loPI   C5A18043   7.916   2.903   8.366 -0.2190 -0.3086  0.2345
 1128loPI   C6A18044   7.785   3.158   8.660  0.0225 -0.1458 -0.0251
 1128loPI   C1B18045   8.635   2.523   6.662  0.0271 -0.1121 -0.3000
 1128loPI   C2B18046   8.597   2.404   7.048  0.1916 -0.0412 -0.1349
 1128loPI   C3B18047   8.603   2.426   7.422  0.5433 -0.3754  0.0116
 1128loPI   C4B18048   8.643   2.568   7.863 -0.1479  0.1871 -0.0869
 1129loPI    C118049   7.263  12.459   5.590 -0.0802 -0.0372  0.1474
 1129loPI    C218050   7.234  12.313   5.219 -0.0747 -0.0832  0.1649
 1129loPI    C318051   6.949  12.555   5.361  0.0625  0.1604  0.0319
 1129loPI   PO418052   7.270  12.255   5.730 -0.0207  0.1719  0.0479
 1129loPI   GL118053   7.079  12.246   6.162  0.1981 -0.0381 -0.2460
 1129loPI   GL218054   7.450  12.234   6.175 -0.2899 -0.0570 -0.2126
 1129loPI   C1A18055   7.204  12.150   6.568 -0.1310  0.0864 -0.1593
 1129loPI   C2A18056   7.215  12.086   6.946  0.3199 -0.0462  0.0710
 1129loPI   C3A18057   7.141  12.172   7.403  0.1763  0.1319  0.0105
 1129loPI   C4A18058   7.160  12.206   7.843 -0.1350 -0.0147  0.1313
 1129loPI   C5A18059   7.382  12.175   8.233  0.0638  0.1750  0.2010
 1129loPI   C6A18060   7.122  12.152   8.616  0.0037 -0.0812  0.2163
 1129loPI   C1B18061   7.618  12.374   6.675  0.1655 -0.1449 -0.1819
 1129loPI   C2B18062   7.574  12.430   7.131 -0.0741  0.0868  0.1835
 1129loPI   C3B18063   7.491  12.529   7.530 -0.2256 -0.0228  0.0257
 1129loPI   C4B18064   7.537  12.571   7.919  0.0301 -0.0419  0.1463
 1130loPI    C118065  10.792   2.961   5.211 -0.0515 -0.0187  0.2472
 1130loPI    C218066  10.409   3.026   5.119 -0.0371 -0.1566  0.0854
 1130loPI    C318067  10.698   3.202   4.906 -0.0094 -0.0904  0.1772
 1130loPI   PO418068  10.807   2.987   5.474 -0.1485  0.1382 -0.3050
 1130loPI   GL118069  10.789   3.348   5.766  0.0547  0.2568 -0.2868
 1130loPI   GL218070  10.876   3.017   5.964 -0.4585 -0.0850  0.0853
 1130loPI   C1A18071  10.754   3.569   6.219 -0.1978 -0.2972 -0.1690
 1130loPI   C2A18072  10.713   3.545   6.677 -0.2061 -0.2177 -0.1570
 1130loPI   C3A18073  10.736   3.603   7.061  0.2185 -0.0254  0.0350
 1130loPI   C4A18074  10.809   3.497   7.511  0.1373 -0.1158  0.1173
 1130loPI   C5A18075  10.755   3.543   7.908  0.1509 -0.0333  0.1296
 1130loPI   C6A18076  10.733   3.814   8.244  0.1166 -0.1199 -0.1494
 1130loPI   C1B18077  10.782   3.086   6.391 -0.0596  0.1783 -0.1794
 1130loPI   C2B18078  10.816   2.991   6.819  0.0916 -0.2475  0.0818
 1130loPI   C3B18079  10.822   3.033   7.212  0.0026 -0.0256  0.1268
 1130loPI   C4B18080  10.890   3.031   7.675  0.1636  0.2807  0.0533
 1131loPI    C118081   0.408   5.215   5.730 -0.1515 -0.0735  0.2211
 1131loPI    C218082   0.070   5.418   5.667 -0.0745 -0.0998 -0.3196
 1131loPI    C318083   0.328   5.361   5.367  0.2880 -0.3072  0.0224
 1131loPI   PO418084   0.486   5.324   5.944  0.1712  0.1213 -0.0675
 1131loPI   GL118085   0.479   5.039   6.272 -0.3308 -0.0737  0.1171
 1131loPI   GL218086   0.164   5.264   6.390 -0.0008 -0.0010  0.0442
 1131loPI   C1A18087   0.545   5.050   6.672 -0.3270 -0.0104  0.2261
 1131loPI   C2A18088   0.509   4.998   7.148 -0.0808  0.0801 -0.0403
 1131loPI   C3A18089   0.469   5.091   7.606  0.1335 -0.0662  0.0079
 1131loPI   C4A18090   0.464   5.158   8.021 -0.2954  0.3189  0.2100
 1131loPI   C5A18091   0.437   5.084   8.411  0.0588  0.0864 -0.0215
 1131loPI   C6A18092   0.508   5.071   8.812 -0.0638 -0.1172 -0.1150
 1131loPI   C1B18093   0.053   5.157   6.894 -0.0917  0.1861  0.0112
 1131loPI   C2B18094   0.069   5.185   7.318 -0.0989 -0.1501 -0.1604
 1131loPI   C3B18095   0.013   5.211   7.762 -0.1224 -0.2482 -0.0331
 1131loPI   C4B18096  -0.138   5.245   8.125  0.0763  0.2165  0.3110
 1132loPI    C118097  12.840   4.624   5.773 -0.1950 -0.0239  0.1093
 1132loPI    C218098  13.100   4.331   5.693 -0.1328  0.0986 -0.1495
 1132loPI    C318099  12.837   4.446   5.414 -0.1324  0.3130 -0.0624
 1132loPI   PO418100  12.755   4.605   5.929 -0.1827 -0.1112  0.0585
 1132loPI   GL118101  12.910   4.806   6.332 -0.1779 -0.2908 -0.0330
 1132loPI   GL218102  12.730   5.086   6.467  0.1014 -0.0481  0.1533
 1132loPI   C1A18103  12.855   4.605   6.645  0.0442  0.0727 -0.2841
 1132loPI   C2A18104  12.815   4.654   7.110 -0.1732 -0.2831 -0.1755
 1132loPI   C3A18105  12.913   4.700   7.493  0.2109 -0.1907  0.0659
 1132loPI   C4A18106  12.897   4.589   7.902  0.0329  0.1190  0.2473
 1132loPI   C5A18107  12.911   4.337   8.289 -0.1846  0.0394  0.2208
 1132loPI   C6A18108  12.841   4.273   8.720  0.3476 -0.1585  0.0435
 1132loPI   C1B18109  12.820   5.096   6.863 -0.2448 -0.1079 -0.0056
 1132loPI   C2B18110  12.753   5.160   7.318 -0.0391  0.0435  0.1015
 1132loPI   C3B18111  12.887   5.130   7.667  0.0922 -0.1020  0.2514
 1132loPI   C4B18112  12.861   5.125   8.114  0.2136 -0.2049 -0.0886
 1133loPI    C118113   4.143   6.935   5.745  0.1152 -0.0631 -0.0182
 1133loPI    C218114   4.119   7.130   5.396  0.1591  0.0332  0.0324
 1133loPI    C318115   4.445   7.168   5.625  0.0680  0.0895  0.1543
 1133loPI   PO418116   4.098   6.940   6.013  0.0490  0.2934 -0.0981
 1133loPI   GL118117   3.819   6.744   6.379  0.1099  0.1281 -0.1097
 1133loPI   GL218118   3.469   6.704   6.286  0.2811  0.0688  0.0111
 1133loPI   C1A18119   3.841   6.658   6.786 -0.3439 -0.2245  0.0960
 1133loPI   C2A18120   3.908   6.658   7.249  0.1924 -0.0969  0.2341
 1133loPI   C3A18121   3.818   6.653   7.661  0.1785 -0.1618 -0.1941
 1133loPI   C4A18122   3.884   6.615   8.132 -0.1357  0.2142 -0.0416
 1133loPI   C5A18123   3.986   6.308   8.434  0.1257 -0.0994  0.2230
 1133loPI   C6A18124   4.364   6.050   8.607 -0.3704  0.2353 -0.5357
 1133loPI   C1B18125   3.381   6.801   6.697 -0.0637  0.0152 -0.0504
 1133loPI   C2B18126   3.358   6.840   7.128 -0.1289  0.0721  0.2660
 1133loPI   C3B18127   3.372   6.864   7.527 -0.0556 -0.0288 -0.3364
 1133loPI   C4B18128   3.460   6.870   7.908  0.4788 -0.1489 -0.1765
 1134loPI    C118129  14.849  17.272   5.308 -0.2561 -0.1657 -0.1106
 1134loPI    C218130  14.983  17.467   4.986 -0.1084 -0.1439 -0.0364
 1134loPI    C318131  14.596  17.487   5.084 -0.0800  0.1845  0.0197
 1134loPI   PO418132  14.952  17.320   5.616 -0.0697  0.2380 -0.1646
 1134loPI   GL118133  14.901  17.275   6.049 -0.1885 -0.2390  0.2373
 1134loPI   GL218134  14.621  17.527   6.158 -0.0519 -0.0958 -0.2123
 1134loPI   C1A18135  15.002  17.433   6.445 -0.0442 -0.1156  0.0362
 1134loPI   C2A18136  15.036  17.293   6.861  0.0879 -0.2391  0.0260
 1134loPI   C3A18137  15.076  17.352   7.307  0.2459  0.0748  0.1997
 1134loPI   C4A18138  15.068  17.242   7.773 -0.0852 -0.1451  0.2607
 1134loPI   C5A18139  14.970  17.361   8.146  0.1467 -0.1268  0.1166
 1134loPI   C6A18140  15.226  17.567   8.518 -0.2034  0.0523  0.1682
 1134loPI   C1B18141  14.480  17.563   6.473 -0.2640 -0.0041 -0.0469
 1134loPI   C2B18142  14.564  17.487   6.901  0.1510  0.4072 -0.1510
 1134loPI   C3B18143  14.561  17.436   7.314  0.1679  0.1310  0.0763
 1134loPI   C4B18144  14.625  17.488   7.714 -0.2275  0.1340 -0.4138
 1135loPI    C118145   5.712  12.361   5.574 -0.0369 -0.0944 -0.0626
 1135loPI    C218146   5.935  12.173   5.300  0.3506 -0.0459  0.2105
 1135loPI    C318147   5.927  12.573   5.312  0.1429 -0.0460  0.1211
 1135loPI   PO418148   5.653  12.290   5.779 -0.1849  0.1165  0.0016
 1135loPI   GL118149   5.954  12.268   6.172  0.1677 -0.1487 -0.1574
 1135loPI   GL218150   6.169  12.424   6.217  0.0780  0.1041  0.2201
 1135loPI   C1A18151   5.764  12.178   6.566  0.0507 -0.0099 -0.0221
 1135loPI   C2A18152   5.810  12.222   7.101  0.2833 -0.1565  0.0637
 1135loPI   C3A18153   5.771  12.172   7.585  0.2532 -0.1425  0.0362
 1135loPI   C4A18154   5.796  12.073   8.025 -0.1274  0.0607  0.1126
 1135loPI   C5A18155   6.011  12.111   8.355 -0.0222  0.1887 -0.2214
 1135loPI   C6A18156   6.002  12.154   8.803 -0.2102 -0.0831  0.2152
 1135loPI   C1B18157   6.177  12.465   6.612  0.1503 -0.0015 -0.2471
 1135loPI   C2B18158   6.305  12.516   7.101  0.0069  0.1563  0.1404
 1135loPI   C3B18159   6.206  12.557   7.462  0.0430  0.1914  0.0209
 1135loPI   C4B18160   6.100  12.447   7.923 -0.0088 -0.0654  0.0412
 1136loPI    C118161   7.326   7.126   5.476  0.0885 -0.2209 -0.1046
 1136loPI    C218162   7.077   7.299   5.215  0.0653  0.0637  0.1031
 1136loPI    C318163   7.386   7.084   5.082  0.0596  0.2137 -0.1599
 1136loPI   PO418164   7.169   7.026   5.663 -0.4368  0.3294  0.0885
 1136loPI   GL118165   7.338   7.044   5.994  0.1110 -0.1260  0.1801
 1136loPI   GL218166   7.639   7.208   5.935  0.2936  0.0282  0.1416
 1136loPI   C1A18167   7.612   6.817   6.345  0.0358  0.4179 -0.0409
 1136loPI   C2A18168   7.654   6.785   6.818 -0.2540  0.0743 -0.1707
 1136loPI   C3A18169   7.559   6.710   7.197 -0.1184  0.0032 -0.2311
 1136loPI   C4A18170   7.522   6.732   7.597 -0.0006  0.5283 -0.4401
 1136loPI   C5A18171   7.684   6.686   8.027 -0.0055  0.2954  0.0002
 1136loPI   C6A18172   7.853   6.513   8.426 -0.1709  0.1049 -0.2134
 1136loPI   C1B18173   7.493   7.325   6.422  0.0375  0.2015  0.1521
 1136loPI   C2B18174   7.500   7.250   6.914 -0.3220 -0.1755 -0.1094
 1136loPI   C3B18175   7.455   7.248   7.291 -0.0186 -0.1610 -0.0186
 1136loPI   C4B18176   7.398   7.200   7.749 -0.0281 -0.0104  0.2458
 1137loPI    C118177   3.512   9.030   5.844 -0.1172 -0.0487  0.0716
 1137loPI    C218178   3.201   9.267   5.930  0.0889  0.2109  0.1169
 1137loPI    C318179   3.460   9.372   5.644  0.0941 -0.0423  0.0254
 1137loPI   PO418180   3.471   8.832   5.949  0.3559  0.0438 -0.0568
 1137loPI   GL118181   3.545   8.689   6.372  0.4295  0.1666 -0.1902
 1137loPI   GL218182   3.220   8.881   6.382 -0.3195 -0.2304 -0.0888
 1137loPI   C1A18183   3.594   8.637   6.786 -0.2657  0.0628 -0.0513
 1137loPI   C2A18184   3.526   8.752   7.248  0.0267 -0.1122  0.1225
 1137loPI   C3A18185   3.492   8.579   7.664 -0.1255  0.0378  0.2340
 1137loPI   C4A18186   3.607   8.631   8.134 -0.0022 -0.0064 -0.2338
 1137loPI   C5A18187   3.664   8.738   8.492 -0.1185 -0.1046 -0.0540
 1137loPI   C6A18188   3.776   8.912   8.942 -0.1917 -0.0558  0.1398
 1137loPI   C1B18189   3.094   8.931   6.794  0.1126  0.0037 -0.1258
 1137loPI   C2B18190   3.000   8.814   7.114  0.1326 -0.0788 -0.2530
 1137loPI   C3B18191   3.002   8.734   7.551 -0.1205  0.1417 -0.2710
 1137loPI   C4B18192   3.136   8.838   7.875 -0.0989  0.0061 -0.2025
 1138loPI    C118193  15.495   5.813   5.549 -0.0873 -0.1851  0.2408
 1138loPI    C218194  15.206   5.545   5.480  0.0040 -0.2020 -0.0948
 1138loPI    C318195  15.445   5.662   5.182  0.0690  0.1348  0.0843
 1138loPI   PO418196  15.611   5.766   5.823  0.1897  0.2166  0.1279
 1138loPI   GL118197  15.780   5.827   6.160 -0.1011 -0.0107  0.5639
 1138loPI   GL218198  15.382   5.954   6.270  0.1916  0.1155 -0.3849
 1138loPI   C1A18199  15.907   5.879   6.495 -0.1171  0.0237  0.1245
 1138loPI   C2A18200  15.943   6.011   7.013  0.0786  0.1152  0.1460
 1138loPI   C3A18201  15.899   6.043   7.532 -0.1496  0.2920  0.1540
 1138loPI   C4A18202  15.737   5.953   7.946 -0.1035  0.1579 -0.1675
 1138loPI   C5A18203  15.413   5.694   8.053  0.0558 -0.1129  0.1406
 1138loPI   C6A18204  15.136   5.424   8.133 -0.1726  0.2055 -0.1069
 1138loPI   C1B18205  15.402   6.140   6.799  0.0883  0.1184  0.1121
 1138loPI   C2B18206  15.427   6.160   7.281 -0.1972 -0.2017 -0.2094
 1138loPI   C3B18207  15.351   6.162   7.633 -0.0886 -0.1640 -0.0315
 1138loPI   C4B18208  15.361   6.188   8.190 -0.0011  0.1168 -0.1890
 1139loPI    C118209  14.098   1.204   5.578 -0.0703 -0.1915  0.2447
 1139loPI    C218210  14.174   1.559   5.411  0.2113 -0.2423  0.2600
 1139loPI    C318211  13.883   1.327   5.264  0.0980 -0.0532  0.1825
 1139loPI   PO418212  14.098   1.216   5.812 -0.1487  0.1614 -0.0301
 1139loPI   GL118213  13.930   1.299   6.237 -0.1274  0.1695  0.1950
 1139loPI   GL218214  14.260   1.440   6.230  0.2065 -0.1866  0.0215
 1139loPI   C1A18215  13.762   1.421   6.698 -0.0960  0.0736  0.1413
 1139loPI   C2A18216  13.834   1.441   7.199 -0.2390 -0.2336 -0.1306
 1139loPI   C3A18217  13.832   1.435   7.585  0.0660 -0.0777 -0.0162
 1139loPI   C4A18218  13.795   1.430   7.952 -0.0751  0.0899 -0.0170
 1139loPI   C5A18219  13.742   1.505   8.358 -0.1758 -0.1054  0.2725
 1139loPI   C6A18220  13.799   1.746   8.777 -0.1469 -0.0343  0.1508
 1139loPI   C1B18221  14.280   1.314   6.596  0.1270  0.5398 -0.0362
 1139loPI   C2B18222  14.268   1.212   6.937  0.3805 -0.1713 -0.3079
 1139loPI   C3B18223  14.362   1.285   7.391 -0.0095 -0.2544  0.1815
 1139loPI   C4B18224  14.336   1.316   7.836 -0.1278  0.0482 -0.2483
 1140loPI    C118225   4.879  11.822   5.835 -0.2123  0.1823 -0.2619
 1140loPI    C218226   4.520  11.707   5.970 -0.0088 -0.1743 -0.0075
 1140loPI    C318227   4.635  11.611   5.599 -0.2038  0.0099 -0.1181
 1140loPI   PO418228   4.914  12.036   5.927 -0.0838 -0.0221  0.1434
 1140loPI   GL118229   5.116  12.147   6.188  0.2155 -0.0254 -0.0906
 1140loPI   GL218230   5.381  12.260   6.228 -0.0317 -0.0314 -0.2665
 1140loPI   C1A18231   4.899  12.030   6.629  0.1749 -0.0168  0.1219
 1140loPI   C2A18232   4.931  11.996   7.006 -0.0609 -0.0040 -0.0118
 1140loPI   C3A18233   4.939  12.014   7.474  0.0613 -0.1096  0.0536
 1140loPI   C4A18234   4.810  12.053   7.800  0.1301  0.2058  0.2264
 1140loPI   C5A18235   4.904  12.000   8.252  0.3018 -0.0579 -0.3884
 1140loPI   C6A18236   4.972  12.191   8.605  0.1695  0.0735  0.1279
 1140loPI   C1B18237   5.281  12.398   6.628 -0.2853 -0.0155 -0.0027
 1140loPI   C2B18238   5.340  12.357   7.027 -0.1005 -0.0447  0.0797
 1140loPI   C3B18239   5.348  12.381   7.429  0.2033 -0.1437  0.3803
 1140loPI   C4B18240   5.270  12.307   7.857  0.3512  0.0253  0.0858
 1141loPI    C118241  15.641  15.791   5.723 -0.0079 -0.3424  0.1221
 1141loPI    C218242  15.256  15.684   5.747 -0.0357 -0.2411  0.1314
 1141loPI    C318243  15.442  15.684   5.393 -0.1098 -0.0651  0.0914
 1141loPI   PO418244  15.698  16.063   5.908 -0.1338 -0.0078  0.3437
 1141loPI   GL118245  15.885  16.181   6.200  0.1032 -0.0698 -0.1801
 1141loPI   GL218246  15.609  16.071   6.369 -0.0175 -0.1420  0.0195
 1141loPI   C1A18247  16.076  16.099   6.502 -0.1187  0.2758 -0.0664
 1141loPI   C2A18248  16.159  15.944   6.898  0.2060  0.1575 -0.1290
 1141loPI   C3A18249  16.188  15.884   7.354  0.4085  0.0690  0.1525
 1141loPI   C4A18250  16.187  15.959   7.884  0.0167  0.4133  0.0836
 1141loPI   C5A18251  16.202  15.887   8.374 -0.0293 -0.1587  0.1163
 1141loPI   C6A18252  16.307  15.537   8.603 -0.2114  0.3535 -0.0998
 1141loPI   C1B18253  15.658  16.125   6.812  0.1008  0.0537 -0.2464
 1141loPI   C2B18254  15.682  16.156   7.230  0.0633  0.0580 -0.1829
 1141loPI   C3B18255  15.618  16.082   7.647 -0.2846  0.0387  0.1167
 1141loPI   C4B18256  15.703  16.110   8.119  0.0864  0.0393 -0.2225
 1142loPI    C118257  13.965   7.561   5.421  0.1250  0.0009 -0.0189
 1142loPI    C218258  14.151   7.215   5.345  0.1426  0.0151 -0.0409
 1142loPI    C318259  13.796   7.292   5.177  0.0606 -0.0626  0.0949
 1142loPI   PO418260  14.147   7.620   5.639 -0.0596  0.3211  0.1303
 1142loPI   GL118261  14.434   7.611   6.042  0.2575 -0.0337  0.0560
 1142loPI   GL218262  14.738   7.708   6.122 -0.0022  0.1292 -0.1917
 1142loPI   C1A18263  14.357   7.579   6.481  0.3190 -0.0943  0.0268
 1142loPI   C2A18264  14.344   7.489   6.912  0.0312 -0.0510  0.2261
 1142loPI   C3A18265  14.266   7.468   7.334 -0.0891 -0.1750 -0.0988
 1142loPI   C4A18266  14.216   7.462   7.784  0.0114  0.0009 -0.2938
 1142loPI   C5A18267  14.202   7.188   8.111  0.1324  0.0099  0.1903
 1142loPI   C6A18268  14.120   7.102   8.542  0.3089  0.0549 -0.0954
 1142loPI   C1B18269  14.719   7.883   6.602 -0.1611 -0.1822 -0.1248
 1142loPI   C2B18270  14.690   7.839   7.039  0.1869  0.0002  0.1147
 1142loPI   C3B18271  14.624   7.850   7.486 -0.0440 -0.0193  0.1725
 1142loPI   C4B18272  14.573   7.802   7.893  0.2102  0.1315 -0.0750
 1143loPI    C118273   4.235   7.634   5.643  0.0914 -0.3455 -0.1244
 1143loPI    C218274   4.299   7.923   5.374  0.1387 -0.1742  0.0682
 1143loPI    C318275   4.543   7.606   5.389  0.2125 -0.1214 -0.0055
 1143loPI   PO418276   4.230   7.772   5.943  0.2668  0.1693  0.0541
 1143loPI   GL118277   4.177   7.666   6.395  0.0915  0.0045 -0.0598
 1143loPI   GL218278   4.092   7.406   6.622 -0.0889 -0.1476 -0.3129
 1143loPI   C1A18279   4.069   7.954   6.638 -0.0515 -0.1077 -0.1650
 1143loPI   C2A18280   4.115   8.059   7.148 -0.4189 -0.0805  0.0875
 1143loPI   C3A18281   4.136   7.976   7.541  0.1263  0.0840  0.1442
 1143loPI   C4A18282   4.053   7.912   7.941  0.2675  0.3439  0.0368
 1143loPI   C5A18283   4.079   7.868   8.427  0.0801  0.0431  0.0095
 1143loPI   C6A18284   4.256   7.945   8.829  0.0231  0.0905 -0.2438
 1143loPI   C1B18285   4.239   7.575   6.936  0.0083  0.1550  0.1920
 1143loPI   C2B18286   4.223   7.561   7.357  0.1321  0.1516  0.0938
 1143loPI   C3B18287   4.182   7.426   7.719 -0.0674 -0.0843 -0.2109
 1143loPI   C4B18288   4.125   7.440   8.165 -0.0245 -0.3845  0.2820
 1144loPI    C118289   8.040  15.573   5.447  0.0874 -0.0947 -0.0460
 1144loPI    C218290   8.289  15.664   5.148 -0.1111  0.0844 -0.1596
 1144loPI    C318291   7.911  15.792   5.139 -0.2062 -0.1753  0.0172
 1144loPI   PO418292   8.239  15.331   5.626  0.0438 -0.0771  0.2477
 1144loPI   GL118293   8.229  15.134   6.040 -0.0723  0.1214  0.0458
 1144loPI   GL218294   8.420  15.429   6.128 -0.1079  0.0295  0.1005
 1144loPI   C1A18295   8.089  15.059   6.470  0.0865 -0.0209 -0.1238
 1144loPI   C2A18296   8.124  15.122   6.855  0.1575 -0.1709 -0.2814
 1144loPI   C3A18297   8.129  15.152   7.331  0.1667  0.0247 -0.0119
 1144loPI   C4A18298   8.071  15.193   7.786 -0.1331 -0.2326  0.0294
 1144loPI   C5A18299   7.853  15.342   8.165 -0.2676 -0.1501 -0.0874
 1144loPI   C6A18300   7.865  15.317   8.657 -0.0276  0.1379 -0.0199
 1144loPI   C1B18301   8.489  15.423   6.547  0.2818 -0.0833 -0.1712
 1144loPI   C2B18302   8.480  15.447   6.999  0.1557  0.2304  0.4582
 1144loPI   C3B18303   8.489  15.456   7.468  0.0236  0.0266  0.1401
 1144loPI   C4B18304   8.563  15.585   7.858 -0.1576  0.1684  0.1214
 1145loPI    C118305  16.604  13.257   5.559  0.1482 -0.0445  0.0327
 1145loPI    C218306  16.892  13.531   5.519  0.1502 -0.0543 -0.0214
 1145loPI    C318307  16.841  13.252   5.237  0.0514 -0.0183 -0.0396
 1145loPI   PO418308  16.734  13.203   5.901  0.0192  0.2495 -0.1165
 1145loPI   GL118309  16.468  13.327   6.142  0.2053  0.1392  0.0460
 1145loPI   GL218310  16.635  13.363   6.422  0.1083  0.0933 -0.1647
 1145loPI   C1A18311  16.275  13.044   6.396 -0.0240 -0.0965 -0.3657
 1145loPI   C2A18312  16.234  13.098   6.846 -0.0182  0.1281  0.3081
 1145loPI   C3A18313  16.226  13.108   7.253  0.2037  0.1658  0.2948
 1145loPI   C4A18314  16.117  13.076   7.589 -0.4145 -0.0703  0.0326
 1145loPI   C5A18315  16.156  13.074   7.996 -0.2113  0.0573  0.0707
 1145loPI   C6A18316  16.193  12.838   8.337  0.2233 -0.3717 -0.0589
 1145loPI   C1B18317  16.634  13.416   6.854 -0.2036 -0.0006  0.0434
 1145loPI   C2B18318  16.594  13.409   7.366  0.0052  0.1398  0.2556
 1145loPI   C3B18319  16.575  13.359   7.762  0.0225  0.0565  0.3769
 1145loPI   C4B18320  16.496  13.360   8.190 -0.3112 -0.0037 -0.0237
 1146loPI    C118321   9.096   6.970   5.349 -0.2415 -0.0773  0.1221
 1146loPI    C218322   8.896   6.847   5.025 -0.1532  0.1205 -0.0098
 1146loPI    C318323   9.258   6.696   5.107 -0.1860  0.0524  0.0111
 1146loPI   PO418324   8.887   7.089   5.502 -0.1402  0.1193 -0.1927
 1146loPI   GL118325   8.906   7.095   5.927  0.1478  0.0410 -0.3603
 1146loPI   GL218326   9.176   6.899   5.890  0.0145  0.0811 -0.1357
 1146loPI   C1A18327   8.860   7.193   6.421 -0.1047  0.1480 -0.0006
 1146loPI   C2A18328   8.909   7.169   6.894  0.2339 -0.2647  0.0495
 1146loPI   C3A18329   8.817   7.206   7.350 -0.1899  0.2297 -0.0289
 1146loPI   C4A18330   8.767   7.134   7.773 -0.1104 -0.3998  0.3192
 1146loPI   C5A18331   9.000   6.977   8.115  0.2174  0.2220  0.3940
 1146loPI   C6A18332   9.314   6.793   8.246  0.1576  0.0454  0.0403
 1146loPI   C1B18333   9.275   6.930   6.323  0.1143 -0.1455  0.0547
 1146loPI   C2B18334   9.439   6.939   6.685 -0.1791 -0.0816  0.0063
 1146loPI   C3B18335   9.371   7.020   7.129  0.0900  0.2184 -0.5371
 1146loPI   C4B18336   9.377   7.017   7.588  0.0266 -0.0115  0.0392
 1147loPI    C118337   4.839   0.992   5.480  0.1525 -0.0545  0.0747
 1147loPI    C218338   4.913   1.366   5.358  0.0617  0.0181  0.2394
 1147loPI    C318339   5.216   1.118   5.438  0.1238 -0.0392 -0.1532
 1147loPI   PO418340   4.621   1.021   5.655  0.1076  0.1899 -0.2806
 1147loPI   GL118341   4.548   1.045   6.048 -0.1930  0.1774 -0.0967
 1147loPI   GL218342   4.589   1.416   6.081 -0.1089 -0.2473 -0.3031
 1147loPI   C1A18343   4.756   1.008   6.523 -0.1779  0.3226 -0.0458
 1147loPI   C2A18344   4.724   1.015   6.999 -0.0352 -0.0176 -0.1397
 1147loPI   C3A18345   4.696   1.099   7.513 -0.3688 -0.0088  0.0941
 1147loPI   C4A18346   4.737   1.071   7.970  0.1409 -0.1965 -0.2473
 1147loPI   C5A18347   4.742   1.291   8.370  0.1565 -0.0965  0.1701
 1147loPI   C6A18348   4.468   1.559   8.656 -0.1600  0.3782  0.3372
 1147loPI   C1B18349   4.711   1.471   6.499 -0.2236 -0.0306 -0.1484
 1147loPI   C2B18350   4.663   1.569   6.918 -0.2623  0.2224 -0.0266
 1147loPI   C3B18351   4.707   1.680   7.359 -0.2413  0.4435 -0.0763
 1147loPI   C4B18352   4.702   1.581   7.792 -0.1260 -0.2536 -0.1157
 1148loPI    C118353   0.028   5.864   5.380  0.3669  0.0577  0.0182
 1148loPI    C218354  -0.171   5.959   5.047  0.0540 -0.2344  0.1158
 1148loPI    C318355   0.198   5.806   5.023  0.0904 -0.1185 -0.0880
 1148loPI   PO418356  -0.071   6.029   5.632  0.1191 -0.2419  0.0515
 1148loPI   GL118357  -0.050   6.154   6.086 -0.2636  0.0655  0.1084
 1148loPI   GL218358  -0.045   5.820   6.090  0.1071 -0.1153 -0.0764
 1148loPI   C1A18359  -0.078   6.270   6.506  0.0243  0.0909 -0.1595
 1148loPI   C2A18360  -0.130   6.211   6.872  0.0045 -0.1772  0.2623
 1148loPI   C3A18361  -0.146   6.311   7.332  0.0242  0.2015  0.2171
 1148loPI   C4A18362  -0.145   6.318   7.743  0.0472  0.0352  0.1939
 1148loPI   C5A18363  -0.171   6.265   8.089  0.0990 -0.4280 -0.1489
 1148loPI   C6A18364  -0.531   6.113   8.417 -0.5120  0.0696  0.2908
 1148loPI   C1B18365   0.023   5.727   6.684 -0.0011 -0.0689  0.2354
 1148loPI   C2B18366   0.006   5.640   7.055 -0.2659  0.0210  0.1208
 1148loPI   C3B18367  -0.080   5.792   7.446 -0.0305 -0.0555  0.3004
 1148loPI   C4B18368  -0.113   5.694   7.868  0.2771  0.1688 -0.2426
 1149loPI    C118369   6.099  10.285   5.718 -0.2692  0.0608  0.0136
 1149loPI    C218370   6.083  10.543   5.413 -0.0307  0.1841  0.1029
 1149loPI    C318371   5.936  10.173   5.370  0.1047  0.1625 -0.1993
 1149loPI   PO418372   6.008  10.435   5.937  0.0090  0.2223  0.1176
 1149loPI   GL118373   5.910  10.186   6.227 -0.1919  0.1946 -0.1866
 1149loPI   GL218374   6.199  10.041   6.249 -0.2064 -0.1315 -0.0921
 1149loPI   C1A18375   5.735  10.279   6.608  0.0167 -0.1874 -0.0910
 1149loPI   C2A18376   5.731  10.404   6.889  0.0444 -0.2994  0.0347
 1149loPI   C3A18377   5.612  10.304   7.375  0.0624 -0.0079 -0.1242
 1149loPI   C4A18378   5.596  10.340   7.827 -0.0160  0.0610  0.2744
 1149loPI   C5A18379   5.516  10.287   8.326  0.2396 -0.3786  0.0716
 1149loPI   C6A18380   5.265   9.931   8.315  0.0300  0.2239  0.2791
 1149loPI   C1B18381   6.203  10.081   6.637 -0.1569  0.1864 -0.0607
 1149loPI   C2B18382   6.166  10.158   7.074  0.0830  0.1263 -0.2462
 1149loPI   C3B18383   6.116  10.138   7.451 -0.0400 -0.1074 -0.1892
 1149loPI   C4B18384   6.115  10.137   7.932 -0.0344  0.0636 -0.0795
 1150loPI    C118385  12.474  13.589   5.382  0.2638  0.0215 -0.0408
 1150loPI    C218386  12.630  13.248   5.523  0.2601 -0.0920 -0.3050
 1150loPI    C318387  12.426  13.247   5.179  0.0365  0.1314 -0.1761
 1150loPI   PO418388  12.418  13.692   5.569  0.0256  0.0004 -0.0337
 1150loPI   GL118389  12.547  13.482   5.993  0.1837 -0.0912 -0.0709
 1150loPI   GL218390  12.799  13.294   6.106  0.1805 -0.2493  0.1912
 1150loPI   C1A18391  12.391  13.481   6.330 -0.1517  0.0128 -0.0266
 1150loPI   C2A18392  12.537  13.501   6.722  0.2439  0.1963  0.0093
 1150loPI   C3A18393  12.415  13.439   7.132  0.1328  0.0221 -0.0370
 1150loPI   C4A18394  12.432  13.581   7.578 -0.1121 -0.0170  0.0079
 1150loPI   C5A18395  12.501  13.571   8.046  0.0315  0.0836  0.2902
 1150loPI   C6A18396  12.386  13.524   8.460 -0.4954 -0.0165 -0.1248
 1150loPI   C1B18397  13.025  13.299   6.530  0.1036 -0.2936  0.0145
 1150loPI   C2B18398  12.935  13.261   6.952  0.1950  0.1446 -0.3946
 1150loPI   C3B18399  12.899  13.312   7.408  0.0788 -0.1374  0.0676
 1150loPI   C4B18400  12.886  13.299   7.800 -0.0467  0.1568 -0.3591
 1151loPI    C118401   9.067   3.328   5.212 -0.0257  0.1399  0.1804
 1151loPI    C218402   9.459   3.337   5.294  0.0285 -0.1345 -0.0348
 1151loPI    C318403   9.280   3.658   5.137  0.2116 -0.0779 -0.1308
 1151loPI   PO418404   9.013   3.155   5.434 -0.1957  0.2007  0.2822
 1151loPI   GL118405   9.109   3.263   5.906  0.2559 -0.3614 -0.2808
 1151loPI   GL218406   9.306   3.266   5.817  0.2023 -0.1186  0.1110
 1151loPI   C1A18407   8.922   3.381   6.304 -0.0322 -0.0091  0.0775
 1151loPI   C2A18408   8.997   3.304   6.745  0.1225  0.1672  0.1200
 1151loPI   C3A18409   8.882   3.232   7.190  0.0473  0.0018  0.1054
 1151loPI   C4A18410   8.957   3.255   7.646 -0.1288 -0.1287 -0.2008
 1151loPI   C5A18411   8.916   3.336   8.131 -0.1766  0.3849  0.0467
 1151loPI   C6A18412   9.066   3.665   8.460  0.0235  0.0744  0.3106
 1151loPI   C1B18413   9.441   3.175   6.314 -0.1128 -0.1658  0.0236
 1151loPI   C2B18414   9.505   3.092   6.712 -0.0699  0.1191  0.1185
 1151loPI   C3B18415   9.373   3.104   7.122  0.0339 -0.1482  0.0336
 1151loPI   C4B18416   9.523   3.130   7.626  0.3524  0.2071 -0.1123
 1152loPI    C118417  14.685   7.032   5.357 -0.1890 -0.0931 -0.0017
 1152loPI    C218418  14.885   6.990   5.012 -0.0571 -0.0507  0.0688
 1152loPI    C318419  14.538   7.189   5.020  0.0264  0.0994 -0.0086
 1152loPI   PO418420  14.787   6.907   5.583 -0.1026 -0.2003  0.0671
 1152loPI   GL118421  14.776   6.795   6.009  0.3254 -0.0732  0.0531
 1152loPI   GL218422  14.529   6.711   6.005 -0.0873  0.0051 -0.1688
 1152loPI   C1A18423  14.772   6.877   6.394 -0.1000 -0.1644  0.2715
 1152loPI   C2A18424  14.864   6.812   6.824  0.0204 -0.0697  0.0944
 1152loPI   C3A18425  14.899   6.855   7.245  0.3457 -0.0697  0.1916
 1152loPI   C4A18426  14.854   6.852   7.688  0.0750 -0.0983 -0.0038
 1152loPI   C5A18427  14.620   6.849   8.029 -0.3061  0.0634  0.4837
 1152loPI   C6A18428  14.269   6.653   8.322  0.1926 -0.0896  0.0350
 1152loPI   C1B18429  14.406   6.585   6.460 -0.1599  0.0112 -0.3027
 1152loPI   C2B18430  14.463   6.525   6.868 -0.0576  0.0335  0.0063
 1152loPI   C3B18431  14.480   6.495   7.350 -0.0983  0.2919 -0.1230
 1152loPI   C4B18432  14.332   6.559   7.756  0.0799 -0.2565 -0.0853
 1153loPI    C118433  14.693   5.797   5.440  0.1564  0.0539 -0.1528
 1153loPI    C218434  15.020   5.997   5.328  0.1510  0.0052 -0.2569
 1153loPI    C318435  14.887   5.692   5.106  0.1138 -0.0632 -0.1413
 1153loPI   PO418436  14.770   5.716   5.722 -0.2187 -0.0509  0.0169
 1153loPI   GL118437  14.770   5.698   6.150  0.0388 -0.0059  0.2336
 1153loPI   GL218438  14.712   5.340   6.136  0.1505 -0.2445  0.1225
 1153loPI   C1A18439  14.986   5.844   6.513  0.0460  0.1230 -0.0762
 1153loPI   C2A18440  15.046   5.862   6.973 -0.2121 -0.1330  0.1334
 1153loPI   C3A18441  14.997   5.780   7.385  0.1051 -0.1122 -0.0920
 1153loPI   C4A18442  14.989   5.865   7.788  0.0920 -0.0879 -0.0828
 1153loPI   C5A18443  14.911   5.962   8.224  0.1838  0.0810  0.1659
 1153loPI   C6A18444  15.083   6.221   8.596  0.2939  0.3308 -0.2634
 1153loPI   C1B18445  14.661   5.430   6.561  0.2710  0.0220 -0.0431
 1153loPI   C2B18446  14.673   5.541   6.906  0.3065  0.1545  0.1358
 1153loPI   C3B18447  14.573   5.470   7.368  0.0586  0.1168  0.1874
 1153loPI   C4B18448  14.644   5.514   7.727 -0.1635  0.2260  0.2206
 1154loPI    C118449  16.181  14.428   5.892 -0.3734  0.1476 -0.2735
 1154loPI    C218450  16.281  14.151   5.621 -0.2391  0.0270 -0.1029
 1154loPI    C318451  16.126  14.500   5.502 -0.1401 -0.0067 -0.3369
 1154loPI   PO418452  16.155  14.383   6.101 -0.0889  0.0027  0.0669
 1154loPI   GL118453  16.057  14.607   6.415 -0.1628 -0.0959 -0.2715
 1154loPI   GL218454  16.320  14.436   6.567  0.0699 -0.0704 -0.4371
 1154loPI   C1A18455  15.947  14.637   6.849  0.2275  0.2067  0.0089
 1154loPI   C2A18456  15.962  14.587   7.329  0.1512 -0.1597 -0.1149
 1154loPI   C3A18457  15.917  14.463   7.761  0.0855 -0.2802  0.1027
 1154loPI   C4A18458  15.891  14.558   8.106 -0.0405 -0.0490  0.0869
 1154loPI   C5A18459  15.853  14.709   8.532  0.2542 -0.1338  0.2336
 1154loPI   C6A18460  15.732  14.837   8.927  0.1681 -0.2719  0.2557
 1154loPI   C1B18461  16.451  14.395   6.913 -0.1574  0.3492  0.2671
 1154loPI   C2B18462  16.443  14.296   7.329 -0.2838  0.0268  0.1575
 1154loPI   C3B18463  16.437  14.448   7.706 -0.1870 -0.1703 -0.3798
 1154loPI   C4B18464  16.321  14.313   8.075 -0.1388  0.1160 -0.2299
 1155loPI    C118465   1.715  10.467   5.462 -0.0319  0.0678 -0.1744
 1155loPI    C218466   1.438  10.756   5.471 -0.1595 -0.0583  0.0574
 1155loPI    C318467   1.466  10.514   5.153 -0.3481 -0.0756  0.0532
 1155loPI   PO418468   1.665  10.317   5.740  0.3381 -0.0541  0.1658
 1155loPI   GL118469   1.710  10.265   6.076 -0.1856 -0.3340 -0.2558
 1155loPI   GL218470   1.961  10.284   6.213  0.1476 -0.0535  0.1784
 1155loPI   C1A18471   1.568   9.948   6.386  0.2120  0.2379  0.0135
 1155loPI   C2A18472   1.690   9.944   6.844 -0.0109 -0.2285  0.3651
 1155loPI   C3A18473   1.632   9.877   7.255  0.0224  0.2821 -0.0901
 1155loPI   C4A18474   1.477   9.876   7.651  0.2593  0.0138 -0.4096
 1155loPI   C5A18475   1.329   9.729   8.133  0.0446 -0.0309  0.3252
 1155loPI   C6A18476   1.035   9.627   8.247  0.0005  0.0592  0.1967
 1155loPI   C1B18477   2.066  10.276   6.714  0.2324 -0.2826 -0.0556
 1155loPI   C2B18478   2.021  10.262   7.217 -0.0933  0.1999 -0.2421
 1155loPI   C3B18479   1.928  10.161   7.621 -0.0932 -0.2392  0.1393
 1155loPI   C4B18480   1.860  10.136   8.080 -0.1257  0.1421  0.0291
 1156loPI    C118481   6.249   1.770   6.062 -0.1898 -0.1960 -0.1731
 1156loPI    C218482   6.249   1.818   5.664  0.2214 -0.0236 -0.1577
 1156loPI    C318483   6.216   2.136   5.904 -0.0703 -0.1314 -0.0501
 1156loPI   PO418484   6.441   1.506   6.058  0.0060 -0.0234 -0.0422
 1156loPI   GL118485   6.597   1.329   6.382 -0.1194 -0.2648 -0.0109
 1156loPI   GL218486   6.505   0.952   6.525  0.1670  0.0712 -0.1443
 1156loPI   C1A18487   6.567   1.343   6.795  0.3196 -0.0452 -0.0043
 1156loPI   C2A18488   6.472   1.284   7.186 -0.1556 -0.1326 -0.2411
 1156loPI   C3A18489   6.531   1.308   7.555 -0.0990  0.0166  0.4865
 1156loPI   C4A18490   6.470   1.209   7.923  0.1189  0.3894  0.0788
 1156loPI   C5A18491   6.493   1.276   8.374  0.1639  0.0812  0.1296
 1156loPI   C6A18492   6.557   1.715   8.537  0.2104 -0.1163  0.0463
 1156loPI   C1B18493   6.712   0.850   6.856  0.1121  0.0248  0.0758
 1156loPI   C2B18494   7.159   0.734   6.949  0.1699 -0.3582  0.0691
 1156loPI   C3B18495   7.539   0.997   7.030  0.2878  0.3603 -0.0122
 1156loPI   C4B18496   7.953   1.250   6.889  0.1242 -0.0232  0.2037
 1157loPI    C118497   2.212   9.606   5.483  0.0418  0.0556 -0.0048
 1157loPI    C218498   2.415   9.311   5.305  0.0680  0.1048 -0.0570
 1157loPI    C318499   2.470   9.690   5.189  0.0458  0.1320  0.0203
 1157loPI   PO418500   2.213   9.444   5.856 -0.1690 -0.0932 -0.1316
 1157loPI   GL118501   2.186   9.521   6.202 -0.0669  0.0533  0.1074
 1157loPI   GL218502   2.107   9.234   6.412  0.3397  0.1712 -0.1549
 1157loPI   C1A18503   2.081   9.818   6.533  0.3536 -0.2044 -0.3761
 1157loPI   C2A18504   2.135   9.707   6.961  0.2121 -0.0353 -0.1386
 1157loPI   C3A18505   2.035   9.704   7.413  0.0251 -0.2361 -0.3023
 1157loPI   C4A18506   2.028   9.692   7.761  0.0451  0.0355 -0.0779
 1157loPI   C5A18507   1.974   9.696   8.248  0.1923 -0.0889  0.0068
 1157loPI   C6A18508   2.125   9.538   8.616 -0.0502 -0.0593  0.0839
 1157loPI   C1B18509   2.162   9.253   6.737 -0.0160 -0.2406  0.0895
 1157loPI   C2B18510   2.198   9.229   7.196 -0.2316 -0.1637  0.1638
 1157loPI   C3B18511   2.065   9.232   7.618  0.1712  0.1486 -0.0737
 1157loPI   C4B18512   2.065   9.154   8.136  0.0232  0.2828  0.0216
 1158loPI    C118513   7.118  17.011   5.577 -0.0322 -0.0294  0.0339
 1158loPI    C218514   7.314  17.269   5.343 -0.1897 -0.0596 -0.1334
 1158loPI    C318515   7.063  17.003   5.181 -0.2008 -0.1678  0.0589
 1158loPI   PO418516   7.065  17.136   5.809  0.2790 -0.5342 -0.2185
 1158loPI   GL118517   7.096  17.171   6.114  0.1529  0.0338  0.2384
 1158loPI   GL218518   6.810  17.130   6.372 -0.0953 -0.1413  0.1694
 1158loPI   C1A18519   7.402  17.003   6.476 -0.0690  0.1492 -0.1891
 1158loPI   C2A18520   7.285  16.825   6.872 -0.1451 -0.3472 -0.0699
 1158loPI   C3A18521   7.315  16.927   7.209  0.0023 -0.0650  0.0785
 1158loPI   C4A18522   7.354  16.867   7.672  0.2563 -0.0328  0.2209
 1158loPI   C5A18523   7.142  17.060   8.034  0.3271  0.0544 -0.0534
 1158loPI   C6A18524   7.070  17.139   8.525  0.0827 -0.1022 -0.0062
 1158loPI   C1B18525   6.796  17.097   6.762  0.2162  0.1929  0.2840
 1158loPI   C2B18526   6.851  17.054   7.101  0.0589  0.0905  0.0686
 1158loPI   C3B18527   6.893  17.045   7.488 -0.0023 -0.4216  0.4183
 1158loPI   C4B18528   6.731  17.298   7.864  0.4155 -0.1158  0.4842
 1159loPI    C118529   9.376  10.910   5.617  0.1564  0.0262  0.1314
 1159loPI    C218530   9.630  11.003   5.322 -0.0595 -0.0227 -0.0727
 1159loPI    C318531   9.281  10.825   5.238 -0.2275  0.1741  0.1897
 1159loPI   PO418532   9.513  10.841   5.795  0.0511 -0.0424 -0.1156
 1159loPI   GL118533   9.473  10.882   6.214  0.3055  0.1883 -0.1442
 1159loPI   GL218534   9.227  10.597   6.250 -0.2493  0.2610  0.1220
 1159loPI   C1A18535   9.319  10.976   6.557 -0.0726  0.1124 -0.0829
 1159loPI   C2A18536   9.254  10.872   6.921 -0.0117 -0.1291  0.1401
 1159loPI   C3A18537   9.082  10.887   7.360 -0.3582 -0.0877  0.0392
 1159loPI   C4A18538   9.209  10.737   7.759 -0.1118 -0.1236  0.3841
 1159loPI   C5A18539   9.313  10.887   8.191 -0.1727  0.1387 -0.0725
 1159loPI   C6A18540   9.258  11.131   8.641  0.1982 -0.0261 -0.0803
 1159loPI   C1B18541   9.343  10.481   6.586 -0.0828  0.1189  0.2295
 1159loPI   C2B18542   9.313  10.406   7.082  0.1663  0.1890  0.4128
 1159loPI   C3B18543   9.175  10.304   7.527  0.1466  0.0041 -0.2480
 1159loPI   C4B18544   8.841  10.377   7.921  0.0101  0.0396  0.1734
 1160loPI    C118545   7.751  12.203   5.515 -0.3505  0.0637 -0.2499
 1160loPI    C218546   7.823  12.551   5.331  0.0105  0.1289  0.0036
 1160loPI    C318547   8.057  12.235   5.260 -0.0798  0.0474  0.0653
 1160loPI   PO418548   7.799  12.307   5.777 -0.1450  0.1848 -0.1596
 1160loPI   GL118549   7.906  12.421   6.235 -0.1282 -0.3210  0.0987
 1160loPI   GL218550   8.244  12.346   6.140 -0.3127 -0.0160 -0.1217
 1160loPI   C1A18551   8.112  12.680   6.569 -0.0767  0.2354 -0.2359
 1160loPI   C2A18552   8.028  12.700   6.970 -0.0571 -0.1963  0.2341
 1160loPI   C3A18553   7.937  12.737   7.405  0.0092 -0.2094 -0.1237
 1160loPI   C4A18554   7.914  12.843   7.803 -0.1571 -0.0097 -0.1923
 1160loPI   C5A18555   8.086  12.690   8.175  0.0550 -0.1937 -0.3903
 1160loPI   C6A18556   8.221  12.507   8.619  0.2699 -0.2028  0.0195
 1160loPI   C1B18557   8.197  12.141   6.519 -0.1905  0.0930  0.0326
 1160loPI   C2B18558   8.131  12.220   6.894  0.1866  0.1115 -0.0415
 1160loPI   C3B18559   8.042  12.255   7.269 -0.0314  0.0563 -0.2934
 1160loPI   C4B18560   7.999  12.338   7.676 -0.2601 -0.3125 -0.1192
 1161loPI    C118561   8.859  12.188   5.426 -0.1079  0.0398  0.0687
 1161loPI    C218562   8.554  12.299   5.191 -0.0509 -0.0750 -0.0610
 1161loPI    C318563   8.902  12.188   5.028  0.0518  0.0273  0.0853
 1161loPI   PO418564   8.751  12.113   5.629  0.1772  0.2829 -0.2182
 1161loPI   GL118565   8.680  12.272   5.955  0.0278 -0.0213  0.0676
 1161loPI   GL218566   8.850  12.565   6.116  0.2891 -0.0609  0.0789
 1161loPI   C1A18567   8.683  12.035   6.311  0.0383  0.0144 -0.3642
 1161loPI   C2A18568   8.708  12.003   6.734  0.2199  0.0340 -0.0567
 1161loPI   C3A18569   8.590  12.078   7.181  0.0255  0.1247  0.1088
 1161loPI   C4A18570   8.428  12.095   7.584 -0.5153 -0.0115 -0.3194
 1161loPI   C5A18571   8.506  12.162   7.936  0.4854 -0.2599  0.0727
 1161loPI   C6A18572   8.548  12.384   8.202 -0.0588  0.0345 -0.0621
 1161loPI   C1B18573   8.589  12.527   6.454  0.0834  0.2802 -0.1836
 1161loPI   C2B18574   8.580  12.523   6.843  0.0220 -0.0219 -0.0654
 1161loPI   C3B18575   8.405  12.602   7.344 -0.1461  0.1494  0.4037
 1161loPI   C4B18576   8.407  12.651   7.838  0.0340  0.1233 -0.4365
 1162loPI    C118577  17.414  12.518   5.621  0.0796 -0.0212  0.0028
 1162loPI    C218578  17.077  12.385   5.453  0.1371 -0.1886  0.0181
 1162loPI    C318579  17.426  12.210   5.366  0.2194 -0.0200  0.0071
 1162loPI   PO418580  17.365  12.606   5.873 -0.2685  0.2554  0.3578
 1162loPI   GL118581  17.234  12.809   6.192  0.2055  0.0610  0.0144
 1162loPI   GL218582  16.924  12.552   6.169 -0.1465  0.2377 -0.0404
 1162loPI   C1A18583  17.263  12.775   6.564 -0.0603 -0.1240  0.2975
 1162loPI   C2A18584  17.187  12.775   6.987 -0.1749  0.1355 -0.5428
 1162loPI   C3A18585  17.151  12.785   7.395 -0.4721  0.1436  0.1393
 1162loPI   C4A18586  17.168  12.824   7.766 -0.0094 -0.1310 -0.1392
 1162loPI   C5A18587  17.162  12.710   8.197  0.1842 -0.0326  0.0038
 1162loPI   C6A18588  16.989  12.689   8.681 -0.1107 -0.1119  0.4634
 1162loPI   C1B18589  16.869  12.433   6.645 -0.3083 -0.1721 -0.2112
 1162loPI   C2B18590  16.746  12.432   7.061 -0.2180  0.0856  0.1129
 1162loPI   C3B18591  16.781  12.435   7.441  0.1409  0.1812 -0.2176
 1162loPI   C4B18592  16.721  12.361   7.947 -0.3315  0.3341  0.1760
 1163loPI    C118593  12.070   1.900   5.647 -0.1656  0.2232  0.0447
 1163loPI    C218594  12.279   2.004   5.322  0.1513  0.0933  0.2016
 1163loPI    C318595  12.054   1.673   5.319 -0.0088  0.2016  0.0511
 1163loPI   PO418596  12.182   1.908   5.826  0.1304 -0.2338 -0.1940
 1163loPI   GL118597  12.220   2.170   6.156 -0.0574 -0.1880  0.1653
 1163loPI   GL218598  11.957   2.226   6.387  0.0121  0.0249  0.2214
 1163loPI   C1A18599  12.381   1.977   6.495 -0.3018 -0.1064  0.1614
 1163loPI   C2A18600  12.420   1.860   6.833  0.1491  0.0259 -0.3100
 1163loPI   C3A18601  12.490   2.017   7.266 -0.3445  0.0312 -0.0773
 1163loPI   C4A18602  12.364   1.964   7.750 -0.2084  0.0518  0.2849
 1163loPI   C5A18603  12.433   2.024   8.150 -0.2056 -0.1411 -0.0422
 1163loPI   C6A18604  12.355   2.385   8.385  0.2949 -0.1283 -0.1300
 1163loPI   C1B18605  11.887   2.209   6.808 -0.0893 -0.0316 -0.0119
 1163loPI   C2B18606  11.937   2.166   7.206  0.1563 -0.0191 -0.0804
 1163loPI   C3B18607  11.868   2.128   7.637  0.2334  0.1396 -0.2999
 1163loPI   C4B18608  11.895   2.149   8.040 -0.1153 -0.3321  0.2300
 1164loPI    C118609   0.128  10.895   5.409 -0.2296 -0.0508 -0.2488
 1164loPI    C218610   0.010  11.269   5.335 -0.2015  0.0144  0.0265
 1164loPI    C318611   0.073  11.016   5.031  0.1344  0.3395 -0.1831
 1164loPI   PO418612  -0.082  10.895   5.743  0.4589 -0.1794 -0.0754
 1164loPI   GL118613  -0.059  10.946   6.065  0.0648  0.1457 -0.2774
 1164loPI   GL218614  -0.155  10.667   6.191 -0.3292 -0.1054  0.0580
 1164loPI   C1A18615   0.151  10.990   6.424 -0.2587 -0.2054 -0.2174
 1164loPI   C2A18616   0.160  10.960   6.817 -0.1051 -0.1025  0.1108
 1164loPI   C3A18617   0.015  11.027   7.193  0.3653  0.1563 -0.1190
 1164loPI   C4A18618  -0.069  11.037   7.669 -0.0730  0.0352  0.1509
 1164loPI   C5A18619   0.088  11.016   8.178 -0.0877 -0.2769 -0.3234
 1164loPI   C6A18620   0.159  10.805   8.462 -0.4025  0.1722 -0.1799
 1164loPI   C1B18621  -0.322  10.629   6.578 -0.1184  0.1399  0.0190
 1164loPI   C2B18622  -0.252  10.669   6.955  0.0800 -0.0906  0.3197
 1164loPI   C3B18623  -0.385  10.757   7.330 -0.1185 -0.4430 -0.0277
 1164loPI   C4B18624  -0.489  10.655   7.698  0.1035 -0.0568  0.0327
 1165loPI    C118625  16.687  11.276   5.514 -0.0605  0.0805  0.0236
 1165loPI    C218626  16.625  11.593   5.278  0.1654  0.1080 -0.0013
 1165loPI    C318627  16.624  11.224   5.122  0.0986  0.1105 -0.0069
 1165loPI   PO418628  16.804  11.358   5.719  0.4623 -0.2390  0.2012
 1165loPI   GL118629  17.088  11.579   5.971 -0.5109 -0.0326 -0.0229
 1165loPI   GL218630  16.817  11.553   6.220 -0.0896  0.0299 -0.0576
 1165loPI   C1A18631  17.245  11.581   6.390 -0.0470  0.0548 -0.1773
 1165loPI   C2A18632  17.275  11.595   6.841 -0.0243 -0.0282 -0.0821
 1165loPI   C3A18633  17.294  11.748   7.262 -0.0992  0.3513 -0.3735
 1165loPI   C4A18634  17.331  11.663   7.647 -0.2625 -0.0842  0.0800
 1165loPI   C5A18635  17.235  11.864   7.962 -0.0865  0.1600  0.2549
 1165loPI   C6A18636  16.955  11.798   8.307 -0.1147  0.2006  0.4294
 1165loPI   C1B18637  16.474  11.564   6.592  0.3187 -0.0732  0.0860
 1165loPI   C2B18638  16.437  11.514   7.014  0.2774 -0.1345  0.0960
 1165loPI   C3B18639  16.283  11.481   7.435  0.0911  0.1793 -0.1220
 1165loPI   C4B18640  16.376  11.482   7.858 -0.2571 -0.3581 -0.0582
 1166loPI    C118641  10.049  17.434   5.581  0.1653  0.1348 -0.2288
 1166loPI    C218642  10.164  17.717   5.323 -0.3892  0.3850 -0.2161
 1166loPI    C318643   9.938  17.412   5.197  0.1605 -0.0355 -0.2183
 1166loPI   PO418644  10.237  17.383   5.713 -0.0119  0.2442 -0.0447
 1166loPI   GL118645  10.365  17.574   6.093  0.1414 -0.0129  0.0506
 1166loPI   GL218646  10.127  17.298   6.251 -0.1736 -0.3048 -0.2315
 1166loPI   C1A18647  10.392  17.670   6.523  0.2814  0.3018  0.0847
 1166loPI   C2A18648  10.424  17.606   7.004 -0.1664  0.2248  0.0859
 1166loPI   C3A18649  10.406  17.640   7.395  0.0408 -0.2102 -0.4441
 1166loPI   C4A18650  10.436  17.655   7.941 -0.0983  0.0750 -0.2038
 1166loPI   C5A18651  10.445  17.465   8.349 -0.0872 -0.0724  0.1968
 1166loPI   C6A18652  10.432  17.551   8.761 -0.0101  0.1151  0.1268
 1166loPI   C1B18653  10.066  17.268   6.669  0.0655 -0.1420 -0.1572
 1166loPI   C2B18654  10.006  17.246   7.139  0.0807 -0.1891 -0.1622
 1166loPI   C3B18655  10.047  17.317   7.585  0.2706 -0.0397  0.4249
 1166loPI   C4B18656  10.095  17.323   8.055  0.2177 -0.0031 -0.0496
 1167loPI    C118657   9.897   5.513   5.247 -0.0104  0.0570  0.0485
 1167loPI    C218658  10.072   5.365   4.919 -0.1663  0.0693 -0.0411
 1167loPI    C318659   9.796   5.653   4.886 -0.3132 -0.0552  0.0870
 1167loPI   PO418660   9.924   5.303   5.365 -0.0839  0.2637 -0.0507
 1167loPI   GL118661   9.914   5.191   5.810  0.0566  0.4349 -0.1288
 1167loPI   GL218662  10.319   5.172   5.778 -0.0138 -0.2304  0.2594
 1167loPI   C1A18663  10.069   5.289   6.214  0.2363  0.0519  0.0425
 1167loPI   C2A18664  10.108   5.176   6.626  0.0882  0.2776  0.0342
 1167loPI   C3A18665  10.022   5.168   7.040 -0.0482 -0.1559  0.0354
 1167loPI   C4A18666  10.053   5.281   7.513 -0.1675 -0.1473  0.0545
 1167loPI   C5A18667  10.115   5.183   7.941 -0.0645  0.1266  0.1628
 1167loPI   C6A18668  10.312   5.337   8.210  0.0146 -0.1694 -0.0575
 1167loPI   C1B18669  10.572   5.135   6.241 -0.0352 -0.0380 -0.2173
 1167loPI   C2B18670  10.587   4.986   6.690  0.2430 -0.1053 -0.0242
 1167loPI   C3B18671  10.577   5.035   7.175  0.1555  0.1303  0.1974
 1167loPI   C4B18672  10.517   5.107   7.636  0.1386  0.3676 -0.0537
 1168loPI    C118673   1.471  11.539   5.475  0.1210 -0.1498  0.0375
 1168loPI    C218674   1.787  11.742   5.339  0.0708  0.0379  0.1953
 1168loPI    C318675   1.491  11.643   5.089  0.0825  0.1847  0.1218
 1168loPI   PO418676   1.521  11.573   5.786 -0.0908 -0.0067  0.0538
 1168loPI   GL118677   1.765  11.477   6.099 -0.0355 -0.1416  0.1334
 1168loPI   GL218678   1.691  11.777   6.282 -0.1865  0.0024 -0.1614
 1168loPI   C1A18679   1.888  11.337   6.482  0.1749 -0.3454 -0.0553
 1168loPI   C2A18680   1.798  11.237   6.925 -0.0106  0.1723  0.2926
 1168loPI   C3A18681   1.794  11.249   7.374 -0.1964  0.3206 -0.0820
 1168loPI   C4A18682   1.775  11.329   7.771  0.0084  0.3432 -0.2250
 1168loPI   C5A18683   1.697  11.418   8.199 -0.2039 -0.1092 -0.1690
 1168loPI   C6A18684   1.436  11.717   8.401 -0.1485 -0.1149  0.1101
 1168loPI   C1B18685   1.755  11.790   6.644  0.1394 -0.0429  0.1676
 1168loPI   C2B18686   1.786  11.784   7.120  0.4034  0.0281  0.0108
 1168loPI   C3B18687   1.697  11.781   7.554  0.0692 -0.2638  0.1875
 1168loPI   C4B18688   1.675  11.869   7.976 -0.2759  0.0850  0.3267
 1169loPI    C118689   0.645  10.851   5.442  0.1305 -0.0778 -0.1073
 1169loPI    C218690   0.659  10.882   5.044 -0.0348  0.1398 -0.0975
 1169loPI    C318691   0.541  11.194   5.265  0.2265  0.0783  0.1336
 1169loPI   PO418692   0.917  10.877   5.606  0.3499 -0.2519  0.0474
 1169loPI   GL118693   0.886  11.064   6.051  0.0050 -0.3374 -0.1919
 1169loPI   GL218694   0.635  11.216   6.203 -0.3480 -0.4757 -0.1247
 1169loPI   C1A18695   1.059  11.050   6.464  0.2084  0.0815 -0.2972
 1169loPI   C2A18696   1.006  11.138   6.935 -0.0716 -0.1426  0.2243
 1169loPI   C3A18697   1.005  11.141   7.302 -0.0805  0.1121 -0.1589
 1169loPI   C4A18698   0.955  11.145   7.669  0.1635 -0.0380  0.1195
 1169loPI   C5A18699   0.956  11.096   8.115  0.0490  0.1533  0.0770
 1169loPI   C6A18700   0.722  10.743   8.447 -0.2185 -0.2695 -0.3614
 1169loPI   C1B18701   0.602  10.860   6.563 -0.0674 -0.3922 -0.0487
 1169loPI   C2B18702   0.616  10.837   7.007 -0.1388  0.4815  0.0558
 1169loPI   C3B18703   0.510  10.781   7.475  0.0316 -0.0065  0.1908
 1169loPI   C4B18704   0.428  10.754   7.954  0.0652  0.1915  0.0216
 1170loPI    C118705   3.617  16.567   5.662  0.0808 -0.0283 -0.1021
 1170loPI    C218706   3.892  16.320   5.509  0.0505  0.0410 -0.2701
 1170loPI    C318707   3.679  16.558   5.267 -0.3433 -0.2007 -0.1707
 1170loPI   PO418708   3.787  16.673   5.887 -0.0672 -0.2804 -0.0645
 1170loPI   GL118709   3.715  16.880   6.300 -0.1128  0.1730  0.2622
 1170loPI   GL218710   3.326  16.644   6.316 -0.1100  0.0566  0.1171
 1170loPI   C1A18711   3.749  16.848   6.748  0.2048 -0.3924  0.1402
 1170loPI   C2A18712   3.641  16.806   7.191  0.0615 -0.2174 -0.0147
 1170loPI   C3A18713   3.670  16.830   7.622  0.5640 -0.0104  0.0194
 1170loPI   C4A18714   3.544  16.801   7.957 -0.3173  0.0860 -0.0668
 1170loPI   C5A18715   3.658  16.670   8.372 -0.1600 -0.1446 -0.0264
 1170loPI   C6A18716   3.427  16.570   8.703 -0.3690 -0.1956  0.0050
 1170loPI   C1B18717   3.301  16.535   6.871 -0.0432  0.3548  0.3501
 1170loPI   C2B18718   3.249  16.477   7.271  0.0130 -0.1668 -0.4307
 1170loPI   C3B18719   3.292  16.424   7.729 -0.1642 -0.3213 -0.0163
 1170loPI   C4B18720   3.203  16.516   8.189 -0.2507 -0.0859  0.1249
 1171loPI    C118721  10.894  17.463   5.384 -0.0860  0.1343  0.1220
 1171loPI    C218722  10.607  17.680   5.557 -0.2965  0.0936 -0.1698
 1171loPI    C318723  10.510  17.371   5.323 -0.0050 -0.1441  0.0167
 1171loPI   PO418724  11.073  17.442   5.555  0.0846 -0.0969 -0.0844
 1171loPI   GL118725  11.100  17.412   5.974 -0.1511 -0.0422  0.1470
 1171loPI   GL218726  10.887  17.626   6.008  0.0190  0.1057  0.3229
 1171loPI   C1A18727  11.298  17.249   6.324 -0.0518 -0.1914 -0.2785
 1171loPI   C2A18728  11.338  17.148   6.776  0.1336 -0.1277 -0.0285
 1171loPI   C3A18729  11.399  17.220   7.185 -0.1375  0.0721  0.2383
 1171loPI   C4A18730  11.478  17.273   7.591 -0.1072  0.1003 -0.1544
 1171loPI   C5A18731  11.574  17.243   8.062 -0.0585 -0.1740  0.0813
 1171loPI   C6A18732  11.943  17.187   8.333 -0.0740  0.3221  0.0709
 1171loPI   C1B18733  10.888  17.495   6.466 -0.0877 -0.0236 -0.3596
 1171loPI   C2B18734  10.890  17.412   6.960  0.0459  0.1371  0.1673
 1171loPI   C3B18735  10.989  17.457   7.361 -0.0287 -0.0399  0.0352
 1171loPI   C4B18736  11.041  17.421   7.834 -0.1586 -0.2443 -0.1666
 1172loPI    C118737  14.517  10.484   5.317  0.3253  0.0547  0.0414
 1172loPI    C218738  14.805  10.292   5.116  0.1000  0.0203 -0.2555
 1172loPI    C318739  14.454  10.369   4.939 -0.0138  0.2134  0.0455
 1172loPI   PO418740  14.584  10.456   5.619  0.0866  0.2488 -0.1530
 1172loPI   GL118741  14.567  10.372   5.925  0.0458 -0.2112 -0.0963
 1172loPI   GL218742  14.439  10.095   5.967 -0.1290 -0.3974  0.0071
 1172loPI   C1A18743  14.647  10.495   6.290  0.3840 -0.1115 -0.0349
 1172loPI   C2A18744  14.637  10.769   6.740  0.0147  0.2402 -0.1420
 1172loPI   C3A18745  14.322  10.968   6.939 -0.0596 -0.2505  0.2706
 1172loPI   C4A18746  14.136  10.801   7.277 -0.2839 -0.2145 -0.0869
 1172loPI   C5A18747  14.055  10.851   7.705 -0.0319 -0.2204 -0.0408
 1172loPI   C6A18748  13.996  10.901   8.205 -0.0002 -0.0476  0.3285
 1172loPI   C1B18749  14.408   9.932   6.414 -0.0601 -0.1631 -0.0622
 1172loPI   C2B18750  14.374   9.901   6.886  0.1998 -0.0756  0.1222
 1172loPI   C3B18751  14.318   9.880   7.308 -0.1974  0.4102 -0.1710
 1172loPI   C4B18752  14.298   9.804   7.774  0.0577 -0.1759 -0.0789
 1173loPI    C118753   3.871   5.505   5.595 -0.0262  0.1629 -0.1399
 1173loPI    C218754   4.016   5.428   5.230 -0.0957 -0.2902 -0.0781
 1173loPI    C318755   3.620   5.434   5.292 -0.0910  0.0575 -0.0627
 1173loPI   PO418756   4.017   5.321   5.788 -0.1461  0.2446 -0.0055
 1173loPI   GL118757   4.029   5.135   6.158  0.0776 -0.1267  0.0311
 1173loPI   GL218758   3.823   5.306   6.241  0.1273  0.3899  0.2191
 1173loPI   C1A18759   4.142   4.978   6.539  0.1611  0.0949  0.1043
 1173loPI   C2A18760   4.155   5.141   6.934  0.3634  0.1752  0.0589
 1173loPI   C3A18761   4.131   5.120   7.318 -0.2447  0.2069  0.0896
 1173loPI   C4A18762   4.202   5.152   7.685  0.0193  0.3703 -0.1740
 1173loPI   C5A18763   4.118   5.247   7.990 -0.3645 -0.0070  0.0015
 1173loPI   C6A18764   4.443   5.409   8.317 -0.0404 -0.0594 -0.0345
 1173loPI   C1B18765   3.704   5.295   6.664  0.1260 -0.1512  0.2650
 1173loPI   C2B18766   3.582   5.270   7.076  0.1620  0.2595 -0.4677
 1173loPI   C3B18767   3.690   5.261   7.434  0.2783  0.1266  0.2635
 1173loPI   C4B18768   3.686   5.324   7.850 -0.0076  0.2795 -0.0769
 1174loPI    C118769   9.853  12.417   5.375 -0.0879 -0.0917 -0.0977
 1174loPI    C218770  10.177  12.373   5.145  0.1862 -0.0906  0.2790
 1174loPI    C318771   9.958  12.707   5.121  0.0450 -0.2078 -0.1768
 1174loPI   PO418772   9.945  12.417   5.595 -0.2271  0.0942  0.2648
 1174loPI   GL118773  10.214  12.540   6.008  0.0489 -0.0338 -0.0650
 1174loPI   GL218774  10.011  12.717   5.983  0.6164  0.0798 -0.2773
 1174loPI   C1A18775  10.015  12.395   6.435  0.0837  0.0799 -0.1441
 1174loPI   C2A18776   9.930  12.517   6.805 -0.0756  0.1732 -0.0072
 1174loPI   C3A18777   9.866  12.538   7.189 -0.0784  0.3236 -0.2538
 1174loPI   C4A18778   9.838  12.535   7.638  0.2776  0.0593 -0.2121
 1174loPI   C5A18779   9.996  12.582   8.081  0.0078  0.0617 -0.0721
 1174loPI   C6A18780  10.284  12.734   8.434  0.0901  0.1549 -0.1178
 1174loPI   C1B18781  10.204  12.822   6.411  0.3300  0.0988 -0.1379
 1174loPI   C2B18782  10.335  12.837   6.825 -0.3834 -0.1654 -0.0455
 1174loPI   C3B18783  10.277  12.832   7.203  0.2207  0.0821 -0.0063
 1174loPI   C4B18784  10.195  12.794   7.516  0.4271  0.1036  0.1677
 1175loPI    C118785   2.282  11.837   5.401  0.3424 -0.0796 -0.0722
 1175loPI    C218786   2.061  12.129   5.241 -0.0419 -0.2384  0.1545
 1175loPI    C318787   2.393  12.006   5.056 -0.0045  0.1735 -0.0655
 1175loPI   PO418788   2.356  11.878   5.691 -0.0080 -0.1811 -0.1208
 1175loPI   GL118789   2.576  11.797   6.090 -0.0627 -0.1486 -0.1824
 1175loPI   GL218790   2.282  11.663   6.219 -0.1312  0.0078  0.2523
 1175loPI   C1A18791   2.684  11.914   6.481 -0.1465  0.0615 -0.1514
 1175loPI   C2A18792   2.706  11.941   6.860 -0.0656  0.1743 -0.0388
 1175loPI   C3A18793   2.635  11.871   7.328 -0.2109 -0.0068 -0.2060
 1175loPI   C4A18794   2.586  11.873   7.758  0.5039 -0.0333 -0.0011
 1175loPI   C5A18795   2.450  11.951   8.174  0.0265  0.0470 -0.1008
 1175loPI   C6A18796   2.055  11.813   8.426  0.0619  0.3718 -0.0481
 1175loPI   C1B18797   2.225  11.639   6.675  0.2425 -0.0502  0.1543
 1175loPI   C2B18798   2.251  11.579   7.088  0.1380 -0.3637  0.0443
 1175loPI   C3B18799   2.288  11.557   7.496  0.0227  0.0164 -0.1293
 1175loPI   C4B18800   2.107  11.646   7.910 -0.0836  0.0769 -0.4241
 1176loPI    C118801  14.993  14.822   5.577  0.1791 -0.0348  0.2226
 1176loPI    C218802  14.794  14.577   5.332 -0.0136  0.1632  0.1782
 1176loPI    C318803  15.188  14.530   5.385  0.0238  0.0932 -0.1384
 1176loPI   PO418804  14.826  14.804   5.822  0.0900 -0.2479  0.4368
 1176loPI   GL118805  14.691  15.039   6.235  0.0119 -0.1048  0.1910
 1176loPI   GL218806  14.944  14.980   6.460 -0.2307  0.0993 -0.1311
 1176loPI   C1A18807  14.472  15.101   6.599  0.0118 -0.0955  0.1408
 1176loPI   C2A18808  14.450  15.192   7.004  0.0026  0.0211 -0.0827
 1176loPI   C3A18809  14.454  15.194   7.483  0.0669 -0.2937  0.1318
 1176loPI   C4A18810  14.535  15.063   7.929 -0.1343  0.2646 -0.0292
 1176loPI   C5A18811  14.559  14.878   8.403  0.0174  0.0959 -0.1515
 1176loPI   C6A18812  14.566  14.614   8.791 -0.1740  0.0309 -0.1689
 1176loPI   C1B18813  15.003  15.012   6.886  0.0051  0.2220  0.3282
 1176loPI   C2B18814  14.893  15.045   7.305 -0.1077  0.2603  0.0290
 1176loPI   C3B18815  14.977  14.950   7.694 -0.0437  0.3224 -0.0152
 1176loPI   C4B18816  14.915  14.847   8.103  0.0937  0.3602 -0.0667
 1177loPI    C118817   0.775   5.517   5.557 -0.0381  0.0700 -0.0567
 1177loPI    C218818   0.991   5.661   5.253 -0.0063 -0.1456 -0.1376
 1177loPI    C318819   0.951   5.266   5.301  0.0168 -0.1143  0.1588
 1177loPI   PO418820   0.857   5.598   5.792  0.2396 -0.2094 -0.2526
 1177loPI   GL118821   0.880   5.494   6.235 -0.1957 -0.1046 -0.1030
 1177loPI   GL218822   0.575   5.562   6.349  0.2754 -0.0435 -0.3214
 1177loPI   C1A18823   0.968   5.377   6.666 -0.0475 -0.0015  0.0799
 1177loPI   C2A18824   0.910   5.329   7.099  0.0978  0.1139  0.2361
 1177loPI   C3A18825   0.911   5.381   7.549  0.2148  0.1684  0.4191
 1177loPI   C4A18826   0.822   5.524   7.955  0.0377  0.1565 -0.1210
 1177loPI   C5A18827   0.824   5.478   8.326 -0.1425  0.1234 -0.2246
 1177loPI   C6A18828   0.570   5.611   8.696 -0.1627 -0.1113 -0.5047
 1177loPI   C1B18829   0.446   5.518   6.775  0.1591  0.4348  0.0565
 1177loPI   C2B18830   0.436   5.500   7.246  0.1599 -0.0855 -0.2176
 1177loPI   C3B18831   0.376   5.663   7.671 -0.2251 -0.1571  0.1472
 1177loPI   C4B18832   0.349   5.588   8.152  0.0203 -0.1935  0.1241
 1178loPI    C118833   3.339   3.001   5.819  0.1394 -0.0675 -0.0430
 1178loPI    C218834   3.512   2.831   5.500  0.1630 -0.0077 -0.0623
 1178loPI    C318835   3.119   2.789   5.561  0.2171 -0.3155  0.0921
 1178loPI   PO418836   3.461   2.942   6.031  0.2118  0.0630  0.1043
 1178loPI   GL118837   3.484   2.871   6.396 -0.0754  0.1897  0.1882
 1178loPI   GL218838   3.246   2.577   6.292 -0.1208  0.2204 -0.2680
 1178loPI   C1A18839   3.559   2.907   6.826 -0.2213 -0.0417  0.0885
 1178loPI   C2A18840   3.619   2.859   7.242  0.1090  0.0914 -0.0136
 1178loPI   C3A18841   3.601   3.031   7.554  0.0442 -0.3815  0.2071
 1178loPI   C4A18842   3.589   2.937   8.006 -0.0988 -0.0365 -0.2938
 1178loPI   C5A18843   3.781   2.693   8.309 -0.1101 -0.1833 -0.0388
 1178loPI   C6A18844   3.893   2.806   8.653 -0.3358  0.1689 -0.0177
 1178loPI   C1B18845   3.158   2.502   6.667 -0.0750 -0.0106 -0.0812
 1178loPI   C2B18846   3.193   2.630   7.085 -0.0197  0.4785  0.2244
 1178loPI   C3B18847   3.123   2.679   7.463  0.4986 -0.1060 -0.4145
 1178loPI   C4B18848   3.050   2.672   7.945 -0.2415 -0.2068  0.0833
 1179loPI    C118849  11.221  12.937   5.479 -0.1822  0.0468 -0.1621
 1179loPI    C218850  10.941  13.048   5.216 -0.2069 -0.2657 -0.2718
 1179loPI    C318851  11.300  12.928   5.087 -0.1251 -0.1576 -0.1471
 1179loPI   PO418852  11.154  13.084   5.668  0.1436  0.1923 -0.1138
 1179loPI   GL118853  11.213  13.089   6.076  0.2203  0.1208  0.0491
 1179loPI   GL218854  11.028  13.378   6.232 -0.2124  0.1408  0.0903
 1179loPI   C1A18855  11.274  12.975   6.429 -0.2319 -0.1752 -0.0125
 1179loPI   C2A18856  11.223  12.984   6.891  0.2938  0.1248  0.0032
 1179loPI   C3A18857  11.145  13.020   7.419 -0.1430 -0.1621  0.0846
 1179loPI   C4A18858  11.053  13.066   7.774 -0.1507  0.0256 -0.1266
 1179loPI   C5A18859  10.883  13.180   8.172 -0.0131 -0.1706  0.1736
 1179loPI   C6A18860  11.019  13.454   8.523  0.0346  0.1956 -0.0677
 1179loPI   C1B18861  11.166  13.450   6.624  0.0998 -0.2684 -0.2101
 1179loPI   C2B18862  11.127  13.449   7.082 -0.0578  0.0805  0.2133
 1179loPI   C3B18863  11.030  13.540   7.517  0.1235  0.3237  0.1971
 1179loPI   C4B18864  11.126  13.545   7.982 -0.1070  0.1579  0.0861
 1180loPI    C118865  13.027   6.657   5.548  0.1003 -0.0218  0.1159
 1180loPI    C218866  13.277   6.612   5.239 -0.0860  0.0236 -0.0434
 1180loPI    C318867  12.884   6.553   5.189 -0.1460  0.2593  0.1284
 1180loPI   PO418868  13.247   6.771   5.746  0.0654 -0.1741 -0.0169
 1180loPI   GL118869  13.287   6.946   6.126 -0.1050  0.1244  0.1932
 1180loPI   GL218870  13.600   7.011   6.147  0.0743 -0.0615 -0.2354
 1180loPI   C1A18871  13.059   7.044   6.428  0.2986 -0.4066  0.0488
 1180loPI   C2A18872  13.020   7.077   6.853  0.0996 -0.0179  0.2444
 1180loPI   C3A18873  12.993   7.083   7.323  0.2154  0.1486  0.2732
 1180loPI   C4A18874  12.893   7.026   7.683 -0.2065  0.0450 -0.1533
 1180loPI   C5A18875  12.898   6.818   8.006 -0.2803  0.5489 -0.1017
 1180loPI   C6A18876  12.555   6.721   8.332 -0.0284 -0.2792 -0.1601
 1180loPI   C1B18877  13.478   6.747   6.568 -0.0965  0.1673  0.0837
 1180loPI   C2B18878  13.518   6.745   7.024 -0.1455 -0.1097  0.0178
 1180loPI   C3B18879  13.454   6.897   7.366 -0.1064  0.1143 -0.2594
 1180loPI   C4B18880  13.425   6.800   7.774 -0.2456 -0.3181  0.0340
 1181loPI    C118881   0.723  10.363   5.649  0.0568  0.0917 -0.3408
 1181loPI    C218882   0.868  10.022   5.800  0.1341  0.2860  0.0359
 1181loPI    C318883   0.758  10.040   5.416 -0.1314 -0.2412  0.0783
 1181loPI   PO418884   0.714  10.474   5.884 -0.1505 -0.0849 -0.1012
 1181loPI   GL118885   0.878  10.538   6.312 -0.2440 -0.0237 -0.0986
 1181loPI   GL218886   1.121  10.526   6.368 -0.1519  0.2074  0.0501
 1181loPI   C1A18887   0.684  10.339   6.710  0.3039  0.0208  0.0505
 1181loPI   C2A18888   0.707  10.256   7.126 -0.3209  0.0665  0.2592
 1181loPI   C3A18889   0.544  10.314   7.517  0.1747 -0.1137 -0.0474
 1181loPI   C4A18890   0.513  10.278   7.921  0.1839  0.1330 -0.2192
 1181loPI   C5A18891   0.386  10.291   8.371  0.2138 -0.0945  0.2611
 1181loPI   C6A18892   0.213  10.410   8.720 -0.3921  0.1323  0.1599
 1181loPI   C1B18893   1.072  10.621   6.868 -0.1035 -0.1292  0.1799
 1181loPI   C2B18894   1.096  10.644   7.269  0.2917  0.1285  0.1572
 1181loPI   C3B18895   0.936  10.642   7.599 -0.0184  0.1193  0.1656
 1181loPI   C4B18896   0.896  10.626   7.988 -0.3599  0.0925 -0.2426
 1182loPI    C118897   6.314   7.779   5.432 -0.2746 -0.1258  0.1712
 1182loPI    C218898   6.304   7.418   5.260  0.0147 -0.0895  0.0732
 1182loPI    C318899   6.541   7.704   5.111 -0.1996  0.1367  0.1605
 1182loPI   PO418900   6.396   7.756   5.812 -0.0459  0.1189 -0.0731
 1182loPI   GL118901   6.645   7.573   6.100  0.4625  0.0469  0.4858
 1182loPI   GL218902   6.331   7.461   6.240  0.0001  0.2265 -0.1723
 1182loPI   C1A18903   6.556   7.626   6.593  0.1372  0.0796 -0.5900
 1182loPI   C2A18904   6.465   7.677   7.025  0.0247 -0.4973 -0.0342
 1182loPI   C3A18905   6.422   7.595   7.431 -0.2092  0.3069  0.0840
 1182loPI   C4A18906   6.350   7.595   7.885  0.2223 -0.1824  0.0695
 1182loPI   C5A18907   6.356   7.783   8.280 -0.2534 -0.1203  0.0690
 1182loPI   C6A18908   6.400   8.026   8.568  0.0832  0.0902  0.0046
 1182loPI   C1B18909   6.097   7.322   6.597  0.0501 -0.0553  0.0440
 1182loPI   C2B18910   6.060   7.303   7.032 -0.1307  0.2807 -0.0759
 1182loPI   C3B18911   6.004   7.278   7.434 -0.2798 -0.2385 -0.1663
 1182loPI   C4B18912   5.908   7.280   7.874  0.0125  0.0623  0.1886
 1183loPI    C118913   2.939  17.834   5.822  0.0510 -0.2639  0.0517
 1183loPI    C218914   2.606  17.616   5.858 -0.0448 -0.1027  0.1531
 1183loPI    C318915   2.718  17.753   5.499 -0.3663  0.2712  0.1886
 1183loPI   PO418916   2.912  17.985   5.920 -0.1381 -0.0028  0.0450
 1183loPI   GL118917   3.081  17.923   6.363 -0.3125  0.0317  0.0404
 1183loPI   GL218918   3.169  17.637   6.325  0.2467 -0.2734 -0.2420
 1183loPI   C1A18919   3.118  18.011   6.731 -0.1222  0.0816  0.2148
 1183loPI   C2A18920   3.055  17.969   7.118  0.3764  0.2624  0.1907
 1183loPI   C3A18921   3.044  18.087   7.584  0.2600 -0.0427  0.0321
 1183loPI   C4A18922   2.898  18.153   7.916  0.4709 -0.3144 -0.1690
 1183loPI   C5A18923   2.841  18.200   8.378 -0.2660 -0.1175  0.0010
 1183loPI   C6A18924   3.045  18.220   8.767 -0.2658 -0.0430 -0.0081
 1183loPI   C1B18925   3.126  17.471   6.774  0.4568  0.1149 -0.0059
 1183loPI   C2B18926   3.125  17.490   7.202 -0.0524  0.0705  0.1887
 1183loPI   C3B18927   3.074  17.563   7.560 -0.3122  0.1328  0.0358
 1183loPI   C4B18928   3.137  17.466   8.020  0.3305 -0.0958 -0.1570
 1184loPI    C118929  13.709   0.172   5.687  0.1766 -0.2669 -0.0927
 1184loPI    C218930  14.105   0.195   5.641  0.1743 -0.0193 -0.0050
 1184loPI    C318931  13.867   0.181   5.320  0.2468 -0.0391 -0.0584
 1184loPI   PO418932  13.687  -0.005   5.908 -0.0662 -0.0650  0.1777
 1184loPI   GL118933  13.525  -0.044   6.312  0.0731  0.0884 -0.0271
 1184loPI   GL218934  13.883  -0.165   6.373  0.2735 -0.2390  0.0723
 1184loPI   C1A18935  13.582   0.002   6.795 -0.0160 -0.0431 -0.0981
 1184loPI   C2A18936  13.608   0.140   7.225 -0.1666  0.0285 -0.1108
 1184loPI   C3A18937  13.564   0.071   7.611  0.0060  0.0694 -0.2529
 1184loPI   C4A18938  13.583   0.190   8.019 -0.1782  0.0930 -0.0421
 1184loPI   C5A18939  13.469   0.069   8.407  0.0081  0.0173  0.0644
 1184loPI   C6A18940  13.399   0.258   8.841  0.0304 -0.2929 -0.0552
 1184loPI   C1B18941  14.033  -0.120   6.784 -0.2242 -0.1639 -0.1797
 1184loPI   C2B18942  14.078  -0.039   7.295 -0.2979  0.0721  0.1531
 1184loPI   C3B18943  14.097  -0.095   7.729 -0.0890  0.0270 -0.0417
 1184loPI   C4B18944  14.180   0.081   8.192  0.2696 -0.0701 -0.1945
 1185loPI    C118945  15.557   0.217   5.411  0.0775  0.1157 -0.0255
 1185loPI    C218946  15.676   0.211   5.029 -0.1165  0.0578 -0.0864
 1185loPI    C318947  15.869  -0.010   5.302  0.0938  0.1867 -0.1277
 1185loPI   PO418948  15.666   0.457   5.567 -0.1349 -0.2335 -0.1595
 1185loPI   GL118949  15.833   0.516   5.988 -0.1303  0.0757  0.3646
 1185loPI   GL218950  16.059   0.796   5.882 -0.1320 -0.0747  0.1426
 1185loPI   C1A18951  15.787   0.239   6.346  0.1884  0.0806 -0.0844
 1185loPI   C2A18952  15.772   0.265   6.739  0.4066  0.1417 -0.2152
 1185loPI   C3A18953  15.798   0.208   7.123  0.0768  0.0463  0.0440
 1185loPI   C4A18954  15.904   0.244   7.540  0.0413 -0.2169 -0.0666
 1185loPI   C5A18955  15.852   0.154   7.956  0.2394  0.1917  0.1284
 1185loPI   C6A18956  16.031  -0.024   8.301  0.1249 -0.0856  0.1019
 1185loPI   C1B18957  16.072   1.008   6.230  0.1232 -0.0333 -0.0492
 1185loPI   C2B18958  16.096   1.058   6.741  0.1416 -0.0525  0.1470
 1185loPI   C3B18959  16.184   1.097   7.123 -0.1139  0.0509 -0.1164
 1185loPI   C4B18960  16.158   1.042   7.644 -0.1687  0.0920  0.6735
 1186loPI    C118961   0.446   8.082   5.334 -0.0193 -0.1667 -0.0406
 1186loPI    C218962   0.604   8.099   4.967 -0.1460  0.1049 -0.0851
 1186loPI    C318963   0.213   8.029   5.014 -0.0858 -0.1811  0.0101
 1186loPI   PO418964   0.601   8.016   5.503  0.0935 -0.0452 -0.0082
 1186loPI   GL118965   0.710   8.026   5.998 -0.3278  0.1266  0.3137
 1186loPI   GL218966   0.950   7.776   6.128  0.0187 -0.0418 -0.1971
 1186loPI   C1A18967   0.433   7.866   6.314 -0.3001 -0.3165  0.1016
 1186loPI   C2A18968   0.533   7.868   6.782  0.0265 -0.0082 -0.1882
 1186loPI   C3A18969   0.535   7.891   7.205 -0.3943 -0.0306  0.1990
 1186loPI   C4A18970   0.521   7.943   7.672 -0.0264 -0.2222 -0.1085
 1186loPI   C5A18971   0.512   7.951   8.211 -0.1791  0.1241 -0.1043
 1186loPI   C6A18972   0.400   7.987   8.571  0.0589  0.1991 -0.0502
 1186loPI   C1B18973   0.988   7.688   6.611 -0.0830  0.0795 -0.5154
 1186loPI   C2B18974   1.057   7.778   7.073 -0.0018  0.1189 -0.0212
 1186loPI   C3B18975   0.993   7.778   7.529 -0.0627 -0.2953  0.2244
 1186loPI   C4B18976   0.954   7.632   8.020 -0.0375 -0.0892  0.0207
 1187loPI    C118977   3.924  12.989   5.708 -0.0417 -0.1430 -0.1153
 1187loPI    C218978   4.171  13.102   5.414  0.1095  0.0126  0.0685
 1187loPI    C318979   3.803  13.256   5.436  0.0267 -0.1490 -0.1518
 1187loPI   PO418980   4.003  13.084   5.944  0.1026  0.1244  0.1408
 1187loPI   GL118981   3.800  12.998   6.241 -0.0283  0.1379 -0.1312
 1187loPI   GL218982   3.499  13.197   6.398  0.2101  0.1797 -0.0539
 1187loPI   C1A18983   3.928  12.993   6.604 -0.0754  0.1301 -0.0733
 1187loPI   C2A18984   4.000  12.933   7.025 -0.4607  0.1022 -0.0962
 1187loPI   C3A18985   3.885  12.889   7.518  0.0558 -0.0357  0.1159
 1187loPI   C4A18986   3.878  12.796   7.862 -0.0577 -0.0246  0.2401
 1187loPI   C5A18987   3.786  12.867   8.304  0.2734  0.0264  0.1956
 1187loPI   C6A18988   3.608  13.041   8.713  0.0199  0.0374  0.2680
 1187loPI   C1B18989   3.423  13.148   6.812 -0.0439  0.0727 -0.0534
 1187loPI   C2B18990   3.394  13.137   7.205  0.0836  0.0171 -0.2042
 1187loPI   C3B18991   3.374  13.019   7.555 -0.1231 -0.0507  0.3671
 1187loPI   C4B18992   3.378  13.001   8.007 -0.0194  0.1206 -0.0820
 1188loPI    C118993   6.698   5.677   5.500  0.1935 -0.1720 -0.0420
 1188loPI    C218994   6.915   5.430   5.273  0.2951 -0.0574 -0.0699
 1188loPI    C318995   7.053   5.795   5.361  0.0715  0.0531 -0.1681
 1188loPI   PO418996   6.652   5.559   5.750  0.0938  0.0717 -0.0732
 1188loPI   GL118997   6.761   5.653   6.195 -0.2750 -0.2866 -0.0217
 1188loPI   GL218998   6.537   5.830   6.161 -0.0083  0.1061  0.2408
 1188loPI   C1A18999   6.921   5.626   6.600  0.0740  0.0516  0.2507
 1188loPI   C2A19000   6.917   5.558   7.083  0.0362  0.2377  0.1407
 1188loPI   C3A19001   6.850   5.666   7.506 -0.2181  0.2100  0.2415
 1188loPI   C4A19002   6.737   5.602   7.937 -0.0559  0.0468  0.0418
 1188loPI   C5A19003   7.011   5.726   8.255  0.2397 -0.0503  0.0758
 1188loPI   C6A19004   7.314   5.714   8.656 -0.0158  0.0183 -0.3279
 1188loPI   C1B19005   6.262   5.758   6.523 -0.0897 -0.0804  0.2801
 1188loPI   C2B19006   6.370   5.848   6.874 -0.2401 -0.1160  0.1787
 1188loPI   C3B19007   6.379   5.799   7.338  0.0153 -0.2942 -0.1793
 1188loPI   C4B19008   6.268   5.772   7.793  0.0476 -0.1210  0.2619
 1189loPI    C119009   6.042   9.267   5.440  0.0540  0.1631 -0.1011
 1189loPI    C219010   6.331   9.359   5.179  0.2608 -0.2052 -0.0090
 1189loPI    C319011   5.964   9.268   5.048  0.2198  0.1267 -0.1346
 1189loPI   PO419012   6.158   9.378   5.661  0.0155  0.1792  0.0018
 1189loPI   GL119013   6.125   9.481   6.153 -0.1748  0.1043 -0.5093
 1189loPI   GL219014   5.896   9.330   6.341 -0.2044 -0.1088  0.0105
 1189loPI   C1A19015   6.261   9.575   6.551  0.3647  0.0395  0.0954
 1189loPI   C2A19016   6.189   9.613   6.920  0.1616  0.0831 -0.4192
 1189loPI   C3A19017   6.209   9.562   7.333  0.0356  0.1926  0.1577
 1189loPI   C4A19018   6.128   9.633   7.759 -0.1009 -0.3719 -0.1186
 1189loPI   C5A19019   6.108   9.436   8.123 -0.0987  0.3970 -0.1040
 1189loPI   C6A19020   6.025   9.269   8.528  0.0853 -0.1004  0.2838
 1189loPI   C1B19021   5.807   9.337   6.745 -0.3767 -0.1282  0.0412
 1189loPI   C2B19022   5.793   9.326   7.119  0.0777  0.2539  0.1923
 1189loPI   C3B19023   5.805   9.300   7.504 -0.2468 -0.1878 -0.3297
 1189loPI   C4B19024   5.659   9.356   7.914  0.0509  0.5051 -0.1078
 1190loPI    C119025  16.984   3.349   5.327 -0.1928 -0.0176  0.0576
 1190loPI    C219026  16.984   3.665   5.082 -0.0973 -0.1511 -0.1171
 1190loPI    C319027  17.227   3.356   5.009  0.0031 -0.1508  0.2021
 1190loPI   PO419028  16.867   3.502   5.576  0.1483  0.2656 -0.3642
 1190loPI   GL119029  16.842   3.479   6.048  0.2490  0.2924 -0.0379
 1190loPI   GL219030  16.753   3.213   6.242 -0.0833 -0.1426 -0.2946
 1190loPI   C1A19031  16.716   3.738   6.423  0.0984  0.0884  0.0891
 1190loPI   C2A19032  16.573   3.729   6.883  0.1357  0.1606 -0.3337
 1190loPI   C3A19033  16.633   3.772   7.313 -0.0671  0.1659  0.1897
 1190loPI   C4A19034  16.653   3.859   7.762  0.0747 -0.0344 -0.0411
 1190loPI   C5A19035  16.517   3.843   8.202 -0.4151  0.1528 -0.0729
 1190loPI   C6A19036  16.215   3.734   8.562  0.3097 -0.2189  0.1416
 1190loPI   C1B19037  16.716   3.214   6.673  0.1500  0.1439 -0.1429
 1190loPI   C2B19038  16.704   3.271   7.072  0.4193  0.2303  0.1195
 1190loPI   C3B19039  16.645   3.196   7.469  0.2222  0.2330  0.0172
 1190loPI   C4B19040  16.712   3.289   7.825  0.0574 -0.0001  0.0840
 1191loPI    C119041   1.435   2.687   5.711 -0.2574  0.1349 -0.0814
 1191loPI    C219042   1.674   2.522   5.436 -0.0088 -0.0138  0.2176
 1191loPI    C319043   1.277   2.513   5.387  0.0267 -0.1658 -0.0634
 1191loPI   PO419044   1.488   2.534   5.957  0.0455 -0.2858 -0.0469
 1191loPI   GL119045   1.239   2.422   6.319 -0.1774 -0.1165  0.0630
 1191loPI   GL219046   0.868   2.535   6.354  0.0492  0.0632 -0.1542
 1191loPI   C1A19047   1.459   2.355   6.612 -0.1924 -0.0389  0.0833
 1191loPI   C2A19048   1.398   2.344   7.058  0.1325 -0.2566  0.1464
 1191loPI   C3A19049   1.319   2.416   7.538 -0.1324 -0.2108 -0.2012
 1191loPI   C4A19050   1.323   2.444   8.023  0.1025 -0.0836  0.1437
 1191loPI   C5A19051   1.433   2.260   8.262 -0.0625  0.0292 -0.0557
 1191loPI   C6A19052   1.856   2.289   8.489  0.0436  0.1942  0.0424
 1191loPI   C1B19053   0.938   2.551   6.863 -0.2165 -0.1209  0.2437
 1191loPI   C2B19054   0.863   2.507   7.232 -0.0158 -0.2792 -0.1143
 1191loPI   C3B19055   0.813   2.554   7.706  0.0837 -0.1469  0.0106
 1191loPI   C4B19056   0.848   2.552   8.139 -0.0165 -0.0889 -0.1900
 1192loPI    C119057   4.515  10.836   5.461  0.0543  0.0391  0.0202
 1192loPI    C219058   4.525  11.211   5.322  0.1035  0.0054 -0.0682
 1192loPI    C319059   4.750  10.928   5.151  0.1680 -0.0363  0.0833
 1192loPI   PO419060   4.647  10.767   5.692  0.0844  0.1941 -0.0559
 1192loPI   GL119061   4.722  10.590   6.136  0.1032 -0.1428  0.0515
 1192loPI   GL219062   4.510  10.851   6.215 -0.1602  0.1642  0.0799
 1192loPI   C1A19063   4.793  10.690   6.636  0.2121 -0.0237 -0.0635
 1192loPI   C2A19064   4.617  10.664   7.068  0.1189  0.3094 -0.0779
 1192loPI   C3A19065   4.723  10.669   7.429 -0.0929  0.1746  0.0562
 1192loPI   C4A19066   4.647  10.632   7.824 -0.0554 -0.2884  0.1140
 1192loPI   C5A19067   4.564  10.666   8.264  0.0023  0.0015 -0.0391
 1192loPI   C6A19068   4.524  10.646   8.714 -0.2352  0.0607  0.1246
 1192loPI   C1B19069   4.237  10.963   6.608  0.0390 -0.0986 -0.1543
 1192loPI   C2B19070   4.163  10.959   7.024  0.0444 -0.1720 -0.3340
 1192loPI   C3B19071   4.270  10.808   7.441  0.1861 -0.1437 -0.1217
 1192loPI   C4B19072   4.137  10.725   7.804  0.0495 -0.1588  0.1437
 1193loPI    C119073   0.926  11.594   5.495  0.1792  0.3176  0.0765
 1193loPI    C219074   1.098  11.262   5.353 -0.0256  0.0450  0.4500
 1193loPI    C319075   0.883  11.495   5.109  0.0837 -0.1180  0.1935
 1193loPI   PO419076   1.052  11.541   5.742  0.1946 -0.0088  0.0239
 1193loPI   GL119077   0.994  11.558   6.083 -0.1302 -0.0415 -0.2431
 1193loPI   GL219078   1.271  11.415   6.203  0.2996  0.2245 -0.0484
 1193loPI   C1A19079   0.914  11.559   6.509  0.0367  0.2260 -0.0524
 1193loPI   C2A19080   0.883  11.683   7.013  0.1968  0.0167  0.0907
 1193loPI   C3A19081   0.791  11.587   7.499 -0.0926 -0.0166 -0.3518
 1193loPI   C4A19082   0.780  11.629   7.904 -0.0863 -0.1565  0.0280
 1193loPI   C5A19083   0.885  11.555   8.336  0.0923 -0.0248 -0.0403
 1193loPI   C6A19084   1.201  11.254   8.548  0.3536  0.0909 -0.0493
 1193loPI   C1B19085   1.403  11.412   6.662  0.0123 -0.0902 -0.0050
 1193loPI   C2B19086   1.376  11.476   7.064 -0.0465 -0.1621  0.1820
 1193loPI   C3B19087   1.319  11.499   7.522  0.0039 -0.0971  0.0697
 1193loPI   C4B19088   1.345  11.522   7.891 -0.2618  0.1813  0.1136
 1194loPI    C119089   7.653   2.514   5.258 -0.2052  0.1598 -0.1427
 1194loPI    C219090   7.379   2.283   5.082  0.1025 -0.0507 -0.3570
 1194loPI    C319091   7.548   2.582   4.878 -0.1371  0.2326 -0.1489
 1194loPI   PO419092   7.587   2.622   5.538 -0.1668 -0.2885 -0.0124
 1194loPI   GL119093   7.380   2.771   5.857  0.0096 -0.0785 -0.1023
 1194loPI   GL219094   7.680   2.934   6.067  0.0419 -0.1961  0.0842
 1194loPI   C1A19095   7.275   2.887   6.313 -0.1361  0.1158 -0.2332
 1194loPI   C2A19096   7.189   3.049   6.724  0.1985  0.4287 -0.0452
 1194loPI   C3A19097   7.174   3.055   7.119 -0.1814 -0.0411 -0.2043
 1194loPI   C4A19098   7.147   3.042   7.494  0.1210 -0.0796  0.0642
 1194loPI   C5A19099   7.092   2.979   7.948  0.1406  0.1635  0.0632
 1194loPI   C6A19100   6.844   3.027   8.217 -0.0406  0.2497  0.2000
 1194loPI   C1B19101   7.749   2.825   6.539  0.0792  0.2533  0.0669
 1194loPI   C2B19102   7.566   2.794   6.980  0.0562  0.2618 -0.0802
 1194loPI   C3B19103   7.612   2.808   7.411  0.3583  0.0236 -0.1386
 1194loPI   C4B19104   7.584   2.845   7.861 -0.3447  0.0996  0.2234
 1195loPI    C119105  14.352   5.407   5.560 -0.1744  0.0013  0.1500
 1195loPI    C219106  14.037   5.202   5.422 -0.1042 -0.0202  0.0208
 1195loPI    C319107  14.103   5.576   5.296 -0.0429 -0.0379 -0.0002
 1195loPI   PO419108  14.350   5.364   5.813 -0.4111 -0.2790  0.0560
 1195loPI   GL119109  14.263   5.537   6.190 -0.0075  0.5769 -0.0063
 1195loPI   GL219110  14.226   5.218   6.320  0.1631 -0.0399 -0.0238
 1195loPI   C1A19111  14.122   5.664   6.560  0.0870  0.2176  0.2562
 1195loPI   C2A19112  14.031   5.668   7.012 -0.1388 -0.1224  0.1822
 1195loPI   C3A19113  14.083   5.651   7.465 -0.0915 -0.1914 -0.0880
 1195loPI   C4A19114  14.171   5.594   7.968 -0.0512  0.1049  0.0277
 1195loPI   C5A19115  14.166   5.402   8.383 -0.0322  0.1040 -0.0461
 1195loPI   C6A19116  14.117   5.652   8.660 -0.1722 -0.1069  0.3292
 1195loPI   C1B19117  14.251   5.256   6.763 -0.1064  0.2551 -0.0899
 1195loPI   C2B19118  14.184   5.176   7.244 -0.0548 -0.0889  0.0358
 1195loPI   C3B19119  14.235   5.199   7.639  0.2662  0.3837  0.0065
 1195loPI   C4B19120  14.351   5.124   8.002  0.1153  0.2676  0.0834
 1196loPI    C119121  16.075   7.726   5.699 -0.0431  0.1190 -0.0542
 1196loPI    C219122  15.953   7.991   5.426 -0.0450  0.0931 -0.0785
 1196loPI    C319123  16.337   7.878   5.438 -0.0517  0.0682 -0.0926
 1196loPI   PO419124  15.928   7.853   5.920 -0.0916 -0.1129 -0.2021
 1196loPI   GL119125  16.170   7.985   6.249  0.2265  0.0109  0.1372
 1196loPI   GL219126  15.968   8.214   6.266  0.1121 -0.2482 -0.1480
 1196loPI   C1A19127  16.003   7.872   6.615  0.0853  0.0470  0.0089
 1196loPI   C2A19128  16.045   7.865   7.044  0.2049 -0.6276 -0.0259
 1196loPI   C3A19129  15.994   7.851   7.489 -0.6626  0.3293 -0.3681
 1196loPI   C4A19130  15.900   7.831   7.928 -0.0482  0.0631 -0.1463
 1196loPI   C5A19131  15.846   7.932   8.344  0.0213 -0.1307 -0.2193
 1196loPI   C6A19132  15.778   8.287   8.638 -0.1126 -0.0445  0.0527
 1196loPI   C1B19133  15.902   8.369   6.742  0.0970  0.1468  0.0415
 1196loPI   C2B19134  15.929   8.399   7.189 -0.3490 -0.3230  0.1399
 1196loPI   C3B19135  15.883   8.383   7.652 -0.0116 -0.0588  0.1462
 1196loPI   C4B19136  15.848   8.297   8.047  0.1953  0.1656  0.1540
 1197loPI    C119137   9.026  12.963   5.509  0.3344  0.1854 -0.2718
 1197loPI    C219138   8.731  13.062   5.258 -0.0172 -0.0482  0.0399
 1197loPI    C319139   8.905  12.704   5.229  0.1419  0.0355 -0.0527
 1197loPI   PO419140   8.913  12.959   5.759  0.5395  0.0965  0.0913
 1197loPI   GL119141   8.844  13.182   6.119 -0.1433  0.3150  0.0536
 1197loPI   GL219142   8.909  13.511   6.387  0.1493 -0.0838 -0.0133
 1197loPI   C1A19143   8.982  12.835   6.481 -0.0077 -0.1065 -0.1576
 1197loPI   C2A19144   8.914  12.920   6.900 -0.0201 -0.3874 -0.0414
 1197loPI   C3A19145   8.820  12.913   7.341 -0.2806 -0.2359  0.0240
 1197loPI   C4A19146   8.823  12.925   7.842 -0.3697  0.2846 -0.3115
 1197loPI   C5A19147   8.657  12.940   8.151 -0.1802  0.1108  0.1095
 1197loPI   C6A19148   8.598  12.818   8.447 -0.0234 -0.2216 -0.4929
 1197loPI   C1B19149   8.931  13.418   6.804  0.1119 -0.0023 -0.1067
 1197loPI   C2B19150   8.880  13.400   7.281 -0.0138 -0.0855 -0.0729
 1197loPI   C3B19151   8.767  13.468   7.704 -0.1667  0.0403 -0.0687
 1197loPI   C4B19152   8.701  13.435   8.098  0.1596  0.2015  0.0378
 1198loPI    C119153  14.589   3.932   5.547 -0.0949  0.1087 -0.0612
 1198loPI    C219154  14.381   3.725   5.277 -0.5121  0.1200  0.2418
 1198loPI    C319155  14.402   4.123   5.250  0.2544  0.0638 -0.3161
 1198loPI   PO419156  14.565   3.913   5.765 -0.1343 -0.1955 -0.1181
 1198loPI   GL119157  14.627   3.762   6.123 -0.0068  0.1578 -0.1252
 1198loPI   GL219158  14.322   3.569   6.159  0.0025  0.0863 -0.0680
 1198loPI   C1A19159  14.823   3.898   6.462 -0.1228  0.1755 -0.0208
 1198loPI   C2A19160  14.829   3.990   6.940 -0.0404  0.1670 -0.0245
 1198loPI   C3A19161  14.823   3.906   7.323  0.1560 -0.2227  0.0303
 1198loPI   C4A19162  14.796   4.035   7.736 -0.1185  0.2007 -0.0609
 1198loPI   C5A19163  14.729   3.961   8.146  0.2611 -0.4297 -0.1351
 1198loPI   C6A19164  14.799   3.807   8.567  0.1796  0.0510  0.2636
 1198loPI   C1B19165  14.442   3.640   6.631 -0.1868 -0.1014 -0.2355
 1198loPI   C2B19166  14.430   3.665   7.106  0.5599  0.1399  0.0360
 1198loPI   C3B19167  14.388   3.670   7.557  0.0437 -0.0591 -0.2770
 1198loPI   C4B19168  14.368   3.654   7.942  0.1457 -0.1079 -0.3950
 1199loPI    C119169  12.177  15.953   5.227 -0.0137  0.1480 -0.0621
 1199loPI    C219170  11.828  15.937   5.032 -0.0343  0.0643 -0.0192
 1199loPI    C319171  12.150  16.096   4.855 -0.1457  0.3378  0.0188
 1199loPI   PO419172  12.115  16.009   5.546  0.1341  0.2198  0.3341
 1199loPI   GL119173  11.951  16.019   5.982  0.1123 -0.0944 -0.1162
 1199loPI   GL219174  12.252  16.040   6.122 -0.2546  0.4073 -0.2685
 1199loPI   C1A19175  11.951  16.046   6.515 -0.0580 -0.2287 -0.0466
 1199loPI   C2A19176  12.028  15.996   6.946 -0.0550  0.1911 -0.0298
 1199loPI   C3A19177  11.894  16.042   7.423  0.3192 -0.3975 -0.0678
 1199loPI   C4A19178  12.044  16.001   7.846 -0.0487 -0.0181  0.2829
 1199loPI   C5A19179  12.143  15.984   8.328  0.0591  0.0847 -0.1077
 1199loPI   C6A19180  11.954  16.293   8.670 -0.0623  0.0163  0.0983
 1199loPI   C1B19181  12.437  15.846   6.548  0.1420 -0.0492  0.0802
 1199loPI   C2B19182  12.493  15.863   6.944 -0.0757  0.1485 -0.1476
 1199loPI   C3B19183  12.540  15.825   7.440 -0.0534  0.3239  0.1629
 1199loPI   C4B19184  12.510  15.812   7.929 -0.0478  0.0513 -0.1112
 1200loPI    C119185   8.094   4.540   5.327 -0.1543  0.2055 -0.1981
 1200loPI    C219186   8.082   4.144   5.271 -0.0027  0.1762 -0.0309
 1200loPI    C319187   8.172   4.386   4.966 -0.0228  0.0769 -0.1163
 1200loPI   PO419188   8.004   4.529   5.579  0.0269  0.0796  0.0732
 1200loPI   GL119189   7.785   4.464   5.905  0.1436  0.0980  0.1977
 1200loPI   GL219190   7.854   4.725   6.091  0.1104  0.0497 -0.0274
 1200loPI   C1A19191   7.970   4.271   6.273  0.1680 -0.2335  0.0271
 1200loPI   C2A19192   7.886   4.154   6.661  0.1399  0.0549  0.0281
 1200loPI   C3A19193   7.809   4.163   7.109 -0.2491 -0.0090  0.2856
 1200loPI   C4A19194   7.859   4.222   7.631 -0.0160  0.0080 -0.0269
 1200loPI   C5A19195   7.800   4.109   8.023  0.4144 -0.1803  0.1346
 1200loPI   C6A19196   8.149   3.915   8.398  0.1039 -0.0844 -0.0235
 1200loPI   C1B19197   7.898   4.690   6.492  0.1245 -0.1830  0.0197
 1200loPI   C2B19198   7.866   4.798   6.938 -0.1535  0.1113  0.2350
 1200loPI   C3B19199   7.828   4.679   7.351 -0.0228  0.1989 -0.0882
 1200loPI   C4B19200   7.849   4.706   7.870  0.2150 -0.0455  0.3059
 1201loPI    C119201  13.331   0.341   5.447 -0.1462 -0.3442  0.0898
 1201loPI    C219202  13.141   0.573   5.184  0.1368 -0.0363  0.1511
 1201loPI    C319203  13.247   0.201   5.082  0.2516  0.0819 -0.1745
 1201loPI   PO419204  13.202   0.242   5.704 -0.1314 -0.2009  0.0982
 1201loPI   GL119205  13.185   0.389   6.102  0.3985 -0.0815  0.0680
 1201loPI   GL219206  13.448   0.438   6.255  0.2800 -0.0392  0.0069
 1201loPI   C1A19207  13.123   0.239   6.515  0.0273 -0.0654  0.3822
 1201loPI   C2A19208  13.100   0.286   6.950  0.0122 -0.0648  0.1939
 1201loPI   C3A19209  13.101   0.354   7.447  0.5468  0.1035  0.1151
 1201loPI   C4A19210  13.135   0.251   7.768  0.3404  0.1753 -0.0604
 1201loPI   C5A19211  13.095   0.232   8.185  0.6829  0.1003 -0.1161
 1201loPI   C6A19212  12.892  -0.028   8.514 -0.1274  0.2693 -0.2403
 1201loPI   C1B19213  13.482   0.555   6.731  0.1270  0.1428 -0.1649
 1201loPI   C2B19214  13.487   0.593   7.171 -0.3555  0.4207  0.0624
 1201loPI   C3B19215  13.546   0.618   7.571 -0.1326  0.0730  0.0226
 1201loPI   C4B19216  13.547   0.687   8.072 -0.0700 -0.1365  0.2320
 1202loPI    C119217  13.500   7.669   5.241 -0.1278 -0.0348 -0.0438
 1202loPI    C219218  13.673   8.019   5.325  0.1745 -0.2028  0.0515
 1202loPI    C319219  13.753   7.835   4.979  0.2661 -0.3296  0.1394
 1202loPI   PO419220  13.466   7.649   5.608 -0.0567 -0.1585  0.3835
 1202loPI   GL119221  13.712   7.616   5.994  0.2307 -0.0596  0.2540
 1202loPI   GL219222  13.968   7.471   6.058  0.2361 -0.1213  0.0477
 1202loPI   C1A19223  13.863   7.782   6.390 -0.1996  0.1093 -0.3718
 1202loPI   C2A19224  13.860   7.696   6.815 -0.0514  0.0244  0.2177
 1202loPI   C3A19225  13.851   7.672   7.196 -0.0919 -0.1441 -0.1825
 1202loPI   C4A19226  13.778   7.694   7.676  0.0188  0.1356 -0.0964
 1202loPI   C5A19227  13.738   7.445   8.094  0.0060 -0.0325 -0.0526
 1202loPI   C6A19228  13.717   7.360   8.539 -0.2045 -0.0958 -0.1011
 1202loPI   C1B19229  13.904   7.275   6.476  0.1910  0.1957 -0.1834
 1202loPI   C2B19230  13.918   7.123   6.787  0.2834  0.1541  0.0486
 1202loPI   C3B19231  13.915   7.125   7.192 -0.0843 -0.0292 -0.2442
 1202loPI   C4B19232  13.862   7.185   7.617  0.0715  0.0334  0.1059
 1203loPI    C119233   1.439   1.971   5.463 -0.1904  0.3609  0.0567
 1203loPI    C219234   1.603   2.107   5.125  0.0092 -0.0786 -0.0292
 1203loPI    C319235   1.209   2.041   5.144 -0.0071 -0.0236 -0.1667
 1203loPI   PO419236   1.413   2.122   5.697  0.0453  0.0224  0.3621
 1203loPI   GL119237   1.464   2.029   6.109  0.1462 -0.0944 -0.0350
 1203loPI   GL219238   1.788   2.117   6.231  0.3458 -0.0731 -0.1244
 1203loPI   C1A19239   1.468   1.818   6.397  0.2357  0.0954 -0.3283
 1203loPI   C2A19240   1.517   1.868   6.854  0.0181 -0.0103 -0.1167
 1203loPI   C3A19241   1.508   1.936   7.261  0.1462  0.1062 -0.4915
 1203loPI   C4A19242   1.421   1.849   7.709 -0.3651 -0.2310  0.1741
 1203loPI   C5A19243   1.418   1.753   8.136 -0.1870 -0.1445 -0.0751
 1203loPI   C6A19244   1.372   1.883   8.614  0.0138 -0.1797  0.1365
 1203loPI   C1B19245   1.901   2.105   6.607 -0.0646 -0.2244  0.0978
 1203loPI   C2B19246   1.904   2.170   7.061  0.2185 -0.0126  0.0551
 1203loPI   C3B19247   1.822   2.224   7.460 -0.1238  0.1334 -0.1920
 1203loPI   C4B19248   1.788   2.183   7.925 -0.1189  0.0072  0.1702
 1204loPI    C119249  12.863   0.623   5.636 -0.0723 -0.1966 -0.1045
 1204loPI    C219250  13.088   0.931   5.516 -0.0870 -0.0416  0.2518
 1204loPI    C319251  12.746   0.847   5.327  0.0000  0.0554  0.0479
 1204loPI   PO419252  12.679   0.686   5.876 -0.0354 -0.1989  0.0777
 1204loPI   GL119253  12.642   0.440   6.225  0.0207  0.0764  0.0471
 1204loPI   GL219254  12.604   0.128   6.309  0.0944  0.0170  0.1047
 1204loPI   C1A19255  12.626   0.435   6.747  0.2572 -0.0578  0.4090
 1204loPI   C2A19256  12.660   0.487   7.241  0.1167  0.2994 -0.0069
 1204loPI   C3A19257  12.713   0.602   7.614 -0.0736 -0.0192 -0.0214
 1204loPI   C4A19258  12.744   0.447   8.008  0.0299  0.0365  0.1564
 1204loPI   C5A19259  12.654   0.489   8.432  0.1886 -0.1079  0.2545
 1204loPI   C6A19260  12.425   0.254   8.692 -0.2146  0.0264 -0.1423
 1204loPI   C1B19261  12.665  -0.060   6.746 -0.1335  0.0102  0.0699
 1204loPI   C2B19262  12.738  -0.030   7.145 -0.0458  0.2697 -0.0708
 1204loPI   C3B19263  12.726   0.020   7.567 -0.0453 -0.0294 -0.1089
 1204loPI   C4B19264  12.757  -0.130   7.961  0.2507 -0.2199 -0.1533
 1205loPI    C119265  14.970   8.458   5.608 -0.0508  0.0038  0.1601
 1205loPI    C219266  15.361   8.380   5.637 -0.0819 -0.2558 -0.0729
 1205loPI    C319267  15.228   8.632   5.356 -0.0834 -0.1724  0.0023
 1205loPI   PO419268  14.891   8.474   5.870  0.3375 -0.1234 -0.1212
 1205loPI   GL119269  15.150   8.460   6.209  0.2221 -0.0572 -0.0673
 1205loPI   GL219270  15.042   8.234   6.359 -0.2616 -0.0820 -0.0954
 1205loPI   C1A19271  15.035   8.699   6.535  0.0310 -0.1983 -0.0999
 1205loPI   C2A19272  14.964   8.714   6.968 -0.1958 -0.2030  0.0265
 1205loPI   C3A19273  14.897   8.648   7.328  0.0684 -0.0890  0.0326
 1205loPI   C4A19274  14.918   8.661   7.679 -0.0531 -0.1550  0.1547
 1205loPI   C5A19275  14.924   8.622   8.142 -0.5388 -0.1022 -0.0425
 1205loPI   C6A19276  14.866   8.442   8.504 -0.0536 -0.1904  0.0074
 1205loPI   C1B19277  15.036   8.208   6.805  0.0145 -0.0131 -0.0889
 1205loPI   C2B19278  15.002   8.180   7.216 -0.0183  0.3778 -0.2007
 1205loPI   C3B19279  15.079   8.215   7.638  0.1248  0.1895  0.0220
 1205loPI   C4B19280  14.932   8.125   8.025 -0.0684  0.0481 -0.2238
 1206loPI    C119281   1.491  14.223   5.593 -0.0298 -0.1703  0.0814
 1206loPI    C219282   1.209  14.080   5.347 -0.0682 -0.0535  0.0569
 1206loPI    C319283   1.595  14.008   5.272 -0.0792 -0.0087 -0.0444
 1206loPI   PO419284   1.512  14.109   5.813  0.0750  0.1960 -0.0170
 1206loPI   GL119285   1.475  13.789   6.017 -0.2432 -0.0476 -0.1960
 1206loPI   GL219286   1.248  13.478   5.997  0.2384  0.2515 -0.0169
 1206loPI   C1A19287   1.568  13.870   6.538  0.3440 -0.1193  0.1040
 1206loPI   C2A19288   1.433  13.853   6.927 -0.2089 -0.1757  0.1625
 1206loPI   C3A19289   1.540  13.852   7.394  0.2431 -0.1666  0.2401
 1206loPI   C4A19290   1.429  13.874   7.799 -0.0721  0.1400 -0.0339
 1206loPI   C5A19291   1.218  13.807   8.245  0.1806 -0.0709  0.4007
 1206loPI   C6A19292   1.038  13.827   8.721  0.1550 -0.0140 -0.0640
 1206loPI   C1B19293   1.136  13.495   6.409 -0.0374  0.0113 -0.2441
 1206loPI   C2B19294   1.145  13.485   6.868  0.0538  0.1336 -0.1556
 1206loPI   C3B19295   1.059  13.528   7.300  0.1092 -0.2269  0.0477
 1206loPI   C4B19296   1.113  13.516   7.830 -0.1364 -0.0568  0.1497
 1207loPI    C119297  16.352  16.970   5.674  0.0603 -0.0549 -0.0128
 1207loPI    C219298  16.513  16.815   5.342  0.0185 -0.4072  0.1261
 1207loPI    C319299  16.373  17.190   5.341  0.1692 -0.3481 -0.2038
 1207loPI   PO419300  16.320  16.674   5.804  0.0198 -0.1165  0.0445
 1207loPI   GL119301  16.389  16.500   6.164  0.2414  0.0438  0.1355
 1207loPI   GL219302  16.089  16.605   6.360 -0.0266  0.0959 -0.1152
 1207loPI   C1A19303  16.497  16.356   6.610  0.0157  0.2281 -0.0355
 1207loPI   C2A19304  16.511  16.246   7.009  0.0478 -0.0756 -0.0015
 1207loPI   C3A19305  16.545  16.202   7.468 -0.0700 -0.1557  0.2755
 1207loPI   C4A19306  16.708  16.140   7.900 -0.1608  0.0179  0.0168
 1207loPI   C5A19307  16.643  16.257   8.231 -0.1938  0.0997  0.1487
 1207loPI   C6A19308  16.548  16.119   8.703 -0.1468 -0.1705 -0.0163
 1207loPI   C1B19309  16.093  16.463   6.817 -0.1962 -0.1743 -0.0352
 1207loPI   C2B19310  16.057  16.434   7.257 -0.1454 -0.1130 -0.0669
 1207loPI   C3B19311  16.080  16.425   7.671  0.1235  0.2120 -0.1781
 1207loPI   C4B19312  16.180  16.401   8.128  0.0135  0.1516  0.3458
 1208loPI    C119313   3.598   3.841   5.682  0.1079  0.0816 -0.1420
 1208loPI    C219314   3.942   3.770   5.491  0.1477 -0.1236  0.0024
 1208loPI    C319315   3.754   4.120   5.441  0.4472  0.0445  0.0284
 1208loPI   PO419316   3.591   3.811   5.941 -0.1484 -0.2948  0.1879
 1208loPI   GL119317   3.355   3.831   6.415 -0.1013 -0.1869 -0.0792
 1208loPI   GL219318   3.010   3.802   6.195 -0.0379 -0.0565  0.0714
 1208loPI   C1A19319   3.483   3.921   6.787 -0.6278 -0.0673 -0.2931
 1208loPI   C2A19320   3.397   3.928   7.126 -0.1384  0.0447 -0.0538
 1208loPI   C3A19321   3.391   3.941   7.558 -0.0118 -0.1614 -0.2161
 1208loPI   C4A19322   3.368   3.934   7.963  0.4223 -0.1814  0.2200
 1208loPI   C5A19323   3.314   4.278   8.324  0.2765 -0.3053 -0.1277
 1208loPI   C6A19324   3.055   4.529   8.656  0.0807  0.3760  0.3528
 1208loPI   C1B19325   3.008   4.003   6.665 -0.0459  0.0342 -0.1878
 1208loPI   C2B19326   2.964   4.145   7.027 -0.1365 -0.0165  0.0394
 1208loPI   C3B19327   2.862   4.085   7.353 -0.4408  0.1850  0.0548
 1208loPI   C4B19328   2.953   4.192   7.752 -0.1531 -0.0871 -0.1311
 1209loPI    C119329  14.614   1.249   5.570  0.2093  0.3870 -0.1986
 1209loPI    C219330  14.814   0.908   5.509 -0.0246  0.1462  0.3175
 1209loPI    C319331  14.495   0.996   5.285 -0.0471 -0.0434  0.2735
 1209loPI   PO419332  14.642   1.212   5.903  0.0112  0.1445 -0.3791
 1209loPI   GL119333  14.586   1.084   6.271  0.0157 -0.1106  0.0976
 1209loPI   GL219334  14.272   0.908   6.293 -0.2824 -0.0128 -0.2314
 1209loPI   C1A19335  14.711   1.151   6.716 -0.1289 -0.0538 -0.2414
 1209loPI   C2A19336  14.720   1.039   7.106  0.0263  0.0011  0.0686
 1209loPI   C3A19337  14.806   1.110   7.499 -0.2750 -0.2987 -0.1514
 1209loPI   C4A19338  14.854   1.052   7.956 -0.0437 -0.1522 -0.0640
 1209loPI   C5A19339  14.596   1.167   8.259  0.0306 -0.0402  0.3068
 1209loPI   C6A19340  14.654   1.205   8.659 -0.5476 -0.1018 -0.3527
 1209loPI   C1B19341  14.350   0.752   6.724 -0.0665 -0.0063  0.2038
 1209loPI   C2B19342  14.290   0.689   7.073  0.2768 -0.0073  0.0500
 1209loPI   C3B19343  14.368   0.825   7.505 -0.2003 -0.0065 -0.1963
 1209loPI   C4B19344  14.383   0.803   7.980  0.2629 -0.2237  0.0957
 1210loPI    C119345  11.250  16.976   5.352 -0.0699 -0.0160 -0.0084
 1210loPI    C219346  11.381  16.640   5.178 -0.1310 -0.0524  0.0159
 1210loPI    C319347  11.126  16.879   4.984 -0.0010  0.0371 -0.0461
 1210loPI   PO419348  11.102  16.962   5.651 -0.0430 -0.1294  0.0228
 1210loPI   GL119349  11.105  16.913   5.971 -0.0447 -0.6129  0.2390
 1210loPI   GL219350  10.881  16.924   6.218 -0.1498 -0.3576  0.4848
 1210loPI   C1A19351  11.358  16.729   6.323  0.1724  0.1552 -0.2745
 1210loPI   C2A19352  11.418  16.663   6.695  0.2416 -0.0505 -0.1228
 1210loPI   C3A19353  11.508  16.722   7.020 -0.0373  0.1128 -0.1912
 1210loPI   C4A19354  11.472  16.766   7.518  0.0710 -0.2507  0.0025
 1210loPI   C5A19355  11.505  16.725   7.957 -0.0168  0.0015 -0.1190
 1210loPI   C6A19356  11.224  16.915   8.315 -0.0683  0.2716  0.1714
 1210loPI   C1B19357  10.931  16.845   6.658 -0.0037  0.4313  0.0589
 1210loPI   C2B19358  10.913  16.914   7.038 -0.4090 -0.2577 -0.0309
 1210loPI   C3B19359  10.996  16.923   7.477  0.0166  0.0149  0.1512
 1210loPI   C4B19360  11.023  16.887   7.836  0.0875 -0.0635  0.1694
 1211loPI    C119361   7.870   3.661   5.228  0.0056 -0.0055 -0.0242
 1211loPI    C219362   7.555   3.416   5.200 -0.0039 -0.0134  0.1389
 1211loPI    C319363   7.518   3.801   5.099  0.0309 -0.0931 -0.1914
 1211loPI   PO419364   7.863   3.685   5.570  0.0616  0.1833 -0.1283
 1211loPI   GL119365   7.691   3.749   5.943  0.0999 -0.2588  0.0465
 1211loPI   GL219366   7.545   4.012   6.008  0.1337  0.3086  0.1115
 1211loPI   C1A19367   7.976   3.732   6.232  0.0668  0.1253  0.0530
 1211loPI   C2A19368   7.963   3.633   6.599  0.0970  0.0433 -0.2962
 1211loPI   C3A19369   7.846   3.672   7.091 -0.0228  0.0928 -0.2329
 1211loPI   C4A19370   7.907   3.711   7.514 -0.0383 -0.0207 -0.1988
 1211loPI   C5A19371   8.035   3.697   7.900 -0.0819  0.1046 -0.0763
 1211loPI   C6A19372   7.777   3.554   8.131  0.0275 -0.1789 -0.1154
 1211loPI   C1B19373   7.533   3.852   6.394  0.0987  0.0483  0.0221
 1211loPI   C2B19374   7.476   3.866   6.843 -0.1202  0.1641 -0.2202
 1211loPI   C3B19375   7.392   3.850   7.365 -0.3809  0.0673  0.0507
 1211loPI   C4B19376   7.373   3.838   7.819  0.1923 -0.0509 -0.0858
 1212loPI    C119377   9.308  11.472   5.086 -0.2069  0.0240 -0.0303
 1212loPI    C219378   9.397  11.166   4.844  0.1687  0.0297  0.0927
 1212loPI    C319379   9.398  11.540   4.703  0.1075  0.0091  0.0375
 1212loPI   PO419380   9.140  11.303   5.342 -0.1713  0.0881 -0.1837
 1212loPI   GL119381   9.030  11.220   5.819  0.0326  0.0512 -0.1415
 1212loPI   GL219382   9.303  11.276   5.967 -0.0561  0.6186  0.2390
 1212loPI   C1A19383   8.940  11.097   6.246  0.3378 -0.1647 -0.0175
 1212loPI   C2A19384   8.856  11.106   6.753 -0.1497  0.2150  0.1097
 1212loPI   C3A19385   8.708  11.027   7.134 -0.0619  0.0086  0.1438
 1212loPI   C4A19386   8.646  11.109   7.549  0.0846  0.2375 -0.3376
 1212loPI   C5A19387   8.811  10.989   7.918  0.1400 -0.0484  0.2873
 1212loPI   C6A19388   8.804  10.794   8.293  0.0925 -0.1585 -0.0403
 1212loPI   C1B19389   9.301  11.386   6.367 -0.0871 -0.1454  0.0778
 1212loPI   C2B19390   9.227  11.396   6.820 -0.0771 -0.1599  0.1053
 1212loPI   C3B19391   9.099  11.392   7.281 -0.1353 -0.0288  0.2425
 1212loPI   C4B19392   8.992  11.447   7.632  0.1205 -0.0406  0.0486
 1213loPI    C119393  14.832   1.744   5.489  0.1989  0.2687  0.1099
 1213loPI    C219394  15.225   1.768   5.420  0.2178  0.0867  0.1499
 1213loPI    C319395  14.965   1.872   5.134  0.2960 -0.2704 -0.0567
 1213loPI   PO419396  14.885   1.806   5.782 -0.0319 -0.2050  0.2256
 1213loPI   GL119397  14.888   1.554   6.142  0.1453 -0.1948 -0.1595
 1213loPI   GL219398  14.689   1.598   6.265 -0.2449  0.0109 -0.2990
 1213loPI   C1A19399  15.149   1.480   6.548  0.1469 -0.0331  0.0019
 1213loPI   C2A19400  15.140   1.513   6.948 -0.1128  0.0370  0.1983
 1213loPI   C3A19401  15.172   1.440   7.250  0.0251 -0.0776  0.0784
 1213loPI   C4A19402  15.196   1.451   7.761 -0.2471 -0.3401  0.1938
 1213loPI   C5A19403  15.286   1.299   8.152 -0.5650  0.0543 -0.1062
 1213loPI   C6A19404  15.165   0.811   8.257  0.3355 -0.2614  0.1021
 1213loPI   C1B19405  14.694   1.670   6.681 -0.1468  0.0386 -0.1167
 1213loPI   C2B19406  14.699   1.559   7.087 -0.0583 -0.4990 -0.1244
 1213loPI   C3B19407  14.717   1.627   7.492 -0.0933 -0.0811 -0.3169
 1213loPI   C4B19408  14.765   1.637   7.917  0.1786  0.4577 -0.1218
 1214loPI    C119409   9.394  13.812   5.457 -0.2851  0.2151  0.0837
 1214loPI    C219410   9.365  13.957   5.085 -0.0790 -0.0107 -0.0237
 1214loPI    C319411   9.303  13.568   5.153 -0.0694  0.0207  0.1721
 1214loPI   PO419412   9.279  13.913   5.668 -0.0075  0.1213 -0.0434
 1214loPI   GL119413   9.066  14.010   6.167  0.1538  0.1137  0.0728
 1214loPI   GL219414   9.331  13.893   6.183  0.1869  0.3826 -0.0891
 1214loPI   C1A19415   9.162  14.150   6.578  0.1606 -0.4513  0.1555
 1214loPI   C2A19416   9.041  14.220   7.008  0.1901  0.1628  0.0816
 1214loPI   C3A19417   9.143  14.316   7.460 -0.0242 -0.0419 -0.0118
 1214loPI   C4A19418   9.044  14.274   7.855  0.0517  0.2188 -0.0933
 1214loPI   C5A19419   9.019  14.218   8.248 -0.0931  0.1955  0.3658
 1214loPI   C6A19420   9.046  14.104   8.632  0.0874  0.0200  0.0018
 1214loPI   C1B19421   9.423  13.701   6.616 -0.0718  0.0206 -0.1971
 1214loPI   C2B19422   9.232  13.718   7.062 -0.1649  0.0101 -0.0198
 1214loPI   C3B19423   9.211  13.848   7.513  0.0891  0.1945  0.1507
 1214loPI   C4B19424   9.175  13.733   7.925  0.4045 -0.0112  0.0051
 1215loPI    C119425  11.829  16.718   5.319  0.0569 -0.0843  0.2625
 1215loPI    C219426  11.756  16.343   5.438  0.0356 -0.1247  0.1238
 1215loPI    C319427  12.076  16.423   5.210 -0.1193 -0.1071 -0.0903
 1215loPI   PO419428  11.805  16.853   5.515 -0.0163  0.2489 -0.2850
 1215loPI   GL119429  11.720  16.720   5.988 -0.0512 -0.2699  0.1746
 1215loPI   GL219430  11.683  17.050   6.057 -0.3388  0.1500  0.0227
 1215loPI   C1A19431  11.845  16.526   6.420 -0.0273  0.0700 -0.2453
 1215loPI   C2A19432  11.933  16.444   6.834  0.0728  0.0276  0.0231
 1215loPI   C3A19433  11.869  16.508   7.199 -0.0285 -0.0677 -0.2371
 1215loPI   C4A19434  11.956  16.493   7.661 -0.1258  0.1666 -0.1293
 1215loPI   C5A19435  11.976  16.447   8.117 -0.2006  0.4161 -0.1168
 1215loPI   C6A19436  11.943  16.711   8.419 -0.1270 -0.2288  0.2178
 1215loPI   C1B19437  11.817  17.041   6.506  0.1318 -0.1301  0.2294
 1215loPI   C2B19438  11.843  17.070   6.908  0.0771  0.1219  0.0063
 1215loPI   C3B19439  11.884  17.046   7.347  0.0269  0.1895  0.0460
 1215loPI   C4B19440  11.975  16.982   7.833 -0.1690  0.3180 -0.0227
 1216loPI    C119441   6.485  10.783   5.597  0.0992  0.1281  0.0545
 1216loPI    C219442   6.820  10.965   5.718  0.1508  0.2851 -0.3106
 1216loPI    C319443   6.696  11.006   5.340 -0.1739  0.0633 -0.2321
 1216loPI   PO419444   6.439  10.719   5.804  0.0871  0.1638 -0.2176
 1216loPI   GL119445   6.476  10.720   6.313 -0.0074  0.0174  0.0949
 1216loPI   GL219446   6.558  10.999   6.432  0.1858  0.0743 -0.0026
 1216loPI   C1A19447   6.656  10.462   6.620 -0.0181 -0.0643 -0.2257
 1216loPI   C2A19448   6.611  10.387   6.941  0.0096 -0.1669 -0.0963
 1216loPI   C3A19449   6.595  10.096   7.305  0.2468 -0.2195  0.0667
 1216loPI   C4A19450   6.615   9.824   7.742  0.2352  0.3821  0.0298
 1216loPI   C5A19451   6.576   9.740   8.228  0.2243  0.3386  0.0984
 1216loPI   C6A19452   6.484   9.424   8.438  0.2759 -0.0172  0.0371
 1216loPI   C1B19453   6.536  10.908   6.866 -0.0020 -0.2192 -0.2879
 1216loPI   C2B19454   6.400  11.036   7.307  0.1793 -0.0991 -0.0293
 1216loPI   C3B19455   6.449  10.955   7.724 -0.3105  0.5641 -0.0873
 1216loPI   C4B19456   6.321  10.858   8.111 -0.2651  0.1573  0.0420
 1217loPI    C119457  13.926   4.726   5.563  0.0152 -0.1084  0.0160
 1217loPI    C219458  14.139   4.508   5.304  0.0920 -0.1138  0.0833
 1217loPI    C319459  13.848   4.748   5.171  0.2601  0.0312 -0.0271
 1217loPI   PO419460  13.928   4.557   5.752 -0.0241 -0.0600 -0.2054
 1217loPI   GL119461  13.887   4.456   6.107 -0.4298  0.0354 -0.0920
 1217loPI   GL219462  13.770   4.649   6.212  0.0035 -0.1361 -0.0179
 1217loPI   C1A19463  13.901   4.289   6.579  0.0549 -0.1584  0.3353
 1217loPI   C2A19464  13.821   4.323   7.055 -0.1289  0.4206  0.1557
 1217loPI   C3A19465  13.881   4.350   7.497 -0.1756  0.2550  0.1637
 1217loPI   C4A19466  13.863   4.264   7.823 -0.0903 -0.0170  0.1004
 1217loPI   C5A19467  13.969   4.337   8.198 -0.2542  0.1024 -0.0064
 1217loPI   C6A19468  14.157   4.183   8.447  0.1168 -0.0430 -0.1474
 1217loPI   C1B19469  13.780   4.842   6.652  0.0445 -0.1474  0.0377
 1217loPI   C2B19470  13.743   4.901   7.134  0.2563 -0.0801  0.0640
 1217loPI   C3B19471  13.837   4.810   7.450 -0.1013 -0.2995  0.1342
 1217loPI   C4B19472  13.758   4.732   7.930  0.0654 -0.1280  0.0815
 1218loPI    C119473  10.985  13.845   5.607 -0.1027  0.2586 -0.2069
 1218loPI    C219474  10.956  13.508   5.394 -0.2723  0.0875  0.0787
 1218loPI    C319475  11.074  13.847   5.217  0.3531 -0.2154 -0.1175
 1218loPI   PO419476  11.035  13.751   5.879 -0.2369 -0.1324  0.0837
 1218loPI   GL119477  10.641  13.708   6.152  0.1686 -0.2290 -0.3735
 1218loPI   GL219478  10.384  13.622   6.205  0.1241 -0.0610  0.0854
 1218loPI   C1A19479  10.642  13.634   6.663  0.0771 -0.0601  0.3679
 1218loPI   C2A19480  10.684  13.639   7.129 -0.3095  0.2566 -0.0323
 1218loPI   C3A19481  10.506  13.652   7.578 -0.0080  0.0555 -0.1785
 1218loPI   C4A19482  10.431  13.680   8.059  0.0013 -0.0570  0.2777
 1218loPI   C5A19483  10.559  13.728   8.590 -0.1015  0.0232  0.0690
 1218loPI   C6A19484  10.807  13.814   9.002  0.1322 -0.0334  0.2991
 1218loPI   C1B19485  10.314  13.304   6.468 -0.3736  0.3297 -0.0005
 1218loPI   C2B19486  10.280  13.325   6.895  0.3046 -0.1130 -0.0643
 1218loPI   C3B19487  10.149  13.328   7.318 -0.2350 -0.2280  0.1308
 1218loPI   C4B19488  10.105  13.366   7.761 -0.1790  0.1436  0.0357
 1219loPI    C119489   6.479   9.847   5.805 -0.0604 -0.3111  0.1839
 1219loPI    C219490   6.616   9.607   5.517  0.2745  0.1965 -0.0950
 1219loPI    C319491   6.288   9.828   5.454 -0.2200 -0.4003  0.2743
 1219loPI   PO419492   6.572   9.772   6.021 -0.0153 -0.0446  0.0445
 1219loPI   GL119493   6.768   9.695   6.369 -0.2472  0.0049 -0.1235
 1219loPI   GL219494   6.694   9.978   6.426 -0.0038 -0.1252 -0.0435
 1219loPI   C1A19495   6.715   9.386   6.595 -0.0220  0.2090 -0.0275
 1219loPI   C2A19496   6.801   8.969   6.904  0.1600 -0.3240 -0.0448
 1219loPI   C3A19497   6.717   8.897   7.322 -0.0645  0.2453 -0.0697
 1219loPI   C4A19498   6.701   8.901   7.724  0.0118  0.2290  0.1148
 1219loPI   C5A19499   6.758   8.820   8.111  0.0878  0.0286 -0.0535
 1219loPI   C6A19500   7.094   8.748   8.252  0.1672 -0.1562  0.0978
 1219loPI   C1B19501   6.670   9.847   6.900 -0.1560 -0.3080 -0.3026
 1219loPI   C2B19502   6.694   9.444   7.147 -0.0019  0.3098 -0.0285
 1219loPI   C3B19503   6.697   9.326   7.559 -0.2187 -0.2496  0.1818
 1219loPI   C4B19504   6.594   9.349   7.850 -0.4648  0.0676 -0.1298
 1220loPI    C119505   7.808  11.539   5.426 -0.0750 -0.3256  0.1452
 1220loPI    C219506   8.119  11.463   5.185 -0.1456  0.1129 -0.0953
 1220loPI    C319507   7.745  11.432   5.045 -0.1887  0.3063 -0.0257
 1220loPI   PO419508   7.940  11.767   5.552 -0.1130 -0.0383 -0.3129
 1220loPI   GL119509   8.042  11.762   5.947  0.2596 -0.1569 -0.1054
 1220loPI   GL219510   7.904  11.907   6.079  0.1590 -0.1854 -0.2322
 1220loPI   C1A19511   8.307  11.758   6.296  0.4144  0.1864  0.0537
 1220loPI   C2A19512   8.222  11.716   6.752 -0.1211  0.1752  0.4084
 1220loPI   C3A19513   8.160  11.761   7.176 -0.0577 -0.1133  0.2425
 1220loPI   C4A19514   7.970  11.759   7.597 -0.1906 -0.1687  0.1578
 1220loPI   C5A19515   8.082  11.699   8.128  0.1461 -0.2304 -0.4206
 1220loPI   C6A19516   7.794  11.745   8.357  0.0163  0.2184  0.1638
 1220loPI   C1B19517   7.776  11.926   6.552 -0.1063 -0.1323  0.0300
 1220loPI   C2B19518   7.725  11.875   7.011 -0.1349 -0.2013  0.0260
 1220loPI   C3B19519   7.623  12.007   7.388 -0.0738 -0.3502  0.0441
 1220loPI   C4B19520   7.712  12.018   7.861  0.1894 -0.0698 -0.0081
 1221loPI    C119521   0.096  13.367   5.687  0.1148  0.0424 -0.0315
 1221loPI    C219522   0.370  13.580   5.489  0.0938 -0.1916 -0.3195
 1221loPI    C319523   0.124  13.337   5.289 -0.2004 -0.1265 -0.0437
 1221loPI   PO419524   0.045  13.470   5.943 -0.4164 -0.1323 -0.2769
 1221loPI   GL119525   0.263  13.312   6.297 -0.0448  0.4492 -0.0556
 1221loPI   GL219526  -0.107  13.205   6.442  0.2758  0.2733 -0.1745
 1221loPI   C1A19527   0.238  13.401   6.775 -0.2346  0.0810 -0.1242
 1221loPI   C2A19528   0.218  13.402   7.214  0.0028  0.1567  0.1582
 1221loPI   C3A19529   0.190  13.452   7.620  0.0423  0.1580  0.0221
 1221loPI   C4A19530   0.193  13.406   8.089  0.1503 -0.0308 -0.0732
 1221loPI   C5A19531   0.335  13.228   8.473  0.3143  0.2493  0.0780
 1221loPI   C6A19532   0.646  12.947   8.501 -0.0496  0.4130  0.4396
 1221loPI   C1B19533  -0.142  13.117   6.888  0.1880  0.0146 -0.2148
 1221loPI   C2B19534  -0.183  13.109   7.353 -0.2073 -0.1821 -0.1112
 1221loPI   C3B19535  -0.183  13.133   7.748  0.0287 -0.1297 -0.1091
 1221loPI   C4B19536  -0.183  13.020   8.152  0.2871  0.0864 -0.2558
 1222loPI    C119537  17.782   0.687   5.600  0.3129 -0.0536  0.2112
 1222loPI    C219538  17.866   0.891   5.267  0.2543 -0.0913  0.1731
 1222loPI    C319539  17.496   0.751   5.328  0.2141  0.0839  0.3452
 1222loPI   PO419540  17.822   0.815   5.890  0.0482  0.0562  0.0166
 1222loPI   GL119541  18.108   0.620   6.224 -0.1595 -0.1151  0.1629
 1222loPI   GL219542  18.182   0.306   6.381 -0.1604 -0.1721  0.0593
 1222loPI   C1A19543  17.965   0.776   6.585  0.1313  0.0817 -0.2741
 1222loPI   C2A19544  18.072   0.816   7.071 -0.0322 -0.1585 -0.0173
 1222loPI   C3A19545  17.952   0.879   7.507 -0.0721 -0.0248 -0.0991
 1222loPI   C4A19546  17.917   0.964   8.018 -0.0158  0.2368  0.2756
 1222loPI   C5A19547  18.085   0.748   8.490  0.1200  0.1393  0.3816
 1222loPI   C6A19548  18.250   0.494   8.814 -0.0602  0.3009  0.0258
 1222loPI   C1B19549  18.114   0.356   6.878  0.4297  0.4103 -0.1516
 1222loPI   C2B19550  18.052   0.352   7.319  0.0420 -0.3369 -0.3348
 1222loPI   C3B19551  17.986   0.395   7.797  0.2016 -0.2179  0.0283
 1222loPI   C4B19552  18.078   0.317   8.209 -0.1371  0.2701 -0.0456
 1223loPI    C119553  11.401  10.993   5.221  0.0347  0.0519 -0.0014
 1223loPI    C219554  11.527  10.662   5.408 -0.0849 -0.0754 -0.1436
 1223loPI    C319555  11.227  10.641   5.144 -0.0481  0.1360 -0.2043
 1223loPI   PO419556  11.395  11.181   5.436 -0.0032 -0.0350 -0.2884
 1223loPI   GL119557  11.368  11.436   5.838 -0.1026  0.1327 -0.0830
 1223loPI   GL219558  11.274  11.176   5.903  0.1498 -0.3732 -0.4075
 1223loPI   C1A19559  11.444  11.525   6.263  0.3485  0.1329  0.0689
 1223loPI   C2A19560  11.464  11.501   6.738 -0.2187  0.0594 -0.2035
 1223loPI   C3A19561  11.406  11.457   7.178 -0.0648 -0.0117 -0.2019
 1223loPI   C4A19562  11.379  11.519   7.537  0.0421  0.0980 -0.0346
 1223loPI   C5A19563  11.407  11.305   8.040  0.0079 -0.4075  0.0022
 1223loPI   C6A19564  11.478  10.911   8.165 -0.2966  0.2766 -0.0944
 1223loPI   C1B19565  11.496  11.013   6.247 -0.2300  0.3791  0.0702
 1223loPI   C2B19566  11.625  10.985   6.741  0.3846  0.2146 -0.2770
 1223loPI   C3B19567  11.554  10.938   7.147  0.2207 -0.2715  0.0593
 1223loPI   C4B19568  11.395  10.921   7.612 -0.0562  0.0882 -0.0015
 1224loPI    C119569   3.148  13.843   5.622 -0.0493 -0.1375 -0.1735
 1224loPI    C219570   2.765  13.949   5.577 -0.0988 -0.1692  0.1500
 1224loPI    C319571   3.037  14.062   5.306 -0.3369 -0.1557 -0.0878
 1224loPI   PO419572   3.214  13.752   5.825  0.1978 -0.1233  0.1034
 1224loPI   GL119573   3.327  13.701   6.229 -0.0428 -0.5447 -0.1989
 1224loPI   GL219574   3.352  14.116   6.411 -0.0740 -0.2832  0.2233
 1224loPI   C1A19575   3.439  13.699   6.689 -0.1013 -0.2175 -0.1937
 1224loPI   C2A19576   3.327  13.623   7.104  0.3835  0.3972  0.0154
 1224loPI   C3A19577   3.392  13.549   7.522 -0.0109  0.1179  0.3566
 1224loPI   C4A19578   3.345  13.551   7.984  0.0822 -0.0605 -0.6157
 1224loPI   C5A19579   3.276  13.384   8.303 -0.0212  0.1610 -0.0611
 1224loPI   C6A19580   3.329  13.494   8.689 -0.0746  0.0856  0.1026
 1224loPI   C1B19581   3.349  14.166   6.864 -0.0095 -0.1500 -0.1828
 1224loPI   C2B19582   3.269  14.073   7.284  0.1562  0.2817 -0.0794
 1224loPI   C3B19583   3.241  13.995   7.764 -0.1776  0.0116  0.0059
 1224loPI   C4B19584   3.156  14.071   8.179  0.0901  0.2953  0.0117
 1225loPI    C119585  10.285   7.635   5.345  0.1969 -0.3286  0.3232
 1225loPI    C219586  10.011   7.344   5.323  0.0067 -0.1242 -0.1538
 1225loPI    C319587  10.301   7.367   5.048  0.2260 -0.0610  0.0784
 1225loPI   PO419588  10.260   7.671   5.606  0.1343  0.1242 -0.0667
 1225loPI   GL119589  10.095   7.862   5.953  0.2493 -0.0520 -0.2709
 1225loPI   GL219590  10.346   7.918   6.137  0.2165 -0.0889  0.0492
 1225loPI   C1A19591  10.113   7.670   6.488  0.2881 -0.0008 -0.1726
 1225loPI   C2A19592  10.256   7.605   6.914 -0.0263  0.0039  0.1304
 1225loPI   C3A19593  10.132   7.624   7.331 -0.1958  0.0142  0.2597
 1225loPI   C4A19594  10.276   7.676   7.765 -0.0005  0.2525  0.0513
 1225loPI   C5A19595  10.250   7.658   8.176 -0.0606  0.1470 -0.2723
 1225loPI   C6A19596  10.044   7.960   8.505 -0.3041  0.0676  0.0195
 1225loPI   C1B19597  10.542   7.986   6.568  0.2173  0.0556  0.3219
 1225loPI   C2B19598  10.615   7.901   7.037 -0.1984  0.3821  0.0352
 1225loPI   C3B19599  10.582   8.034   7.438 -0.1658  0.1486  0.1313
 1225loPI   C4B19600  10.642   7.973   7.934 -0.0849 -0.1770 -0.3515
 1226loPI    C119601  13.276  10.922   5.396 -0.0568  0.0333 -0.0585
 1226loPI    C219602  13.492  11.222   5.245  0.3679 -0.1018  0.2599
 1226loPI    C319603  13.527  10.854   5.092  0.0438 -0.0453  0.0409
 1226loPI   PO419604  13.252  10.954   5.652  0.0040 -0.1555  0.0006
 1226loPI   GL119605  13.340  11.055   5.969  0.1660 -0.0729 -0.4472
 1226loPI   GL219606  13.399  10.767   6.126  0.2325  0.4043 -0.0585
 1226loPI   C1A19607  13.277  11.146   6.412 -0.2404 -0.1851 -0.1383
 1226loPI   C2A19608  13.239  11.284   6.790  0.0931 -0.0579 -0.1463
 1226loPI   C3A19609  13.208  11.266   7.159 -0.1234 -0.2004  0.2545
 1226loPI   C4A19610  13.136  11.246   7.588 -0.0774 -0.0004 -0.1676
 1226loPI   C5A19611  13.162  11.268   8.051 -0.1456  0.1307 -0.1583
 1226loPI   C6A19612  13.076  10.917   8.355  0.0714  0.0003 -0.1594
 1226loPI   C1B19613  13.372  10.654   6.567 -0.0927 -0.0050 -0.1467
 1226loPI   C2B19614  13.334  10.800   6.936 -0.2598 -0.2640  0.0035
 1226loPI   C3B19615  13.282  10.735   7.331  0.1170 -0.3936 -0.0098
 1226loPI   C4B19616  13.237  10.740   7.746 -0.1361 -0.4642 -0.2128
 1227loPI    C119617  12.461   9.648   5.354 -0.1101 -0.0373 -0.0478
 1227loPI    C219618  12.336  10.003   5.218  0.1294  0.1198  0.1323
 1227loPI    C319619  12.191   9.665   5.060 -0.0377  0.2965 -0.0992
 1227loPI   PO419620  12.420   9.671   5.594 -0.1778  0.1490 -0.2312
 1227loPI   GL119621  12.561   9.575   6.057  0.0510  0.3758  0.2900
 1227loPI   GL219622  12.330   9.769   6.107 -0.0781 -0.0015 -0.0103
 1227loPI   C1A19623  12.643   9.586   6.464  0.0893  0.1680 -0.0408
 1227loPI   C2A19624  12.584   9.592   6.886  0.0528  0.0884  0.0711
 1227loPI   C3A19625  12.523   9.615   7.346  0.2041  0.0742  0.0783
 1227loPI   C4A19626  12.545   9.566   7.796  0.0915  0.2833  0.3367
 1227loPI   C5A19627  12.536   9.682   8.233 -0.0242  0.0105 -0.0314
 1227loPI   C6A19628  12.380   9.463   8.613 -0.1444  0.1288  0.1527
 1227loPI   C1B19629  12.173   9.725   6.482 -0.2052  0.0493  0.3610
 1227loPI   C2B19630  12.091   9.738   6.883  0.2725 -0.0335 -0.1577
 1227loPI   C3B19631  12.081   9.770   7.311  0.1560  0.0356 -0.1306
 1227loPI   C4B19632  12.055   9.802   7.807  0.1018 -0.1206  0.1572
 1228loPI    C119633  16.988   1.569   5.406  0.0772 -0.0229 -0.0361
 1228loPI    C219634  16.697   1.337   5.260  0.0921 -0.1220  0.0895
 1228loPI    C319635  16.913   1.567   5.014 -0.1321 -0.0007  0.0030
 1228loPI   PO419636  17.101   1.514   5.550 -0.1737  0.1802  0.0723
 1228loPI   GL119637  17.028   1.360   5.993  0.1134  0.0260  0.3398
 1228loPI   GL219638  17.018   1.723   5.972  0.2522 -0.0173 -0.1358
 1228loPI   C1A19639  16.952   1.256   6.387  0.2289  0.1572  0.1470
 1228loPI   C2A19640  16.992   1.272   6.916 -0.0182  0.0631  0.1220
 1228loPI   C3A19641  17.062   1.164   7.293 -0.0596 -0.2188 -0.2058
 1228loPI   C4A19642  17.008   1.175   7.772 -0.2832  0.0211 -0.2031
 1228loPI   C5A19643  16.836   1.239   8.222  0.1198  0.0577  0.2068
 1228loPI   C6A19644  16.909   1.747   8.184  0.0191  0.0147  0.1745
 1228loPI   C1B19645  16.920   1.731   6.354  0.0004 -0.2340 -0.0446
 1228loPI   C2B19646  16.938   1.709   6.720 -0.0684  0.1364  0.2523
 1228loPI   C3B19647  16.930   1.712   7.155  0.4131 -0.2652  0.0688
 1228loPI   C4B19648  16.901   1.634   7.575  0.1925  0.2103  0.0309
 1229loPI    C119649   0.220  16.171   5.423  0.0854 -0.0290 -0.0356
 1229loPI    C219650   0.560  16.167   5.212  0.0772  0.3031 -0.0591
 1229loPI    C319651   0.212  16.250   5.031 -0.0230 -0.0609 -0.0401
 1229loPI   PO419652   0.313  16.246   5.730  0.2616  0.1595 -0.1206
 1229loPI   GL119653   0.064  16.173   6.163  0.3491 -0.2476 -0.0759
 1229loPI   GL219654  -0.137  15.913   6.200 -0.2252 -0.0056  0.1857
 1229loPI   C1A19655   0.089  16.269   6.536  0.1891 -0.2036  0.2101
 1229loPI   C2A19656   0.118  16.229   6.966 -0.3157 -0.0884  0.3538
 1229loPI   C3A19657   0.208  16.348   7.416  0.3822  0.1242  0.0931
 1229loPI   C4A19658   0.258  16.278   7.910 -0.1558 -0.0319 -0.2332
 1229loPI   C5A19659   0.115  16.168   8.383 -0.0967  0.0037  0.0383
 1229loPI   C6A19660   0.302  15.990   8.712  0.1154  0.3636 -0.0470
 1229loPI   C1B19661  -0.200  15.889   6.598  0.1208  0.1088  0.0512
 1229loPI   C2B19662  -0.216  15.852   7.093 -0.0536  0.1221  0.1898
 1229loPI   C3B19663  -0.189  15.936   7.520 -0.1004 -0.0779 -0.0028
 1229loPI   C4B19664  -0.216  15.925   7.993  0.0965  0.1360  0.3832
 1230loPI    C119665  15.663  13.349   5.516 -0.0142 -0.0191 -0.1183
 1230loPI    C219666  15.567  13.707   5.365  0.2116  0.0491 -0.1043
 1230loPI    C319667  15.670  13.407   5.120  0.1462  0.0301 -0.1089
 1230loPI   PO419668  15.675  13.521   5.863  0.0288  0.0256  0.1259
 1230loPI   GL119669  15.954  13.530   6.207 -0.0891  0.0632 -0.0026
 1230loPI   GL219670  15.646  13.739   6.357  0.1439  0.2796  0.3103
 1230loPI   C1A19671  16.160  13.506   6.607  0.2889  0.0632 -0.0999
 1230loPI   C2A19672  16.138  13.532   7.029 -0.1163 -0.1391 -0.1379
 1230loPI   C3A19673  16.177  13.624   7.480 -0.0636 -0.1164  0.1118
 1230loPI   C4A19674  16.120  13.573   7.862 -0.1347  0.1624 -0.0662
 1230loPI   C5A19675  16.022  13.494   8.325  0.2134  0.0812 -0.1623
 1230loPI   C6A19676  15.786  13.173   8.399 -0.0228  0.1592 -0.2819
 1230loPI   C1B19677  15.632  13.720   6.768 -0.0023  0.0527 -0.1906
 1230loPI   C2B19678  15.554  13.777   7.154 -0.1402  0.0989 -0.0738
 1230loPI   C3B19679  15.656  13.755   7.635  0.0087  0.0069  0.0273
 1230loPI   C4B19680  15.590  13.670   8.037 -0.0653  0.3392  0.0963
 1231loPI    C119681   3.950   4.791   5.809 -0.2047 -0.1353 -0.0061
 1231loPI    C219682   3.936   4.558   5.484  0.1039 -0.0199 -0.1059
 1231loPI    C319683   3.911   4.956   5.447 -0.1282 -0.0188  0.0380
 1231loPI   PO419684   4.105   4.699   5.930 -0.0271  0.4196  0.0135
 1231loPI   GL119685   4.364   4.360   6.171  0.1639  0.1573  0.2132
 1231loPI   GL219686   4.190   4.525   6.379  0.1052  0.2281  0.0230
 1231loPI   C1A19687   4.338   4.059   6.504 -0.1196 -0.2117 -0.3181
 1231loPI   C2A19688   4.298   4.135   7.050 -0.1972 -0.0304 -0.1320
 1231loPI   C3A19689   4.289   4.179   7.496  0.1647 -0.3626  0.0577
 1231loPI   C4A19690   4.290   4.211   7.991 -0.1734 -0.2434 -0.0079
 1231loPI   C5A19691   4.302   4.479   8.377  0.0745 -0.0906  0.0495
 1231loPI   C6A19692   4.115   4.711   8.711  0.0458  0.0387  0.3204
 1231loPI   C1B19693   4.270   4.561   6.769  0.1566 -0.0206 -0.0418
 1231loPI   C2B19694   4.237   4.666   7.072 -0.0909 -0.2409 -0.3281
 1231loPI   C3B19695   4.257   4.676   7.460  0.0791  0.0055  0.1894
 1231loPI   C4B19696   4.271   4.735   7.925 -0.1388  0.0800  0.0311
 1232loPI    C119697   8.849   6.274   5.336 -0.0162 -0.1778  0.2995
 1232loPI    C219698   9.011   6.278   4.970 -0.1589 -0.0042  0.2365
 1232loPI    C319699   8.613   6.271   5.013 -0.1472  0.1662  0.3867
 1232loPI   PO419700   8.968   6.437   5.444  0.0060  0.0114 -0.0781
 1232loPI   GL119701   8.925   6.479   5.831  0.2064  0.1051  0.1183
 1232loPI   GL219702   8.627   6.685   5.881 -0.1452 -0.3712  0.3241
 1232loPI   C1A19703   8.951   6.565   6.216  0.0431  0.0597 -0.1438
 1232loPI   C2A19704   9.035   6.637   6.693 -0.0040  0.2285 -0.0098
 1232loPI   C3A19705   9.003   6.622   7.076 -0.0015 -0.1151  0.2361
 1232loPI   C4A19706   8.901   6.671   7.510 -0.3014 -0.3365  0.1985
 1232loPI   C5A19707   8.733   6.546   7.964 -0.1906  0.2106  0.3079
 1232loPI   C6A19708   8.879   6.604   8.384 -0.0310  0.3315  0.0210
 1232loPI   C1B19709   8.526   6.872   6.227 -0.2005 -0.1297  0.0030
 1232loPI   C2B19710   8.591   6.902   6.695  0.2018  0.0727  0.3831
 1232loPI   C3B19711   8.558   6.783   7.172  0.0694 -0.4326 -0.0348
 1232loPI   C4B19712   8.394   6.861   7.538  0.2152 -0.1772 -0.1552
 1233loPI    C119713   6.395  11.324   5.575 -0.3532  0.0368  0.1149
 1233loPI    C219714   6.142  11.114   5.348 -0.1868 -0.0170 -0.0227
 1233loPI    C319715   6.352  11.414   5.188 -0.1227 -0.0080  0.0774
 1233loPI   PO419716   6.290  11.362   5.816 -0.4910 -0.0287 -0.4215
 1233loPI   GL119717   6.185  11.218   6.218 -0.0860 -0.2016  0.1011
 1233loPI   GL219718   6.320  11.439   6.426 -0.3995 -0.3638  0.1105
 1233loPI   C1A19719   6.053  11.146   6.677  0.1004  0.2787 -0.1855
 1233loPI   C2A19720   5.974  11.201   7.069  0.2485 -0.1452  0.2290
 1233loPI   C3A19721   5.952  11.163   7.516 -0.2383  0.1283  0.1025
 1233loPI   C4A19722   5.933  11.121   7.918 -0.0755 -0.0777 -0.1500
 1233loPI   C5A19723   6.042  11.098   8.397 -0.1022 -0.1179 -0.0925
 1233loPI   C6A19724   6.348  11.200   8.784 -0.2205 -0.5017  0.2023
 1233loPI   C1B19725   6.356  11.518   6.991  0.0322 -0.0503  0.0197
 1233loPI   C2B19726   6.366  11.511   7.410  0.2665 -0.0373 -0.1236
 1233loPI   C3B19727   6.442  11.499   7.896  0.3109 -0.1632  0.0903
 1233loPI   C4B19728   6.529  11.344   8.332  0.3227 -0.0441  0.1487
 1234loPI    C119729  15.726  15.163   5.857  0.0558  0.0702 -0.1419
 1234loPI    C219730  15.819  14.787   5.957 -0.2687  0.0610  0.1395
 1234loPI    C319731  15.614  14.859   5.622 -0.0951  0.0002  0.0189
 1234loPI   PO419732  15.621  15.325   6.017 -0.1411  0.3962 -0.0933
 1234loPI   GL119733  15.640  15.154   6.399  0.2493 -0.0430  0.1584
 1234loPI   GL219734  15.875  15.181   6.601 -0.0859  0.1252  0.0999
 1234loPI   C1A19735  15.369  15.308   6.634 -0.0288 -0.0329 -0.1689
 1234loPI   C2A19736  15.343  15.376   7.022 -0.1404  0.0512 -0.5576
 1234loPI   C3A19737  15.391  15.298   7.499  0.0827  0.0046 -0.3067
 1234loPI   C4A19738  15.357  15.233   7.937  0.1046  0.1819  0.0199
 1234loPI   C5A19739  15.190  15.221   8.359 -0.0664  0.0840 -0.0115
 1234loPI   C6A19740  15.394  15.176   8.720  0.0470  0.0693 -0.2251
 1234loPI   C1B19741  15.829  15.132   6.987 -0.0543  0.1702  0.0289
 1234loPI   C2B19742  15.812  15.096   7.407  0.1012 -0.0498 -0.1149
 1234loPI   C3B19743  15.808  15.023   7.856  0.0500 -0.2331  0.0233
 1234loPI   C4B19744  15.730  15.130   8.215 -0.0740 -0.2628 -0.1673
 1235loPI    C119745  14.800  12.988   5.338  0.0158  0.3226 -0.2180
 1235loPI    C219746  14.889  12.769   5.016 -0.0614  0.0508 -0.0581
 1235loPI    C319747  14.783  13.153   4.974  0.0171  0.0438 -0.3467
 1235loPI   PO419748  14.967  12.947   5.530  0.0311  0.0131 -0.0055
 1235loPI   GL119749  14.875  13.086   6.062 -0.1325 -0.2392  0.2164
 1235loPI   GL219750  14.772  13.394   6.136  0.0642 -0.0661  0.2453
 1235loPI   C1A19751  14.815  13.077   6.488 -0.1512  0.0910 -0.0211
 1235loPI   C2A19752  14.781  13.137   6.983 -0.2262 -0.1146  0.1559
 1235loPI   C3A19753  14.786  13.128   7.464  0.0010 -0.2845  0.1311
 1235loPI   C4A19754  14.703  13.060   7.902 -0.0936  0.1953 -0.2660
 1235loPI   C5A19755  14.877  12.760   8.112 -0.0565 -0.1393  0.4312
 1235loPI   C6A19756  15.097  12.490   8.264 -0.0458  0.1860  0.0282
 1235loPI   C1B19757  14.635  13.534   6.541  0.1032  0.0465 -0.2132
 1235loPI   C2B19758  14.717  13.652   6.974  0.1713  0.1512 -0.2342
 1235loPI   C3B19759  14.656  13.685   7.400  0.2101  0.0883 -0.0039
 1235loPI   C4B19760  14.669  13.551   7.789  0.0065 -0.2984 -0.0730
 1236loPI    C119761   5.000  16.580   5.690 -0.1277 -0.1768 -0.0889
 1236loPI    C219762   4.866  16.285   5.455  0.2130 -0.2963 -0.1378
 1236loPI    C319763   5.174  16.511   5.337 -0.0751  0.1160 -0.1228
 1236loPI   PO419764   4.734  16.578   5.919 -0.0952  0.1481 -0.1069
 1236loPI   GL119765   4.772  16.512   6.349 -0.0795  0.0266 -0.0073
 1236loPI   GL219766   5.019  16.735   6.456 -0.0148  0.5370  0.1472
 1236loPI   C1A19767   4.722  16.445   6.749  0.0317 -0.0597  0.0797
 1236loPI   C2A19768   4.739  16.451   7.107 -0.0679  0.0922  0.0749
 1236loPI   C3A19769   4.655  16.452   7.478 -0.0978 -0.2489 -0.0384
 1236loPI   C4A19770   4.545  16.448   7.905 -0.2269  0.1394 -0.0915
 1236loPI   C5A19771   4.711  16.287   8.307  0.1166 -0.1869 -0.1880
 1236loPI   C6A19772   4.904  16.171   8.661  0.0443 -0.3389  0.1479
 1236loPI   C1B19773   5.078  16.777   6.881 -0.1112 -0.1821 -0.2120
 1236loPI   C2B19774   5.087  16.764   7.355 -0.1679  0.0819  0.0077
 1236loPI   C3B19775   4.971  16.849   7.723 -0.0837 -0.0017  0.1693
 1236loPI   C4B19776   4.917  16.733   8.162 -0.0664 -0.1774 -0.0074
 1237loPI    C119777  12.737  10.112   5.472 -0.2053  0.0264 -0.0304
 1237loPI    C219778  12.780  10.193   5.083 -0.0718 -0.0667 -0.0359
 1237loPI    C319779  12.912   9.846   5.230  0.0872  0.0639  0.1348
 1237loPI   PO419780  12.825  10.385   5.621  0.3549  0.0686  0.1772
 1237loPI   GL119781  12.927  10.465   6.145  0.0216  0.2455 -0.1332
 1237loPI   GL219782  12.920  10.794   6.240  0.3429 -0.0896 -0.2166
 1237loPI   C1A19783  12.927  10.430   6.572 -0.0898 -0.0445 -0.0969
 1237loPI   C2A19784  12.944  10.448   7.046 -0.2275 -0.0496 -0.0394
 1237loPI   C3A19785  12.862  10.362   7.361 -0.3077  0.1863 -0.0491
 1237loPI   C4A19786  12.840  10.385   7.808 -0.2737  0.2274  0.1487
 1237loPI   C5A19787  12.983  10.412   8.256  0.1114 -0.1416 -0.0487
 1237loPI   C6A19788  12.734  10.163   8.514 -0.1056 -0.0108  0.0116
 1237loPI   C1B19789  12.864  10.903   6.654  0.1514 -0.1094  0.0315
 1237loPI   C2B19790  12.858  10.974   7.151 -0.2778 -0.2160  0.1632
 1237loPI   C3B19791  12.741  10.871   7.519  0.1530  0.3179  0.0433
 1237loPI   C4B19792  12.806  10.855   7.947  0.2493  0.2509  0.0057
 1238loPI    C119793   5.530  17.478   5.674  0.0049 -0.2243  0.0204
 1238loPI    C219794   5.502  17.845   5.516  0.1338 -0.2512 -0.0666
 1238loPI    C319795   5.518  17.524   5.277 -0.0539 -0.3201  0.0110
 1238loPI   PO419796   5.277  17.397   5.847 -0.1286 -0.2707 -0.1557
 1238loPI   GL119797   5.004  17.280   6.251 -0.0813  0.2903  0.0727
 1238loPI   GL219798   5.340  17.175   6.383 -0.1572 -0.2552 -0.3191
 1238loPI   C1A19799   5.005  17.259   6.742 -0.1251  0.4535  0.0004
 1238loPI   C2A19800   5.024  17.228   7.218 -0.2125 -0.1987  0.2138
 1238loPI   C3A19801   4.998  17.318   7.549  0.1646 -0.2423  0.0750
 1238loPI   C4A19802   4.844  17.274   7.977  0.0628 -0.3055 -0.0831
 1238loPI   C5A19803   4.772  17.295   8.431  0.2403  0.1104  0.0130
 1238loPI   C6A19804   4.848  17.320   8.853  0.3415 -0.1645  0.1041
 1238loPI   C1B19805   5.520  17.092   6.656 -0.1124 -0.1369 -0.2271
 1238loPI   C2B19806   5.444  17.065   7.091  0.2912 -0.1150  0.0257
 1238loPI   C3B19807   5.431  17.039   7.590 -0.3017  0.0332 -0.0041
 1238loPI   C4B19808   5.324  17.043   8.023  0.1532 -0.2038  0.0436
 1239loPI    C119809  15.210   4.918   5.337  0.3150 -0.0507  0.0879
 1239loPI    C219810  15.002   5.213   5.164  0.1379 -0.0865  0.2374
 1239loPI    C319811  15.317   5.053   4.976  0.0416 -0.0194  0.0166
 1239loPI   PO419812  15.289   5.012   5.597  0.0004 -0.0899 -0.0098
 1239loPI   GL119813  15.429   5.233   5.878  0.3060 -0.0579  0.2039
 1239loPI   GL219814  15.174   5.483   5.957 -0.3204 -0.0339  0.2291
 1239loPI   C1A19815  15.633   5.025   6.223 -0.0220  0.0899 -0.3430
 1239loPI   C2A19816  15.562   5.049   6.616 -0.2181 -0.0984  0.0116
 1239loPI   C3A19817  15.633   5.191   6.998  0.2445  0.4134 -0.3191
 1239loPI   C4A19818  15.610   5.211   7.427 -0.0001  0.1621 -0.0117
 1239loPI   C5A19819  15.513   5.137   7.873  0.1182  0.2438  0.1003
 1239loPI   C6A19820  15.597   5.135   8.323  0.1967  0.0989 -0.1442
 1239loPI   C1B19821  15.498   5.482   6.342  0.0376  0.2241  0.2150
 1239loPI   C2B19822  15.508   5.619   6.706 -0.0628  0.2459 -0.1678
 1239loPI   C3B19823  15.461   5.623   7.121 -0.1508 -0.1133 -0.0015
 1239loPI   C4B19824  15.486   5.682   7.546 -0.1910  0.1002 -0.1865
 1240loPI    C119825   3.994   6.319   5.200 -0.0678  0.0253  0.1484
 1240loPI    C219826   3.868   6.697   5.232 -0.0930  0.0316 -0.0184
 1240loPI    C319827   3.766   6.478   4.913  0.0672 -0.0598 -0.0080
 1240loPI   PO419828   4.092   6.328   5.476  0.3456 -0.1283 -0.0780
 1240loPI   GL119829   4.198   6.293   5.914 -0.0374  0.2639 -0.0755
 1240loPI   GL219830   4.214   6.453   6.145 -0.0973  0.0748 -0.0401
 1240loPI   C1A19831   4.125   5.969   6.108  0.0588  0.0902  0.0175
 1240loPI   C2A19832   4.014   5.704   6.418 -0.1701  0.1024  0.0130
 1240loPI   C3A19833   4.059   5.710   6.862 -0.0117 -0.0372 -0.0962
 1240loPI   C4A19834   4.130   5.628   7.314 -0.0163 -0.2398  0.2106
 1240loPI   C5A19835   4.039   5.653   7.672  0.0346  0.2008  0.0429
 1240loPI   C6A19836   4.033   5.718   8.082  0.0506  0.0354  0.1123
 1240loPI   C1B19837   4.342   6.468   6.522  0.3027  0.0765  0.0512
 1240loPI   C2B19838   4.406   6.511   6.952 -0.2913 -0.1639 -0.1029
 1240loPI   C3B19839   4.353   6.461   7.399 -0.0137  0.1351  0.2248
 1240loPI   C4B19840   4.294   6.516   7.760 -0.2342  0.1229  0.1044
 1241loPI    C119841   9.251  16.851   5.837  0.1603  0.2610  0.1832
 1241loPI    C219842   9.471  16.816   5.505 -0.0715  0.0369  0.0491
 1241loPI    C319843   9.163  17.070   5.514 -0.2516 -0.1764 -0.0139
 1241loPI   PO419844   9.426  16.851   6.031  0.1572 -0.0885 -0.0287
 1241loPI   GL119845   9.653  17.161   6.214  0.0632 -0.1372  0.2192
 1241loPI   GL219846   9.514  17.393   6.381 -0.2894  0.0265  0.1159
 1241loPI   C1A19847   9.617  16.930   6.636 -0.1166  0.2869 -0.3160
 1241loPI   C2A19848   9.583  16.900   7.153 -0.2847 -0.1834 -0.0965
 1241loPI   C3A19849   9.650  16.979   7.513  0.1939  0.3571  0.2213
 1241loPI   C4A19850   9.593  17.063   7.818  0.0831 -0.0312  0.2218
 1241loPI   C5A19851   9.588  16.925   8.212 -0.1198 -0.2889  0.3716
 1241loPI   C6A19852   9.793  16.989   8.540 -0.1974 -0.2024  0.0688
 1241loPI   C1B19853   9.585  17.369   6.864 -0.2479  0.0768  0.1233
 1241loPI   C2B19854   9.514  17.376   7.307 -0.0241  0.1788  0.0911
 1241loPI   C3B19855   9.536  17.517   7.663 -0.0329 -0.1855 -0.0696
 1241loPI   C4B19856   9.638  17.482   8.110  0.3765  0.0984  0.1071
 1242loPI    C119857  16.912   6.656   5.500  0.0391 -0.1451 -0.0339
 1242loPI    C219858  16.561   6.599   5.317  0.0317  0.1438 -0.1138
 1242loPI    C319859  16.902   6.563   5.111  0.0391  0.0976 -0.0932
 1242loPI   PO419860  16.896   6.480   5.683  0.2166 -0.1292 -0.1621
 1242loPI   GL119861  16.686   6.483   6.100 -0.0275 -0.0211 -0.1083
 1242loPI   GL219862  16.770   6.241   6.095 -0.1621 -0.0039  0.0285
 1242loPI   C1A19863  16.619   6.529   6.518  0.0712  0.0601  0.3467
 1242loPI   C2A19864  16.677   6.594   6.899 -0.2693 -0.1035  0.1151
 1242loPI   C3A19865  16.690   6.654   7.343 -0.1523 -0.0945  0.0425
 1242loPI   C4A19866  16.577   6.749   7.820  0.1326 -0.3692 -0.0471
 1242loPI   C5A19867  16.460   6.626   8.191  0.0491  0.1071 -0.1400
 1242loPI   C6A19868  16.535   6.701   8.588 -0.2159  0.2458  0.0429
 1242loPI   C1B19869  16.746   6.054   6.463  0.2191 -0.0399 -0.0389
 1242loPI   C2B19870  16.740   6.095   6.872  0.1525  0.3805  0.1572
 1242loPI   C3B19871  16.760   6.167   7.234 -0.0899  0.3866 -0.1293
 1242loPI   C4B19872  16.716   6.184   7.696  0.3375 -0.1485  0.1974
 1243loPI    C119873   8.891   4.111   5.425 -0.0704 -0.1743  0.2506
 1243loPI    C219874   8.796   3.860   5.128 -0.0065  0.0082  0.0736
 1243loPI    C319875   8.635   4.226   5.139 -0.0029  0.0051  0.2615
 1243loPI   PO419876   9.200   4.139   5.448  0.2755  0.2004 -0.0778
 1243loPI   GL119877   9.277   4.153   5.856 -0.1835 -0.1439 -0.1667
 1243loPI   GL219878   9.118   4.314   5.881 -0.3335  0.0145  0.2812
 1243loPI   C1A19879   9.359   4.101   6.274  0.0127 -0.0168 -0.0431
 1243loPI   C2A19880   9.248   4.062   6.743  0.0404 -0.0957  0.1082
 1243loPI   C3A19881   9.203   4.089   7.288  0.1429 -0.5242  0.1319
 1243loPI   C4A19882   9.217   4.003   7.669  0.3421 -0.2425  0.0713
 1243loPI   C5A19883   9.223   3.648   7.939  0.2315 -0.4664 -0.0138
 1243loPI   C6A19884   9.370   3.196   8.085 -0.3127  0.0111 -0.0513
 1243loPI   C1B19885   8.903   4.308   6.244 -0.2363 -0.1897  0.0602
 1243loPI   C2B19886   8.823   4.327   6.692 -0.1303  0.2697 -0.0532
 1243loPI   C3B19887   8.781   4.252   7.166 -0.2661  0.2630  0.1931
 1243loPI   C4B19888   8.784   4.248   7.579  0.1019  0.2005  0.2464
 1244loPI    C119889   9.587  15.570   5.791  0.1125 -0.1208  0.1555
 1244loPI    C219890   9.746  15.624   5.428 -0.0178 -0.2103  0.0843
 1244loPI    C319891   9.564  15.928   5.614  0.0008 -0.1788  0.0511
 1244loPI   PO419892   9.727  15.375   5.951 -0.1723 -0.1524  0.0581
 1244loPI   GL119893   9.896  15.351   6.338  0.3618 -0.2063 -0.3820
 1244loPI   GL219894  10.190  15.636   6.368 -0.2981  0.1807 -0.3048
 1244loPI   C1A19895   9.658  15.345   6.712 -0.0237 -0.0598  0.1861
 1244loPI   C2A19896   9.855  15.399   7.035 -0.1920  0.1193 -0.0304
 1244loPI   C3A19897   9.846  15.518   7.433 -0.0474  0.2237  0.3029
 1244loPI   C4A19898   9.827  15.457   7.868  0.1875 -0.0035 -0.0677
 1244loPI   C5A19899   9.675  15.663   8.283 -0.1772 -0.4406 -0.1625
 1244loPI   C6A19900   9.564  15.791   8.685 -0.0315  0.1242 -0.2905
 1244loPI   C1B19901  10.181  15.729   6.821 -0.4449 -0.1055  0.0088
 1244loPI   C2B19902  10.187  15.826   7.248  0.1601 -0.1369 -0.2096
 1244loPI   C3B19903  10.279  15.823   7.626  0.1431  0.2841  0.0999
 1244loPI   C4B19904  10.241  15.687   8.047  0.1547 -0.0186 -0.0729
 1245loPI    C119905  16.227  11.448   5.902 -0.1038 -0.2076 -0.0531
 1245loPI    C219906  16.208  11.445   5.502 -0.2499 -0.2826 -0.0463
 1245loPI    C319907  15.876  11.503   5.717 -0.1284  0.0318  0.0615
 1245loPI   PO419908  16.346  11.268   5.947 -0.1170  0.1151 -0.0794
 1245loPI   GL119909  16.418  11.006   6.406 -0.0639 -0.0269  0.2716
 1245loPI   GL219910  16.751  11.140   6.416 -0.0631 -0.1070  0.0528
 1245loPI   C1A19911  16.398  11.023   6.852 -0.1641 -0.2242 -0.2028
 1245loPI   C2A19912  16.398  10.957   7.247 -0.0575 -0.0440  0.1193
 1245loPI   C3A19913  16.394  11.018   7.696  0.1384  0.4583 -0.2045
 1245loPI   C4A19914  16.371  11.117   8.137 -0.0736 -0.0138  0.1177
 1245loPI   C5A19915  16.293  11.051   8.491 -0.1334  0.1681  0.0334
 1245loPI   C6A19916  16.328  11.378   8.834 -0.3336 -0.3529 -0.0576
 1245loPI   C1B19917  16.901  11.350   6.708 -0.0930  0.0074 -0.0210
 1245loPI   C2B19918  16.863  11.386   7.153 -0.0886 -0.2770  0.0121
 1245loPI   C3B19919  16.817  11.349   7.587 -0.2609  0.0373 -0.1516
 1245loPI   C4B19920  16.806  11.291   8.007 -0.0731  0.0948  0.0809
 1246loPI    C119921   8.689   8.385   5.676 -0.1722 -0.0851  0.1009
 1246loPI    C219922   8.761   8.076   5.919  0.3584  0.0651  0.1477
 1246loPI    C319923   8.838   8.045   5.528 -0.3337 -0.1182  0.0119
 1246loPI   PO419924   8.860   8.595   5.803 -0.0217  0.2289  0.0473
 1246loPI   GL119925   9.023   8.443   6.136  0.2204  0.0709  0.0088
 1246loPI   GL219926   9.270   8.582   6.219  0.1938 -0.1453  0.0607
 1246loPI   C1A19927   8.719   8.221   6.490  0.2886 -0.0415 -0.4190
 1246loPI   C2A19928   8.734   8.153   6.862 -0.0800 -0.1246  0.1118
 1246loPI   C3A19929   8.720   8.181   7.300 -0.1844  0.0856  0.2086
 1246loPI   C4A19930   8.707   8.130   7.644 -0.1075 -0.0844  0.0805
 1246loPI   C5A19931   8.692   8.120   8.082  0.0273  0.0965 -0.1706
 1246loPI   C6A19932   8.392   7.897   8.278 -0.0652 -0.2427 -0.0045
 1246loPI   C1B19933   9.118   8.640   6.588 -0.1922 -0.0589  0.0750
 1246loPI   C2B19934   9.135   8.556   7.053 -0.2952 -0.0855  0.0734
 1246loPI   C3B19935   9.124   8.427   7.522  0.3248  0.1698 -0.0987
 1246loPI   C4B19936   9.030   8.496   7.893  0.0514 -0.3080 -0.1283
 1247loPI    C119937  14.775  11.312   5.674 -0.1506 -0.1393 -0.2138
 1247loPI    C219938  14.857  11.699   5.737  0.0422 -0.2213  0.0611
 1247loPI    C319939  14.830  11.558   5.363 -0.0315  0.0560 -0.0408
 1247loPI   PO419940  14.976  11.255   5.904  0.1786  0.2227  0.0656
 1247loPI   GL119941  15.117  11.467   6.239 -0.1111  0.2765 -0.1155
 1247loPI   GL219942  15.458  11.342   6.303 -0.0839 -0.3217  0.0408
 1247loPI   C1A19943  15.099  11.621   6.600 -0.0124 -0.0615  0.0164
 1247loPI   C2A19944  15.042  11.577   6.997 -0.0918 -0.0167 -0.1885
 1247loPI   C3A19945  15.035  11.664   7.476 -0.6041  0.0784 -0.2945
 1247loPI   C4A19946  15.005  11.702   7.863  0.0944 -0.0030  0.0810
 1247loPI   C5A19947  14.905  11.871   8.307 -0.0894 -0.0842 -0.2409
 1247loPI   C6A19948  14.674  12.226   8.336 -0.0584  0.0125 -0.0759
 1247loPI   C1B19949  15.585  11.435   6.714  0.1348  0.0827 -0.1063
 1247loPI   C2B19950  15.465  11.396   7.092 -0.3413 -0.0303 -0.0888
 1247loPI   C3B19951  15.446  11.382   7.611  0.2051  0.0202  0.2742
 1247loPI   C4B19952  15.448  11.543   8.052  0.0638  0.1733 -0.1233
 1248loPI    C119953   3.512  14.662   5.546 -0.0152 -0.1403 -0.0365
 1248loPI    C219954   3.791  14.901   5.388 -0.2198  0.1276 -0.0005
 1248loPI    C319955   3.582  14.655   5.152  0.0088 -0.0378 -0.0344
 1248loPI   PO419956   3.625  14.511   5.732 -0.0970  0.0902 -0.0143
 1248loPI   GL119957   3.895  14.459   6.090  0.3943  0.0855 -0.2696
 1248loPI   GL219958   3.687  14.618   6.229  0.1581  0.0187 -0.3747
 1248loPI   C1A19959   4.220  14.341   6.402  0.2309  0.0107  0.0035
 1248loPI   C2A19960   4.284  14.343   6.767 -0.3322  0.0197  0.0234
 1248loPI   C3A19961   4.223  14.343   7.140  0.4240 -0.1371 -0.0231
 1248loPI   C4A19962   4.148  14.242   7.572  0.2278 -0.2028  0.1292
 1248loPI   C5A19963   4.089  14.283   8.014 -0.5575  0.6732 -0.1187
 1248loPI   C6A19964   4.306  14.232   8.324 -0.0738  0.0496  0.2015
 1248loPI   C1B19965   3.645  14.509   6.598 -0.3864 -0.1850 -0.0395
 1248loPI   C2B19966   3.798  14.461   6.909 -0.0104  0.1688 -0.1615
 1248loPI   C3B19967   3.743  14.335   7.321  0.0753 -0.2912 -0.0639
 1248loPI   C4B19968   3.622  14.396   7.784 -0.2608 -0.2250 -0.2762
 1249loPI    C119969   9.648   7.028   5.380 -0.2508  0.0044 -0.0505
 1249loPI    C219970   9.488   7.382   5.288 -0.2375 -0.0041 -0.1068
 1249loPI    C319971   9.523   7.100   5.007  0.0302  0.0566 -0.1367
 1249loPI   PO419972   9.575   7.039   5.623  0.5586  0.0269 -0.0990
 1249loPI   GL119973   9.682   7.072   6.023 -0.1632  0.0320  0.4901
 1249loPI   GL219974   9.864   7.330   6.181  0.0129  0.1611  0.1316
 1249loPI   C1A19975   9.887   6.883   6.427 -0.0327  0.1975  0.1718
 1249loPI   C2A19976   9.910   6.732   6.892  0.0975 -0.0343  0.2763
 1249loPI   C3A19977   9.795   6.801   7.322  0.0101  0.2126 -0.2662
 1249loPI   C4A19978   9.841   6.830   7.732  0.1191 -0.1012  0.2710
 1249loPI   C5A19979   9.809   6.701   8.111  0.0322  0.1911 -0.0864
 1249loPI   C6A19980  10.215   6.658   8.427  0.2687 -0.1296  0.3740
 1249loPI   C1B19981   9.689   7.368   6.466 -0.2946  0.3503  0.1430
 1249loPI   C2B19982   9.743   7.325   6.847  0.3717 -0.0094  0.2853
 1249loPI   C3B19983   9.725   7.328   7.280  0.0630 -0.2911 -0.2764
 1249loPI   C4B19984   9.883   7.376   7.705  0.1282  0.1110  0.1567
 1250loPI    C119985  16.059   1.379   5.404 -0.2833  0.0591  0.0409
 1250loPI    C219986  16.246   1.535   5.086  0.1477  0.0188  0.2673
 1250loPI    C319987  16.017   1.210   5.043  0.0235  0.1433 -0.0379
 1250loPI   PO419988  16.060   1.670   5.533  0.3483  0.1392  0.1614
 1250loPI   GL119989  16.137   1.844   5.938  0.0136  0.1586  0.0893
 1250loPI   GL219990  16.014   1.723   6.103  0.0440 -0.0401  0.0326
 1250loPI   C1A19991  16.034   2.123   6.309  0.0999  0.1183 -0.1950
 1250loPI   C2A19992  16.046   2.123   6.717  0.5044  0.2065  0.1120
 1250loPI   C3A19993  15.991   2.083   7.218  0.0319 -0.0732 -0.1822
 1250loPI   C4A19994  15.960   2.066   7.585 -0.0944  0.0833 -0.0750
 1250loPI   C5A19995  15.868   2.083   8.023 -0.1094 -0.3005  0.1864
 1250loPI   C6A19996  15.800   2.050   8.518  0.2513  0.0880  0.2252
 1250loPI   C1B19997  16.071   1.576   6.401  0.1564 -0.2937 -0.2945
 1250loPI   C2B19998  16.093   1.568   6.786  0.3049  0.1334  0.0318
 1250loPI   C3B19999  16.094   1.551   7.114 -0.1419  0.0149 -0.2292
 1250loPI   C4B20000  16.097   1.605   7.568 -0.1596  0.2838 -0.2565
 1251loPI    C120001   0.463   2.739   5.683 -0.3001  0.1161 -0.0259
 1251loPI    C220002   0.776   2.632   5.458 -0.3215 -0.1768  0.0791
 1251loPI    C320003   0.510   2.896   5.318  0.1233  0.2987  0.1007
 1251loPI   PO420004   0.598   2.747   5.953 -0.0190  0.2745  0.1455
 1251loPI   GL120005   0.383   2.623   6.352  0.2963 -0.0600  0.2025
 1251loPI   GL220006   0.149   2.415   6.442  0.0963  0.3387 -0.1867
 1251loPI   C1A20007   0.399   2.634   6.900 -0.0357 -0.1794 -0.0042
 1251loPI   C2A20008   0.378   2.635   7.397 -0.1775 -0.0957  0.2332
 1251loPI   C3A20009   0.352   2.801   7.756  0.0572  0.0457  0.0763
 1251loPI   C4A20010   0.437   2.798   8.243 -0.0628  0.3153  0.2424
 1251loPI   C5A20011   0.152   2.717   8.630  0.0734 -0.4211  0.3283
 1251loPI   C6A20012  -0.231   2.809   8.819  0.0220  0.0499 -0.2211
 1251loPI   C1B20013  -0.047   2.332   6.868  0.4290 -0.1088 -0.2312
 1251loPI   C2B20014  -0.077   2.323   7.291  0.1669  0.0044 -0.1478
 1251loPI   C3B20015  -0.017   2.447   7.715  0.5825  0.1124 -0.1244
 1251loPI   C4B20016   0.005   2.472   8.145 -0.2435 -0.1080 -0.0372
 1252loPI    C120017   5.163  10.740   5.408  0.1858  0.2168 -0.0040
 1252loPI    C220018   5.247  10.469   5.126 -0.0909  0.1125  0.0103
 1252loPI    C320019   5.214  10.856   5.029 -0.2297  0.0712 -0.1097
 1252loPI   PO420020   5.120  10.486   5.606 -0.0769 -0.1994  0.0663
 1252loPI   GL120021   5.117  10.224   6.056  0.0430  0.1979  0.1420
 1252loPI   GL220022   5.390  10.044   6.144  0.0089  0.1186 -0.1852
 1252loPI   C1A20023   5.224  10.467   6.416  0.2381 -0.3048  0.0605
 1252loPI   C2A20024   5.253  10.525   6.838  0.2281 -0.0892  0.1594
 1252loPI   C3A20025   5.103  10.472   7.181  0.0469 -0.1916 -0.0935
 1252loPI   C4A20026   5.144  10.491   7.636 -0.0359 -0.3020  0.1039
 1252loPI   C5A20027   5.089  10.484   8.154  0.0927  0.0431 -0.1067
 1252loPI   C6A20028   4.861  10.277   8.503 -0.0530  0.2664  0.2875
 1252loPI   C1B20029   5.286   9.999   6.617 -0.3423 -0.1077 -0.2403
 1252loPI   C2B20030   5.326  10.023   7.008 -0.0359 -0.1283 -0.3314
 1252loPI   C3B20031   5.157  10.002   7.428  0.0470  0.1955  0.0471
 1252loPI   C4B20032   5.216  10.018   7.837  0.1495 -0.2845  0.2249
 1253loPI    C120033   9.167  14.675   5.522  0.4221  0.0363 -0.0891
 1253loPI    C220034   9.391  14.357   5.430 -0.1119 -0.3019 -0.2673
 1253loPI    C320035   9.096  14.470   5.186 -0.2325  0.0467  0.0312
 1253loPI   PO420036   9.075  14.647   5.702 -0.0158 -0.1939 -0.1703
 1253loPI   GL120037   9.099  14.831   6.186 -0.0769 -0.1314 -0.0529
 1253loPI   GL220038   8.939  14.544   6.266  0.2212 -0.0501 -0.1243
 1253loPI   C1A20039   9.262  14.997   6.495 -0.3301  0.0428  0.1589
 1253loPI   C2A20040   9.317  15.055   6.950 -0.1386  0.3728 -0.1503
 1253loPI   C3A20041   9.499  15.140   7.278  0.1234  0.0048  0.2765
 1253loPI   C4A20042   9.421  15.150   7.701  0.2995  0.0236  0.2619
 1253loPI   C5A20043   9.451  15.126   8.140  0.0459 -0.2943 -0.1794
 1253loPI   C6A20044   9.453  15.136   8.604 -0.0619 -0.1163  0.0320
 1253loPI   C1B20045   9.031  14.627   6.709 -0.0984  0.0476 -0.0554
 1253loPI   C2B20046   9.010  14.721   7.146 -0.0859  0.0400 -0.0841
 1253loPI   C3B20047   9.057  14.802   7.541 -0.2683  0.0432  0.1078
 1253loPI   C4B20048   9.085  14.758   7.986 -0.0279 -0.0862  0.1694
 1254loPI    C120049  11.694   7.137   5.657 -0.1935 -0.0356  0.0596
 1254loPI    C220050  11.955   6.862   5.529 -0.1157 -0.0139  0.1699
 1254loPI    C320051  11.825   7.147   5.280 -0.1999 -0.1525  0.0539
 1254loPI   PO420052  11.767   7.323   5.841 -0.1451  0.0916  0.1092
 1254loPI   GL120053  11.833   7.444   6.279 -0.0127 -0.0932 -0.0145
 1254loPI   GL220054  11.662   7.646   6.449  0.4922  0.2056  0.1057
 1254loPI   C1A20055  12.045   7.348   6.653  0.0136  0.0167  0.1610
 1254loPI   C2A20056  12.005   7.393   7.042  0.1393  0.1631 -0.0909
 1254loPI   C3A20057  11.986   7.338   7.448 -0.0810 -0.1288 -0.2213
 1254loPI   C4A20058  12.035   7.283   7.876  0.1257 -0.1963  0.4078
 1254loPI   C5A20059  11.994   7.227   8.259 -0.1396  0.1448 -0.0837
 1254loPI   C6A20060  12.312   7.126   8.572  0.1040 -0.0160 -0.1641
 1254loPI   C1B20061  11.552   7.634   6.868 -0.2077  0.0910  0.2496
 1254loPI   C2B20062  11.546   7.466   7.284  0.0764  0.1071 -0.2128
 1254loPI   C3B20063  11.466   7.566   7.684  0.0490 -0.0689  0.0802
 1254loPI   C4B20064  11.604   7.545   8.105  0.0334  0.1524  0.4069
 1255loPI    C120065   8.506  17.767   5.358  0.0939  0.2607 -0.1038
 1255loPI    C220066   8.175  17.690   5.147  0.1363 -0.1750 -0.0192
 1255loPI    C320067   8.535  17.620   4.987  0.1837  0.0641 -0.0202
 1255loPI   PO420068   8.402  17.670   5.624 -0.2619 -0.0188  0.3993
 1255loPI   GL120069   8.281  17.511   6.027 -0.1357  0.1331  0.1155
 1255loPI   GL220070   8.579  17.325   6.218 -0.2491  0.0118  0.0811
 1255loPI   C1A20071   8.158  17.587   6.460 -0.2750  0.2365 -0.1191
 1255loPI   C2A20072   8.192  17.535   6.946 -0.0053 -0.4168 -0.0044
 1255loPI   C3A20073   8.146  17.523   7.391  0.3190 -0.2176  0.0045
 1255loPI   C4A20074   8.207  17.578   7.845  0.2335  0.2466 -0.0545
 1255loPI   C5A20075   8.303  17.633   8.249 -0.1747  0.1634  0.1623
 1255loPI   C6A20076   8.699  17.839   8.403 -0.1095 -0.2268 -0.2212
 1255loPI   C1B20077   8.603  17.386   6.672  0.1427 -0.0210 -0.0739
 1255loPI   C2B20078   8.629  17.325   7.092 -0.0902  0.0029 -0.1610
 1255loPI   C3B20079   8.644  17.372   7.574  0.1735  0.0457  0.1150
 1255loPI   C4B20080   8.706  17.417   7.967  0.0933 -0.1447  0.2397
 1256loPI    C120081  13.919   8.484   5.359 -0.0736  0.0853 -0.3183
 1256loPI    C220082  14.203   8.484   5.077  0.0620  0.0439 -0.1834
 1256loPI    C320083  13.847   8.318   5.002 -0.0111  0.3057 -0.4353
 1256loPI   PO420084  13.995   8.437   5.540 -0.2163  0.2909  0.1348
 1256loPI   GL120085  13.938   8.480   5.933 -0.0021  0.1722  0.0361
 1256loPI   GL220086  13.700   8.634   6.089  0.2858  0.0384 -0.0103
 1256loPI   C1A20087  14.150   8.578   6.328 -0.1626 -0.0249  0.1771
 1256loPI   C2A20088  14.065   8.597   6.738 -0.1715 -0.2461 -0.2097
 1256loPI   C3A20089  14.098   8.487   7.131 -0.1639 -0.1145  0.4247
 1256loPI   C4A20090  14.007   8.504   7.571  0.1277 -0.0192 -0.0734
 1256loPI   C5A20091  14.047   8.526   7.878 -0.2505 -0.1114 -0.2194
 1256loPI   C6A20092  13.767   8.372   8.148  0.2304 -0.0220  0.3395
 1256loPI   C1B20093  13.632   8.748   6.546 -0.1546  0.2163 -0.0850
 1256loPI   C2B20094  13.602   8.658   6.989  0.1382  0.1480  0.0654
 1256loPI   C3B20095  13.571   8.675   7.383  0.3510 -0.0598 -0.1263
 1256loPI   C4B20096  13.608   8.676   7.810  0.1421  0.0519 -0.0923
 1257loPI    C120097  16.157   3.395   5.345 -0.0161 -0.2088  0.1190
 1257loPI    C220098  16.245   3.774   5.253  0.0671 -0.2242  0.1350
 1257loPI    C320099  16.522   3.488   5.211 -0.1131 -0.3476 -0.2539
 1257loPI   PO420100  15.994   3.355   5.543 -0.2844 -0.2795  0.3152
 1257loPI   GL120101  15.946   3.379   5.935  0.0367  0.1064  0.3899
 1257loPI   GL220102  16.264   3.304   6.088 -0.3242 -0.0104 -0.3854
 1257loPI   C1A20103  15.862   3.526   6.393 -0.1668 -0.1047  0.0098
 1257loPI   C2A20104  15.767   3.614   6.799 -0.1161 -0.0462 -0.1447
 1257loPI   C3A20105  15.793   3.564   7.221 -0.3775 -0.2657  0.2696
 1257loPI   C4A20106  15.719   3.686   7.666 -0.2223 -0.2677  0.2189
 1257loPI   C5A20107  15.700   3.629   8.169  0.0501  0.0112 -0.1369
 1257loPI   C6A20108  15.666   3.464   8.613 -0.2307  0.1392  0.0633
 1257loPI   C1B20109  16.337   3.374   6.496 -0.2114 -0.0464 -0.1842
 1257loPI   C2B20110  16.219   3.409   6.932  0.1137  0.1484  0.1885
 1257loPI   C3B20111  16.234   3.426   7.361  0.0061  0.2017  0.2642
 1257loPI   C4B20112  16.171   3.397   7.800 -0.2323  0.2075 -0.2880
 1258loPI    C120113   7.559   4.579   5.228  0.1096 -0.1737  0.2723
 1258loPI    C220114   7.277   4.322   5.107  0.0166 -0.0604  0.2470
 1258loPI    C320115   7.659   4.266   4.999 -0.0711  0.0643 -0.1422
 1258loPI   PO420116   7.532   4.590   5.471  0.4425  0.0620 -0.0860
 1258loPI   GL120117   7.324   4.565   5.907 -0.0605 -0.1534  0.1211
 1258loPI   GL220118   7.408   4.917   5.904 -0.5569  0.3941  0.0390
 1258loPI   C1A20119   7.489   4.423   6.316 -0.1278 -0.1185 -0.0722
 1258loPI   C2A20120   7.437   4.349   6.836 -0.0961 -0.1433 -0.0496
 1258loPI   C3A20121   7.389   4.408   7.262  0.0038 -0.2999 -0.0393
 1258loPI   C4A20122   7.346   4.443   7.718 -0.0271 -0.1408  0.2572
 1258loPI   C5A20123   7.424   4.452   8.125  0.3680 -0.4438 -0.0480
 1258loPI   C6A20124   7.476   4.677   8.537  0.0567 -0.0239  0.0721
 1258loPI   C1B20125   7.359   4.906   6.315  0.0719 -0.0681 -0.0312
 1258loPI   C2B20126   7.455   4.930   6.754  0.0723 -0.0679  0.1286
 1258loPI   C3B20127   7.380   4.896   7.172 -0.0200 -0.0176 -0.3586
 1258loPI   C4B20128   7.301   4.908   7.591  0.0380  0.1084  0.1824
 1259loPI    C120129   6.083  15.121   5.581  0.1736  0.2139  0.1131
 1259loPI    C220130   6.348  15.161   5.285 -0.2862  0.4036 -0.2870
 1259loPI    C320131   5.985  15.011   5.209 -0.3165  0.1897  0.2418
 1259loPI   PO420132   6.104  15.321   5.802  0.0245 -0.1671  0.3342
 1259loPI   GL120133   6.147  15.275   6.192  0.2096 -0.0521 -0.3728
 1259loPI   GL220134   6.292  15.411   6.428  0.1492  0.1692 -0.1011
 1259loPI   C1A20135   5.830  15.593   6.488 -0.5132  0.0016  0.2423
 1259loPI   C2A20136   5.760  15.628   6.936  0.3204 -0.1870  0.2390
 1259loPI   C3A20137   5.680  15.501   7.477 -0.3410 -0.0870 -0.0525
 1259loPI   C4A20138   5.694  15.641   7.907  0.0409 -0.0904 -0.0076
 1259loPI   C5A20139   5.750  15.588   8.293  0.0051 -0.2810 -0.0526
 1259loPI   C6A20140   5.864  15.735   8.704 -0.1794  0.0405 -0.0304
 1259loPI   C1B20141   6.217  15.377   6.839 -0.2784  0.1679 -0.0559
 1259loPI   C2B20142   6.274  15.337   7.283 -0.0755 -0.0264 -0.0585
 1259loPI   C3B20143   6.164  15.310   7.732  0.1685  0.2652  0.3684
 1259loPI   C4B20144   6.198  15.397   8.167 -0.0546  0.0046 -0.2455
 1260loPI    C120145  10.482  14.966   5.567 -0.1936  0.0444 -0.0988
 1260loPI    C220146  10.790  15.107   5.353 -0.0713 -0.1241 -0.0355
 1260loPI    C320147  10.418  15.127   5.206 -0.0366  0.1200 -0.0937
 1260loPI   PO420148  10.622  15.042   5.845 -0.0073 -0.1210 -0.2185
 1260loPI   GL120149  10.424  15.121   6.315 -0.0036 -0.1156  0.3871
 1260loPI   GL220150  10.511  14.776   6.260  0.1984  0.2359 -0.0971
 1260loPI   C1A20151  10.299  15.267   6.752  0.3577  0.2374  0.1738
 1260loPI   C2A20152  10.331  15.302   7.147 -0.0383 -0.1265  0.1113
 1260loPI   C3A20153  10.307  15.314   7.551  0.0098 -0.0359 -0.1927
 1260loPI   C4A20154  10.269  15.191   7.937 -0.4154  0.2279 -0.2143
 1260loPI   C5A20155   9.980  15.272   8.299 -0.1018 -0.2341 -0.0613
 1260loPI   C6A20156   9.950  15.519   8.726 -0.0102  0.1584  0.0858
 1260loPI   C1B20157  10.488  14.605   6.613 -0.2326 -0.1889  0.3050
 1260loPI   C2B20158  10.429  14.663   7.019 -0.1119  0.0423  0.0630
 1260loPI   C3B20159  10.351  14.641   7.368  0.1936  0.1678  0.1632
 1260loPI   C4B20160  10.330  14.706   7.834 -0.5163 -0.1260 -0.1988
 1261loPI    C120161  10.219  16.765   5.508  0.0878 -0.0553  0.1486
 1261loPI    C220162  10.235  16.984   5.174  0.1516  0.0099  0.1939
 1261loPI    C320163   9.887  16.830   5.296  0.1383 -0.0611  0.0674
 1261loPI   PO420164  10.349  16.843   5.657 -0.0308  0.0685  0.1438
 1261loPI   GL120165  10.346  16.878   6.066 -0.1070 -0.0646  0.1835
 1261loPI   GL220166  10.455  16.625   6.229 -0.1479  0.1260  0.0072
 1261loPI   C1A20167  10.478  17.036   6.455 -0.1376 -0.0198 -0.3529
 1261loPI   C2A20168  10.455  17.109   6.867 -0.0625 -0.1624  0.3278
 1261loPI   C3A20169  10.486  17.143   7.313  0.0309 -0.2348 -0.2284
 1261loPI   C4A20170  10.521  17.248   7.741 -0.1764  0.2326 -0.3134
 1261loPI   C5A20171  10.724  17.125   8.146  0.0213 -0.3198  0.4834
 1261loPI   C6A20172  10.701  16.972   8.489  0.1522 -0.1643  0.2116
 1261loPI   C1B20173  10.446  16.607   6.717  0.0910  0.0819  0.1619
 1261loPI   C2B20174  10.517  16.540   7.173  0.0537  0.0381  0.1328
 1261loPI   C3B20175  10.578  16.681   7.565  0.3501 -0.1175 -0.1563
 1261loPI   C4B20176  10.627  16.601   7.999  0.3766  0.1225 -0.0991
 1262loPI    C120177  12.108  15.400   5.708 -0.2260 -0.1568 -0.0279
 1262loPI    C220178  12.348  15.553   5.427 -0.2149  0.1230  0.1297
 1262loPI    C320179  12.009  15.368   5.322 -0.0783 -0.0130 -0.0789
 1262loPI   PO420180  12.129  15.603   5.848  0.0479  0.0267 -0.0803
 1262loPI   GL120181  12.083  15.554   6.331  0.0009 -0.3534  0.0164
 1262loPI   GL220182  11.874  15.275   6.335  0.3450 -0.1839  0.0203
 1262loPI   C1A20183  12.076  15.522   6.738 -0.2244  0.2902  0.1168
 1262loPI   C2A20184  12.193  15.483   7.222  0.0566  0.0697 -0.2419
 1262loPI   C3A20185  12.096  15.557   7.571  0.2713 -0.2356  0.2349
 1262loPI   C4A20186  12.072  15.449   7.971 -0.3688 -0.0414  0.1529
 1262loPI   C5A20187  11.868  15.515   8.337 -0.0766  0.1138 -0.0273
 1262loPI   C6A20188  11.664  15.230   8.644 -0.3849  0.0787 -0.3469
 1262loPI   C1B20189  11.727  15.151   6.829  0.0079  0.1861 -0.3578
 1262loPI   C2B20190  11.734  15.147   7.318 -0.0389  0.2082  0.0433
 1262loPI   C3B20191  11.639  15.137   7.696  0.0222 -0.0426 -0.2043
 1262loPI   C4B20192  11.603  15.164   8.151  0.0140 -0.0903 -0.0610
 1263loPI    C120193  10.684  12.782   5.652  0.1649 -0.0728 -0.0485
 1263loPI    C220194  10.529  12.455   5.483  0.1070 -0.0621 -0.0162
 1263loPI    C320195  10.293  12.766   5.571  0.1664 -0.0012 -0.0708
 1263loPI   PO420196  10.791  12.741   5.880 -0.4045 -0.0091  0.0893
 1263loPI   GL120197  10.868  12.773   6.246  0.0789 -0.1079 -0.2444
 1263loPI   GL220198  10.638  12.655   6.411  0.2188  0.0166  0.2114
 1263loPI   C1A20199  10.785  13.075   6.600  0.5130 -0.0088  0.2184
 1263loPI   C2A20200  10.662  13.153   7.054 -0.1707 -0.0984 -0.1318
 1263loPI   C3A20201  10.653  13.190   7.438  0.3328  0.1578  0.0071
 1263loPI   C4A20202  10.564  13.131   7.809  0.1361 -0.1030 -0.0668
 1263loPI   C5A20203  10.268  13.154   8.188  0.0598 -0.0447 -0.1519
 1263loPI   C6A20204  10.323  13.301   8.683 -0.2185 -0.1286  0.2678
 1263loPI   C1B20205  10.824  12.597   6.760 -0.4296 -0.3670  0.0652
 1263loPI   C2B20206  10.829  12.709   7.171 -0.0755  0.1048 -0.1616
 1263loPI   C3B20207  10.727  12.708   7.563 -0.2293 -0.1339 -0.2189
 1263loPI   C4B20208  10.550  12.696   8.015  0.1979  0.1922 -0.2380
 1264loPI    C120209  17.639   9.848   5.673  0.0427 -0.0516 -0.0583
 1264loPI    C220210  17.332   9.653   5.506 -0.0652  0.0305  0.0426
 1264loPI    C320211  17.654   9.745   5.287 -0.0747 -0.1335 -0.0416
 1264loPI   PO420212  17.552   9.973   5.846 -0.0548 -0.0328  0.1314
 1264loPI   GL120213  17.630  10.172   6.274  0.1036  0.0886 -0.0415
 1264loPI   GL220214  17.310  10.248   6.197  0.0258  0.0057 -0.0544
 1264loPI   C1A20215  17.529  10.150   6.682  0.0473  0.2101  0.2005
 1264loPI   C2A20216  17.491  10.161   7.066  0.0479 -0.0793 -0.0989
 1264loPI   C3A20217  17.417  10.169   7.558  0.2382  0.0543  0.2877
 1264loPI   C4A20218  17.321  10.216   7.949  0.0397  0.0766  0.0761
 1264loPI   C5A20219  17.192  10.405   8.210 -0.1149  0.0156  0.0850
 1264loPI   C6A20220  17.260  10.910   8.217 -0.1210  0.0537  0.0895
 1264loPI   C1B20221  17.039  10.308   6.539 -0.1225 -0.0102  0.1085
 1264loPI   C2B20222  17.048  10.363   6.947  0.0812 -0.0030 -0.0358
 1264loPI   C3B20223  16.873  10.321   7.336  0.1222 -0.1949 -0.1339
 1264loPI   C4B20224  16.887  10.353   7.732 -0.1732 -0.3117  0.0235
 1265loPI    C120225   2.266  15.182   5.959  0.0182 -0.0665 -0.0859
 1265loPI    C220226   2.173  15.468   5.696 -0.3771 -0.0816  0.0298
 1265loPI    C320227   2.122  15.083   5.599  0.0379 -0.1145 -0.0808
 1265loPI   PO420228   2.429  15.299   6.087  0.1465 -0.0918 -0.1232
 1265loPI   GL120229   2.720  15.191   6.414  0.1275 -0.1019  0.2481
 1265loPI   GL220230   2.658  14.901   6.586  0.0874  0.2191  0.1552
 1265loPI   C1A20231   2.669  15.392   6.842 -0.1884 -0.4669  0.0490
 1265loPI   C2A20232   2.604  15.340   7.245  0.0874 -0.1722 -0.0018
 1265loPI   C3A20233   2.553  15.410   7.780  0.0810  0.0433 -0.2162
 1265loPI   C4A20234   2.524  15.336   8.220  0.3271  0.0125  0.1354
 1265loPI   C5A20235   2.360  15.490   8.536  0.1263  0.0019  0.1739
 1265loPI   C6A20236   2.374  15.576   9.007  0.2084  0.0959 -0.0686
 1265loPI   C1B20237   2.723  14.837   6.947  0.1933 -0.0150  0.3711
 1265loPI   C2B20238   2.685  14.842   7.295 -0.1366  0.0785  0.4343
 1265loPI   C3B20239   2.675  14.820   7.674  0.0338 -0.2760  0.2225
 1265loPI   C4B20240   2.656  14.852   8.053 -0.0238 -0.0055  0.0211
 1266loPI    C120241   4.905  14.139   5.623 -0.1570 -0.3074  0.1998
 1266loPI    C220242   4.813  14.240   5.247  0.0410  0.1296  0.2623
 1266loPI    C320243   5.139  14.020   5.320 -0.0502 -0.0377  0.1736
 1266loPI   PO420244   4.937  14.251   5.748  0.2561  0.0114 -0.0678
 1266loPI   GL120245   4.838  14.050   6.174 -0.0634  0.0425  0.1929
 1266loPI   GL220246   5.147  14.216   6.170  0.0689  0.0559 -0.2095
 1266loPI   C1A20247   4.659  14.114   6.588 -0.2165 -0.1093  0.0981
 1266loPI   C2A20248   4.747  14.097   6.995  0.0874  0.3007 -0.3050
 1266loPI   C3A20249   4.608  14.050   7.421 -0.0833  0.0028 -0.0948
 1266loPI   C4A20250   4.565  14.049   7.936 -0.0552  0.0307 -0.0899
 1266loPI   C5A20251   4.627  13.874   8.227 -0.0363  0.0765 -0.1381
 1266loPI   C6A20252   4.606  13.447   8.268 -0.3313 -0.0979  0.0928
 1266loPI   C1B20253   5.154  14.418   6.523 -0.0906  0.1847 -0.0188
 1266loPI   C2B20254   5.096  14.405   6.924 -0.0070 -0.0675 -0.3294
 1266loPI   C3B20255   5.011  14.431   7.389  0.2327 -0.1530 -0.1198
 1266loPI   C4B20256   4.975  14.347   7.798 -0.0413  0.2228  0.1623
 1267loPI    C120257   5.280   1.704   5.516 -0.3597 -0.0891 -0.0135
 1267loPI    C220258   5.409   1.684   5.138  0.0445 -0.0819  0.1198
 1267loPI    C320259   5.374   2.039   5.319  0.2212 -0.1090  0.2099
 1267loPI   PO420260   5.387   1.567   5.651 -0.0677 -0.0146  0.2251
 1267loPI   GL120261   5.296   1.667   6.099 -0.3356  0.2553 -0.1429
 1267loPI   GL220262   5.138   1.432   6.283 -0.1227 -0.0532  0.0179
 1267loPI   C1A20263   5.559   1.660   6.476  0.1244  0.0153 -0.0697
 1267loPI   C2A20264   5.479   1.644   6.877  0.0708  0.0070  0.3676
 1267loPI   C3A20265   5.563   1.635   7.325  0.1018  0.0993 -0.0929
 1267loPI   C4A20266   5.590   1.633   7.751 -0.1583 -0.2424 -0.1740
 1267loPI   C5A20267   5.559   1.711   8.245 -0.2982 -0.1071 -0.0606
 1267loPI   C6A20268   5.606   1.565   8.688  0.0920 -0.0838 -0.2454
 1267loPI   C1B20269   5.097   1.316   6.725 -0.2863  0.2875  0.0005
 1267loPI   C2B20270   5.166   1.346   7.163  0.1499  0.0389  0.0548
 1267loPI   C3B20271   5.116   1.350   7.625 -0.1332 -0.1696 -0.3317
 1267loPI   C4B20272   5.157   1.508   8.064  0.1678 -0.1286 -0.2147
 1268loPI    C120273   5.224   0.325   5.865  0.0546 -0.0047  0.0879
 1268loPI    C220274   5.501   0.608   5.921  0.2907 -0.2250  0.0536
 1268loPI    C320275   5.291   0.598   5.581  0.0709  0.0826  0.1750
 1268loPI   PO420276   5.334   0.133   6.004  0.1455  0.0666  0.0769
 1268loPI   GL120277   5.633  -0.145   6.283 -0.0545  0.1157 -0.0788
 1268loPI   GL220278   5.864  -0.416   6.453  0.1744  0.0395 -0.0652
 1268loPI   C1A20279   5.516  -0.092   6.634  0.1352 -0.1958 -0.0883
 1268loPI   C2A20280   5.501  -0.186   7.022  0.0716 -0.2999  0.1973
 1268loPI   C3A20281   5.379  -0.143   7.386  0.2021  0.1791  0.3443
 1268loPI   C4A20282   5.293  -0.097   7.810  0.1829 -0.0894 -0.2583
 1268loPI   C5A20283   5.261  -0.214   8.152 -0.3027 -0.3068 -0.2129
 1268loPI   C6A20284   5.206  -0.191   8.551 -0.1743 -0.3433 -0.1214
 1268loPI   C1B20285   5.973  -0.239   6.888  0.2640 -0.1358 -0.0729
 1268loPI   C2B20286   5.809  -0.372   7.354  0.1607 -0.1242 -0.0967
 1268loPI   C3B20287   5.729  -0.347   7.747 -0.1232 -0.1047  0.2141
 1268loPI   C4B20288   5.703  -0.402   8.249  0.0397 -0.1232  0.1118
 1269loPI    C120289  10.065  11.354   5.284  0.2888  0.0475 -0.1643
 1269loPI    C220290   9.766  11.526   5.081  0.2312  0.0431 -0.0837
 1269loPI    C320291   9.927  11.183   4.950  0.0376 -0.0825  0.0032
 1269loPI   PO420292  10.014  11.363   5.557  0.0916  0.0499  0.0594
 1269loPI   GL120293   9.912  11.652   5.920  0.1768 -0.1217 -0.0309
 1269loPI   GL220294   9.800  11.275   6.009 -0.0435  0.3270  0.3305
 1269loPI   C1A20295   9.638  11.797   6.259 -0.0325  0.0072 -0.0377
 1269loPI   C2A20296   9.646  11.731   6.764 -0.1119  0.2851  0.2011
 1269loPI   C3A20297   9.561  11.680   7.151  0.1519  0.1808  0.0478
 1269loPI   C4A20298   9.483  11.730   7.534 -0.0031 -0.1366 -0.0299
 1269loPI   C5A20299   9.430  11.686   7.955 -0.1017 -0.1033  0.0390
 1269loPI   C6A20300   9.574  11.706   8.350  0.0985 -0.5127  0.1238
 1269loPI   C1B20301   9.793  11.281   6.453  0.5036 -0.3288  0.0234
 1269loPI   C2B20302   9.735  11.215   6.997 -0.0377 -0.1174  0.2881
 1269loPI   C3B20303   9.577  11.171   7.333  0.0570 -0.1715 -0.1301
 1269loPI   C4B20304   9.532  11.176   7.700 -0.0441  0.2886  0.1649
 1270loPI    C120305  10.451  11.006   5.359 -0.0052 -0.0468  0.1072
 1270loPI    C220306  10.141  10.817   5.192  0.1086 -0.2811  0.1573
 1270loPI    C320307  10.414  10.993   4.960 -0.1319  0.0455  0.1154
 1270loPI   PO420308  10.462  11.086   5.515  0.0089  0.0770  0.1248
 1270loPI   GL120309  10.368  11.220   5.909 -0.0139 -0.1045  0.1512
 1270loPI   GL220310  10.337  10.961   6.029 -0.1991 -0.1715 -0.0643
 1270loPI   C1A20311  10.260  11.472   6.214 -0.0822  0.0820  0.1511
 1270loPI   C2A20312  10.174  11.462   6.785  0.2183  0.2150  0.1134
 1270loPI   C3A20313  10.060  11.512   7.178  0.1782 -0.0168 -0.2997
 1270loPI   C4A20314   9.987  11.524   7.615  0.0507 -0.0051  0.3494
 1270loPI   C5A20315   9.925  11.478   7.994  0.2056  0.1148  0.2936
 1270loPI   C6A20316  10.065  11.563   8.386 -0.5130 -0.0051 -0.0114
 1270loPI   C1B20317  10.235  11.069   6.468  0.3231 -0.1220  0.3517
 1270loPI   C2B20318  10.218  10.941   6.923 -0.0503  0.2833 -0.0472
 1270loPI   C3B20319  10.138  10.978   7.322  0.1538  0.0607 -0.1505
 1270loPI   C4B20320  10.065  11.039   7.756 -0.1314  0.1142  0.1957
 1271loPI    C120321   9.381   1.805   5.769 -0.1895  0.1447 -0.1720
 1271loPI    C220322   9.491   1.643   5.420  0.1460  0.2813 -0.1336
 1271loPI    C320323   9.561   2.030   5.491  0.1298  0.2414  0.1062
 1271loPI   PO420324   9.436   1.628   5.935 -0.0240  0.0930  0.1095
 1271loPI   GL120325   9.578   1.659   6.258  0.0604 -0.3703  0.1502
 1271loPI   GL220326   9.213   1.825   6.305  0.0967  0.0404 -0.1284
 1271loPI   C1A20327   9.768   1.594   6.588 -0.0294  0.1367 -0.1615
 1271loPI   C2A20328   9.757   1.618   7.048  0.0672 -0.0620 -0.0769
 1271loPI   C3A20329   9.707   1.626   7.530  0.0187  0.1037  0.1971
 1271loPI   C4A20330   9.688   1.690   7.971  0.1873  0.3491  0.0453
 1271loPI   C5A20331   9.552   2.023   8.286 -0.1452 -0.0291  0.1225
 1271loPI   C6A20332   9.109   1.964   8.508 -0.0476 -0.1362 -0.1885
 1271loPI   C1B20333   9.244   1.682   6.675 -0.0968 -0.3344 -0.1106
 1271loPI   C2B20334   9.315   1.746   7.214 -0.2201 -0.1177 -0.2482
 1271loPI   C3B20335   9.235   1.732   7.557  0.1472 -0.4025  0.0272
 1271loPI   C4B20336   9.197   1.821   7.960  0.2163  0.0606 -0.2127
 1272loPI    C120337   2.184  17.792   5.584 -0.0956  0.0767 -0.0323
 1272loPI    C220338   2.264  17.400   5.586 -0.0989  0.0762  0.0269
 1272loPI    C320339   2.015  17.552   5.312 -0.2984 -0.0041  0.1613
 1272loPI   PO420340   2.093  17.861   5.776 -0.0193  0.0189 -0.3181
 1272loPI   GL120341   2.057  17.955   6.212  0.1158  0.0121  0.0612
 1272loPI   GL220342   1.799  18.076   6.203 -0.0669  0.1418  0.0834
 1272loPI   C1A20343   2.215  17.888   6.615 -0.1056  0.4594  0.1545
 1272loPI   C2A20344   2.167  17.879   7.026  0.1615 -0.2309  0.1637
 1272loPI   C3A20345   2.139  17.924   7.409 -0.0256  0.2571 -0.0530
 1272loPI   C4A20346   2.127  17.941   7.802  0.0426  0.2798  0.1981
 1272loPI   C5A20347   2.049  17.888   8.208  0.0436  0.2603 -0.1400
 1272loPI   C6A20348   1.748  17.781   8.595 -0.0704  0.1352 -0.0766
 1272loPI   C1B20349   1.782  18.060   6.635  0.2108  0.0317 -0.0287
 1272loPI   C2B20350   1.675  18.015   7.040  0.0130  0.0525  0.0523
 1272loPI   C3B20351   1.688  18.099   7.442  0.2810  0.1311  0.0161
 1272loPI   C4B20352   1.616  18.096   7.849  0.5161 -0.0305  0.0446
 1273loPI    C120353  15.529  10.107   5.340 -0.1840 -0.0535 -0.1761
 1273loPI    C220354  15.583  10.484   5.219  0.1292  0.0695  0.3175
 1273loPI    C320355  15.300  10.259   5.050  0.1646  0.4104 -0.2211
 1273loPI   PO420356  15.506  10.119   5.601 -0.0230  0.1225  0.0107
 1273loPI   GL120357  15.352  10.192   6.013  0.1872 -0.0090  0.2073
 1273loPI   GL220358  15.131  10.418   6.031 -0.1580  0.1908 -0.1450
 1273loPI   C1A20359  15.259  10.071   6.485  0.1411 -0.0721  0.0437
 1273loPI   C2A20360  15.234  10.079   6.892 -0.1011  0.2235  0.0605
 1273loPI   C3A20361  15.200  10.040   7.384  0.0619 -0.2431  0.3482
 1273loPI   C4A20362  15.130  10.115   7.766 -0.0203 -0.2275  0.0865
 1273loPI   C5A20363  15.102  10.122   8.163 -0.3016  0.0710 -0.0651
 1273loPI   C6A20364  15.317   9.885   8.488  0.1319 -0.2001 -0.0608
 1273loPI   C1B20365  15.161  10.537   6.518  0.1333 -0.0242  0.0990
 1273loPI   C2B20366  15.199  10.608   7.006  0.0548 -0.1702 -0.0923
 1273loPI   C3B20367  14.795  10.710   7.214 -0.0680  0.1460 -0.1409
 1273loPI   C4B20368  14.531  10.659   7.604 -0.0179 -0.1603 -0.0766
 1274loPI    C120369  13.488   5.168   5.684  0.0340 -0.1760  0.0687
 1274loPI    C220370  13.226   5.313   5.419  0.1557 -0.1174 -0.0205
 1274loPI    C320371  13.563   5.139   5.292  0.0318 -0.4433  0.0860
 1274loPI   PO420372  13.429   5.243   5.897 -0.0412  0.2031  0.1806
 1274loPI   GL120373  13.457   5.022   6.335 -0.0408  0.1263  0.0179
 1274loPI   GL220374  13.719   5.244   6.381 -0.2771  0.2495 -0.3956
 1274loPI   C1A20375  13.225   4.976   6.747 -0.2954 -0.0663  0.2993
 1274loPI   C2A20376  13.250   4.950   7.184  0.0013 -0.2010  0.1082
 1274loPI   C3A20377  13.342   4.973   7.504  0.1056  0.1645 -0.0894
 1274loPI   C4A20378  13.315   5.116   7.945  0.0202  0.0842  0.1027
 1274loPI   C5A20379  13.344   5.049   8.373 -0.1007  0.0428 -0.0258
 1274loPI   C6A20380  13.234   5.168   8.831 -0.1459  0.1022 -0.0602
 1274loPI   C1B20381  13.616   5.260   6.796  0.3274 -0.1024  0.2817
 1274loPI   C2B20382  13.653   5.378   7.272 -0.0652 -0.1932  0.0215
 1274loPI   C3B20383  13.775   5.296   7.710  0.0519  0.2032 -0.0137
 1274loPI   C4B20384  13.775   5.164   8.156  0.0891  0.0122 -0.1068
 1275loPI    C120385  13.450   8.476   5.660  0.0300 -0.0467 -0.0528
 1275loPI    C220386  13.097   8.566   5.495  0.0630  0.2657  0.0416
 1275loPI    C320387  13.434   8.620   5.287  0.0862  0.4119  0.1154
 1275loPI   PO420388  13.485   8.236   5.751  0.2375  0.4633  0.0505
 1275loPI   GL120389  13.606   8.120   6.136  0.0976  0.1018  0.2690
 1275loPI   GL220390  13.350   7.904   6.200  0.0619  0.1016 -0.2278
 1275loPI   C1A20391  13.744   8.237   6.506 -0.0007 -0.3531 -0.1283
 1275loPI   C2A20392  13.731   8.168   6.927  0.2700 -0.3417  0.1904
 1275loPI   C3A20393  13.609   8.107   7.320  0.1505  0.1743 -0.0007
 1275loPI   C4A20394  13.530   8.158   7.768  0.0475 -0.0655  0.0504
 1275loPI   C5A20395  13.207   8.377   7.984  0.0101 -0.0768  0.1460
 1275loPI   C6A20396  13.147   8.543   8.418  0.1216  0.0270 -0.1814
 1275loPI   C1B20397  13.409   7.907   6.625 -0.0566 -0.1093 -0.0925
 1275loPI   C2B20398  13.306   7.856   7.026  0.2018  0.0581 -0.0382
 1275loPI   C3B20399  13.312   7.825   7.500 -0.0103 -0.1056  0.0555
 1275loPI   C4B20400  13.239   7.747   7.939 -0.1347  0.2799  0.2898
 1276loPI    C120401  15.498   6.280   5.481 -0.0362 -0.1773  0.2064
 1276loPI    C220402  15.322   6.425   5.152 -0.1410  0.0012  0.3391
 1276loPI    C320403  15.592   6.132   5.122 -0.0674  0.0923  0.0841
 1276loPI   PO420404  15.514   6.521   5.681 -0.0617  0.0248  0.0191
 1276loPI   GL120405  15.574   6.711   6.080  0.2195 -0.1508  0.0760
 1276loPI   GL220406  15.702   6.991   6.127  0.2957  0.0284 -0.5413
 1276loPI   C1A20407  15.776   6.443   6.380  0.1910 -0.1228 -0.1354
 1276loPI   C2A20408  15.794   6.464   6.772 -0.0782  0.0461 -0.0375
 1276loPI   C3A20409  15.852   6.518   7.181 -0.4946  0.1808  0.1798
 1276loPI   C4A20410  15.751   6.495   7.633  0.1234 -0.1687  0.0478
 1276loPI   C5A20411  15.696   6.505   8.076  0.4084 -0.1143  0.0486
 1276loPI   C6A20412  15.923   6.205   8.333 -0.1308 -0.0622 -0.1864
 1276loPI   C1B20413  15.701   7.093   6.519 -0.1199 -0.1065  0.2616
 1276loPI   C2B20414  15.742   6.993   6.896  0.1349 -0.1985 -0.1185
 1276loPI   C3B20415  15.770   7.001   7.333  0.2623 -0.5190 -0.1264
 1276loPI   C4B20416  15.663   7.061   7.759 -0.2740  0.0667  0.1540
 1277loPI    C120417   8.731   9.221   5.481 -0.1463  0.0259  0.0898
 1277loPI    C220418   8.967   9.113   5.177 -0.0813 -0.0051  0.1509
 1277loPI    C320419   8.572   9.147   5.122 -0.0818 -0.1078  0.0881
 1277loPI   PO420420   8.786   9.094   5.709 -0.3117 -0.1809  0.2182
 1277loPI   GL120421   8.839   8.977   6.086 -0.0806  0.2229 -0.2799
 1277loPI   GL220422   8.659   8.785   6.242 -0.3136 -0.0840  0.1510
 1277loPI   C1A20423   8.624   9.160   6.515  0.0993  0.0641 -0.2726
 1277loPI   C2A20424   8.623   9.177   7.028 -0.0393  0.0690  0.1439
 1277loPI   C3A20425   8.464   9.167   7.440 -0.2249  0.1386 -0.0547
 1277loPI   C4A20426   8.466   9.111   7.889  0.0394 -0.2230 -0.1272
 1277loPI   C5A20427   8.400   9.286   8.333 -0.2436  0.2355  0.0913
 1277loPI   C6A20428   8.505   9.552   8.603  0.0860  0.1725 -0.1323
 1277loPI   C1B20429   8.622   8.693   6.706  0.4474 -0.2955  0.0230
 1277loPI   C2B20430   8.603   8.646   7.140 -0.1318 -0.5809  0.0044
 1277loPI   C3B20431   8.618   8.643   7.511 -0.0908  0.0212 -0.1606
 1277loPI   C4B20432   8.521   8.583   7.979 -0.3164 -0.0619  0.2585
 1278loPI    C120433   0.695   9.221   5.432  0.1892 -0.1802 -0.0003
 1278loPI    C220434   0.672   9.264   5.034  0.1840 -0.2838 -0.0114
 1278loPI    C320435   0.524   8.936   5.209  0.1083 -0.1990  0.0853
 1278loPI   PO420436   0.623   9.530   5.541  0.2227 -0.2503 -0.3273
 1278loPI   GL120437   0.756   9.589   5.962 -0.1087 -0.0176 -0.1994
 1278loPI   GL220438   0.511   9.468   6.138 -0.3781  0.0790 -0.2265
 1278loPI   C1A20439   0.704   9.748   6.451 -0.0239  0.1035 -0.1594
 1278loPI   C2A20440   0.744   9.861   6.817  0.0744  0.4784  0.1872
 1278loPI   C3A20441   0.700   9.770   7.278  0.0756  0.2596  0.1297
 1278loPI   C4A20442   0.642   9.818   7.704  0.4220 -0.2364  0.0327
 1278loPI   C5A20443   0.591   9.805   8.216  0.0258 -0.5169 -0.0806
 1278loPI   C6A20444   0.731   9.822   8.667  0.0191 -0.1329 -0.1979
 1278loPI   C1B20445   0.330   9.450   6.566 -0.1741  0.0013 -0.0762
 1278loPI   C2B20446   0.365   9.550   6.925  0.0003  0.0359 -0.1913
 1278loPI   C3B20447   0.277   9.454   7.345  0.3279  0.0496 -0.1832
 1278loPI   C4B20448   0.212   9.534   7.803 -0.1348  0.3570 -0.0815
 1279loPI    C120449   2.812  13.291   6.122 -0.0718 -0.0282 -0.2859
 1279loPI    C220450   3.189  13.267   5.992  0.0251 -0.0344 -0.0091
 1279loPI    C320451   2.912  13.019   5.846  0.0720  0.1313 -0.3937
 1279loPI   PO420452   2.855  13.599   6.153  0.2524  0.0434  0.0563
 1279loPI   GL120453   2.970  13.696   6.571  0.0919 -0.2581  0.3478
 1279loPI   GL220454   2.959  13.939   6.600  0.1135 -0.1672  0.0739
 1279loPI   C1A20455   2.955  13.320   6.766 -0.0149 -0.0329  0.0266
 1279loPI   C2A20456   2.934  13.304   7.165  0.1329 -0.1999 -0.0934
 1279loPI   C3A20457   2.929  13.228   7.613 -0.0004  0.1404  0.0566
 1279loPI   C4A20458   2.880  13.186   8.026 -0.0381 -0.0860 -0.0178
 1279loPI   C5A20459   2.867  13.175   8.462 -0.0560 -0.0566 -0.0128
 1279loPI   C6A20460   2.784  13.062   8.950  0.0076 -0.0097  0.1348
 1279loPI   C1B20461   2.766  13.846   7.044  0.2630  0.3408  0.0373
 1279loPI   C2B20462   2.871  13.732   7.533  0.1962 -0.2993  0.1622
 1279loPI   C3B20463   2.786  13.733   8.004  0.0513 -0.1792 -0.3907
 1279loPI   C4B20464   2.782  13.696   8.407  0.1785  0.1069  0.0690
 1280loPI    C120465  16.096   5.008   5.405  0.3049 -0.0375 -0.0955
 1280loPI    C220466  15.986   4.624   5.397  0.1525 -0.0006  0.1364
 1280loPI    C320467  15.719   4.910   5.314  0.1176  0.0797  0.5059
 1280loPI   PO420468  16.168   5.095   5.630 -0.0072 -0.0866  0.0850
 1280loPI   GL120469  16.222   5.062   6.114 -0.1601  0.2019  0.2301
 1280loPI   GL220470  16.108   4.877   6.374  0.0060 -0.2382  0.0678
 1280loPI   C1A20471  16.123   5.416   6.397 -0.1424  0.0931  0.0993
 1280loPI   C2A20472  15.967   5.516   6.803 -0.0339  0.3421  0.0483
 1280loPI   C3A20473  15.972   5.545   7.236  0.0518 -0.0807 -0.0579
 1280loPI   C4A20474  15.906   5.512   7.722  0.1194  0.0138 -0.0867
 1280loPI   C5A20475  15.937   5.453   8.076 -0.0474 -0.1288 -0.1803
 1280loPI   C6A20476  16.069   5.444   8.368  0.0556  0.3727 -0.0992
 1280loPI   C1B20477  16.038   5.033   6.808  0.1960  0.1879 -0.0866
 1280loPI   C2B20478  16.029   4.968   7.321  0.2958  0.0930 -0.0557
 1280loPI   C3B20479  16.096   5.054   7.731  0.2475 -0.3958  0.1710
 1280loPI   C4B20480  15.975   4.953   8.085 -0.0497  0.0880  0.0613
 1281loPI    C120481   1.541  13.300   5.577 -0.0531 -0.0357  0.0289
 1281loPI    C220482   1.312  13.623   5.524 -0.0145 -0.0102  0.0169
 1281loPI    C320483   1.613  13.548   5.272  0.0890  0.0419  0.1240
 1281loPI   PO420484   1.707  13.325   5.831  0.3794 -0.1863 -0.1578
 1281loPI   GL120485   1.838  13.427   6.263 -0.0639  0.0333 -0.2743
 1281loPI   GL220486   1.963  13.693   6.203 -0.3733  0.0626  0.0299
 1281loPI   C1A20487   1.579  13.318   6.513  0.1566  0.1996  0.1231
 1281loPI   C2A20488   1.648  13.302   6.894  0.3160 -0.3356 -0.0881
 1281loPI   C3A20489   1.544  13.310   7.330 -0.1745 -0.1299  0.1204
 1281loPI   C4A20490   1.624  13.337   7.727 -0.0995  0.0326 -0.0170
 1281loPI   C5A20491   1.635  13.453   8.096  0.1584  0.1299  0.1630
 1281loPI   C6A20492   1.927  13.619   8.406 -0.1661 -0.2526 -0.1238
 1281loPI   C1B20493   2.012  13.726   6.680 -0.0447  0.0671  0.0258
 1281loPI   C2B20494   1.962  13.641   7.100  0.2508  0.1263 -0.0134
 1281loPI   C3B20495   2.017  13.588   7.588  0.0841 -0.0491  0.1901
 1281loPI   C4B20496   2.084  13.643   7.962 -0.0714  0.2497 -0.3748
 1282loPI    C120497   2.916   7.173   5.891  0.1698 -0.0953 -0.1286
 1282loPI    C220498   3.133   7.138   5.557  0.2710 -0.0132 -0.0720
 1282loPI    C320499   2.814   6.903   5.613  0.2048  0.0289 -0.2633
 1282loPI   PO420500   3.048   7.078   6.082 -0.1402 -0.1317 -0.0929
 1282loPI   GL120501   2.932   7.072   6.522 -0.0443 -0.4202 -0.1317
 1282loPI   GL220502   2.644   7.131   6.494  0.2519  0.2883  0.1304
 1282loPI   C1A20503   2.907   7.008   6.968  0.0746  0.3270  0.0892
 1282loPI   C2A20504   2.938   6.945   7.408 -0.1443  0.2993 -0.0562
 1282loPI   C3A20505   2.849   7.000   7.915  0.0184  0.2073  0.1112
 1282loPI   C4A20506   2.593   6.937   8.317 -0.2101 -0.0378  0.1042
 1282loPI   C5A20507   2.397   6.888   8.633 -0.0551 -0.1018  0.1746
 1282loPI   C6A20508   2.004   7.052   8.808  0.1241 -0.3701  0.1016
 1282loPI   C1B20509   2.502   7.268   6.808  0.0798 -0.0124 -0.2685
 1282loPI   C2B20510   2.483   7.124   7.266  0.4723  0.1112 -0.1376
 1282loPI   C3B20511   2.361   7.151   7.691  0.1171  0.0117  0.0015
 1282loPI   C4B20512   2.113   7.059   8.135 -0.1899  0.2948 -0.0673
 1283loPI    C120513   9.496   0.678   5.476  0.3963  0.0931  0.0994
 1283loPI    C220514   9.351   0.333   5.335  0.0777  0.2223  0.1014
 1283loPI    C320515   9.405   0.642   5.088 -0.0173  0.2958  0.1720
 1283loPI   PO420516   9.260   0.705   5.764  0.2475 -0.4043  0.0196
 1283loPI   GL120517   9.589   0.802   6.036 -0.2360 -0.0258 -0.3810
 1283loPI   GL220518   9.671   1.132   6.147  0.1582  0.3623 -0.0084
 1283loPI   C1A20519   9.438   0.705   6.408  0.0612  0.1181  0.0165
 1283loPI   C2A20520   9.383   0.776   6.805 -0.1364  0.0944 -0.1554
 1283loPI   C3A20521   9.404   0.710   7.232  0.0384 -0.1378 -0.0010
 1283loPI   C4A20522   9.347   0.792   7.680  0.0258 -0.3112  0.2120
 1283loPI   C5A20523   9.433   0.858   8.130 -0.3362  0.0149 -0.2776
 1283loPI   C6A20524   9.478   1.108   8.467  0.0040  0.1474  0.0198
 1283loPI   C1B20525   9.720   1.091   6.538  0.3971  0.1238  0.1748
 1283loPI   C2B20526   9.774   1.131   7.038 -0.1151 -0.0601  0.1699
 1283loPI   C3B20527   9.855   1.168   7.380  0.2763  0.0164  0.1580
 1283loPI   C4B20528   9.807   1.179   7.738 -0.1392 -0.1374 -0.0708
 1284loPI    C120529  17.032  10.976   5.487 -0.0164 -0.1856 -0.0185
 1284loPI    C220530  17.350  10.908   5.255  0.0096 -0.0019 -0.0381
 1284loPI    C320531  17.150  11.253   5.224 -0.1018 -0.0552  0.0787
 1284loPI   PO420532  17.058  10.869   5.706 -0.0523 -0.1942 -0.0495
 1284loPI   GL120533  17.130  11.052   6.025 -0.3509 -0.0641  0.2594
 1284loPI   GL220534  17.067  10.715   6.168  0.1241  0.1042 -0.0479
 1284loPI   C1A20535  17.257  11.096   6.435  0.0643 -0.4336  0.1948
 1284loPI   C2A20536  17.324  11.127   6.914 -0.0035  0.1103 -0.2288
 1284loPI   C3A20537  17.325  11.233   7.349 -0.2417 -0.3341  0.0305
 1284loPI   C4A20538  17.214  11.144   7.754  0.0682  0.0204  0.1809
 1284loPI   C5A20539  17.401  11.368   8.101 -0.2248 -0.1121  0.0204
 1284loPI   C6A20540  17.675  11.528   8.501 -0.1579 -0.0954 -0.0497
 1284loPI   C1B20541  16.917  10.778   6.666 -0.0841 -0.1990 -0.3912
 1284loPI   C2B20542  16.939  10.841   7.122  0.1588 -0.1122  0.1950
 1284loPI   C3B20543  16.857  10.882   7.534 -0.0920  0.0252 -0.2469
 1284loPI   C4B20544  16.811  10.805   7.990 -0.0451 -0.1727 -0.1194
 1285loPI    C120545   6.861  17.515   5.452  0.0245 -0.1518  0.0602
 1285loPI    C220546   6.879  17.724   5.112 -0.0943 -0.0266  0.1296
 1285loPI    C320547   6.671  17.383   5.127 -0.2176  0.0476  0.1175
 1285loPI   PO420548   6.853  17.667   5.638  0.2006 -0.2785  0.3326
 1285loPI   GL120549   6.962  17.628   6.128 -0.1065  0.0519  0.2216
 1285loPI   GL220550   7.009  17.919   6.393  0.0337  0.1328 -0.0870
 1285loPI   C1A20551   6.706  17.568   6.538 -0.2042 -0.2581  0.1293
 1285loPI   C2A20552   6.796  17.587   6.984  0.1866 -0.1179  0.1244
 1285loPI   C3A20553   6.741  17.664   7.479 -0.1467 -0.1360 -0.0684
 1285loPI   C4A20554   6.773  17.792   7.930  0.0305  0.1200  0.3839
 1285loPI   C5A20555   6.927  17.908   8.302 -0.2701 -0.2090 -0.0509
 1285loPI   C6A20556   6.996  18.282   8.532 -0.2166  0.0259 -0.0005
 1285loPI   C1B20557   7.195  17.876   6.739  0.0080  0.2444  0.3730
 1285loPI   C2B20558   7.211  17.931   7.145 -0.0337  0.1612  0.0814
 1285loPI   C3B20559   7.186  18.001   7.644  0.1716 -0.0371  0.0100
 1285loPI   C4B20560   6.974  18.359   8.047  0.1702 -0.2125 -0.1622
 1286loPI    C120561   1.749  15.454   5.474 -0.1403 -0.2325  0.0536
 1286loPI    C220562   1.537  15.547   5.148  0.0965  0.4293  0.0735
 1286loPI    C320563   1.932  15.608   5.153  0.1445  0.1199  0.3758
 1286loPI   PO420564   1.694  15.630   5.680  0.1582 -0.1680  0.1155
 1286loPI   GL120565   1.863  15.630   6.170 -0.1208 -0.0059 -0.0469
 1286loPI   GL220566   2.098  15.639   6.168  0.2435  0.2589 -0.0438
 1286loPI   C1A20567   1.692  15.711   6.566 -0.1155  0.3147  0.1959
 1286loPI   C2A20568   1.592  15.672   7.011  0.2656  0.1829 -0.1928
 1286loPI   C3A20569   1.649  15.675   7.420  0.0617  0.1195 -0.1681
 1286loPI   C4A20570   1.585  15.654   7.897  0.1817 -0.0214  0.1761
 1286loPI   C5A20571   1.232  15.458   8.208 -0.1432  0.1847 -0.2500
 1286loPI   C6A20572   0.882  15.167   8.386  0.0129 -0.0634 -0.4138
 1286loPI   C1B20573   2.193  15.509   6.665 -0.0745  0.4343 -0.0034
 1286loPI   C2B20574   2.148  15.566   7.007  0.0583  0.0660 -0.0764
 1286loPI   C3B20575   2.172  15.538   7.436 -0.3411  0.0092 -0.2329
 1286loPI   C4B20576   2.084  15.512   7.917 -0.1771  0.0364  0.1588
 1287loPI    C120577   9.673  17.552   5.904 -0.0266  0.1161  0.0257
 1287loPI    C220578   9.641  17.731   5.548  0.0048  0.2615  0.0953
 1287loPI    C320579   9.558  17.342   5.584  0.0667  0.2306 -0.0842
 1287loPI   PO420580   9.858  17.644   6.014  0.0040  0.3155  0.1387
 1287loPI   GL120581   9.883  17.775   6.493 -0.0412 -0.0589 -0.1588
 1287loPI   GL220582   9.619  17.984   6.323 -0.0273 -0.0237  0.1650
 1287loPI   C1A20583   9.929  17.685   6.879 -0.2659 -0.1778 -0.0131
 1287loPI   C2A20584   9.942  17.803   7.296 -0.2135  0.3040  0.0812
 1287loPI   C3A20585   9.933  17.838   7.750 -0.1420  0.4129  0.1233
 1287loPI   C4A20586   9.991  17.831   8.183  0.1577 -0.0839  0.2218
 1287loPI   C5A20587   9.768  17.609   8.568  0.1621  0.2713  0.1146
 1287loPI   C6A20588   9.648  17.306   8.964 -0.0408 -0.0287  0.1455
 1287loPI   C1B20589   9.423  18.021   6.781 -0.1862 -0.1586  0.0286
 1287loPI   C2B20590   9.470  17.904   7.160  0.2323 -0.3084 -0.2157
 1287loPI   C3B20591   9.474  17.995   7.519 -0.2113 -0.1698  0.2763
 1287loPI   C4B20592   9.454  18.061   7.987  0.0662 -0.1887 -0.0961
 1288loPI    C120593   1.444   8.360   5.378  0.0332 -0.0144 -0.2391
 1288loPI    C220594   1.557   7.986   5.291  0.0146 -0.0455 -0.1317
 1288loPI    C320595   1.523   8.258   4.999  0.0822 -0.1127 -0.2029
 1288loPI   PO420596   1.488   8.371   5.617  0.1376 -0.2532  0.1984
 1288loPI   GL120597   1.510   8.306   5.993 -0.1646  0.1676  0.2017
 1288loPI   GL220598   1.297   8.169   6.105 -0.0270 -0.3189  0.0456
 1288loPI   C1A20599   1.343   8.579   6.433 -0.0356  0.1224 -0.1241
 1288loPI   C2A20600   1.352   8.560   6.940  0.0270 -0.1727 -0.0545
 1288loPI   C3A20601   1.296   8.581   7.356  0.0739  0.3004  0.1345
 1288loPI   C4A20602   1.224   8.613   7.816  0.2082  0.1596  0.1403
 1288loPI   C5A20603   1.255   8.581   8.316 -0.0530 -0.1634 -0.1438
 1288loPI   C6A20604   1.474   8.746   8.594  0.0121 -0.2592  0.0643
 1288loPI   C1B20605   1.061   8.218   6.522  0.1617  0.0644  0.1287
 1288loPI   C2B20606   0.971   8.244   7.047  0.1009 -0.0653 -0.0344
 1288loPI   C3B20607   0.880   8.265   7.498  0.1519  0.1324  0.1414
 1288loPI   C4B20608   0.887   8.238   7.917 -0.0508 -0.0614  0.2404
 1289loPI    C120609   2.799   8.885   5.487  0.1309 -0.0813 -0.1678
 1289loPI    C220610   3.192   8.956   5.468  0.1548 -0.1818 -0.0580
 1289loPI    C320611   2.987   8.874   5.134  0.2206 -0.0981 -0.1196
 1289loPI   PO420612   2.691   9.043   5.614 -0.0744 -0.1173 -0.4223
 1289loPI   GL120613   2.691   9.317   6.034 -0.3574  0.0227  0.0841
 1289loPI   GL220614   2.601   9.163   6.126 -0.4388 -0.2259  0.2282
 1289loPI   C1A20615   3.029   9.422   6.355  0.0052 -0.0405  0.0051
 1289loPI   C2A20616   3.046   9.434   6.798 -0.0522 -0.1433  0.0731
 1289loPI   C3A20617   3.100   9.452   7.245 -0.1610 -0.0468 -0.3603
 1289loPI   C4A20618   2.920   9.311   7.727  0.3003 -0.0896  0.0308
 1289loPI   C5A20619   2.977   9.211   8.195 -0.1000  0.1174 -0.2809
 1289loPI   C6A20620   2.860   8.974   8.635  0.0900 -0.2701  0.1125
 1289loPI   C1B20621   2.642   9.035   6.591 -0.2298  0.1827  0.1421
 1289loPI   C2B20622   2.574   9.113   6.931  0.2849  0.2117  0.1028
 1289loPI   C3B20623   2.574   8.976   7.395 -0.0158  0.0187 -0.4260
 1289loPI   C4B20624   2.615   8.972   7.936  0.1933  0.5142  0.2733
 1290loPI    C120625   9.559   9.735   5.317  0.0550  0.1367  0.1993
 1290loPI    C220626   9.346   9.471   5.105 -0.1264  0.2669  0.2170
 1290loPI    C320627   9.609   9.710   4.921  0.0900  0.0278  0.2103
 1290loPI   PO420628   9.665   9.598   5.487 -0.2655  0.0772  0.1432
 1290loPI   GL120629   9.584   9.516   5.945  0.1167 -0.3425 -0.1190
 1290loPI   GL220630   9.940   9.593   5.967  0.2878 -0.2976 -0.0597
 1290loPI   C1A20631   9.536   9.403   6.385  0.2291  0.0379  0.0388
 1290loPI   C2A20632   9.475   9.343   6.758 -0.1273  0.0330  0.0126
 1290loPI   C3A20633   9.332   9.311   7.137 -0.3315 -0.3450  0.1774
 1290loPI   C4A20634   9.400   9.282   7.604  0.0956 -0.1303  0.1976
 1290loPI   C5A20635   9.356   9.363   8.005 -0.0523 -0.1385  0.0330
 1290loPI   C6A20636   9.436   9.382   8.453 -0.1033 -0.0357 -0.1298
 1290loPI   C1B20637   9.899   9.755   6.351 -0.1218  0.3411 -0.3598
 1290loPI   C2B20638   9.909   9.632   6.866 -0.0720 -0.0828  0.0612
 1290loPI   C3B20639   9.843   9.639   7.392 -0.0332  0.0894 -0.1192
 1290loPI   C4B20640   9.777   9.681   7.889 -0.0106  0.2842  0.0649
 1291loPI    C120641   8.334   9.903   5.505  0.0360 -0.0486 -0.0780
 1291loPI    C220642   8.014   9.755   5.317 -0.1336 -0.1728  0.2967
 1291loPI    C320643   8.375   9.594   5.254 -0.1215  0.0314 -0.2034
 1291loPI   PO420644   8.303   9.873   5.741  0.3181  0.0403  0.0515
 1291loPI   GL120645   8.440   9.898   6.176 -0.1283 -0.0552 -0.0230
 1291loPI   GL220646   8.624  10.116   6.379 -0.0213  0.1341  0.0874
 1291loPI   C1A20647   8.402   9.641   6.569  0.0988  0.0936  0.1488
 1291loPI   C2A20648   8.204   9.364   6.834 -0.2101  0.0564  0.0366
 1291loPI   C3A20649   8.024   9.393   7.226 -0.2520 -0.0760  0.5513
 1291loPI   C4A20650   8.058   9.267   7.666 -0.0712  0.0495 -0.0756
 1291loPI   C5A20651   7.921   9.250   8.087  0.1605 -0.3765 -0.0502
 1291loPI   C6A20652   7.928   9.328   8.522  0.4985 -0.1037  0.1201
 1291loPI   C1B20653   8.472  10.275   6.779  0.1829 -0.1264 -0.2452
 1291loPI   C2B20654   8.303  10.291   7.140  0.4595  0.0624 -0.1826
 1291loPI   C3B20655   8.002   9.956   7.358 -0.3763 -0.2136  0.2343
 1291loPI   C4B20656   7.951   9.889   7.784 -0.1726  0.0362 -0.2422
 1292loPI    C120657  16.725   5.880   5.642  0.0284  0.1039 -0.0209
 1292loPI    C220658  16.771   5.681   5.297 -0.0613  0.1351 -0.0510
 1292loPI    C320659  16.902   6.058   5.331  0.1129  0.0700  0.0076
 1292loPI   PO420660  16.790   5.817   5.839 -0.2054 -0.0143  0.1088
 1292loPI   GL120661  16.895   5.652   6.095  0.2012 -0.1377  0.2825
 1292loPI   GL220662  16.571   5.395   6.224 -0.5303 -0.3128  0.1007
 1292loPI   C1A20663  16.899   5.594   6.551 -0.2020  0.3288  0.0690
 1292loPI   C2A20664  16.806   5.550   7.000 -0.2425 -0.0601 -0.2174
 1292loPI   C3A20665  16.785   5.635   7.404  0.0056  0.0703 -0.0586
 1292loPI   C4A20666  16.779   5.718   7.853  0.0415  0.4043 -0.0202
 1292loPI   C5A20667  16.644   5.603   8.302 -0.0809  0.3092 -0.0294
 1292loPI   C6A20668  16.616   5.796   8.629 -0.3803 -0.0256  0.6843
 1292loPI   C1B20669  16.514   5.159   6.644 -0.0883 -0.0101 -0.0776
 1292loPI   C2B20670  16.405   5.254   7.094  0.1412  0.1467 -0.1094
 1292loPI   C3B20671  16.395   5.372   7.539  0.0169 -0.1566 -0.1244
 1292loPI   C4B20672  16.367   5.381   7.933  0.1176  0.0881 -0.1417
 1293loPI    C120673  13.904   0.723   5.425  0.1866 -0.0558  0.0242
 1293loPI    C220674  13.644   0.602   5.147  0.0065  0.1581  0.0957
 1293loPI    C320675  13.588   0.951   5.334  0.3355  0.1971  0.1275
 1293loPI   PO420676  13.922   0.652   5.601 -0.0454 -0.0493  0.1130
 1293loPI   GL120677  13.894   0.716   5.972 -0.1783 -0.1198 -0.2476
 1293loPI   GL220678  14.000   0.432   6.082 -0.0206 -0.0764 -0.2903
 1293loPI   C1A20679  13.801   0.784   6.398 -0.0164 -0.0638 -0.1627
 1293loPI   C2A20680  13.854   0.863   6.843 -0.0061 -0.0955 -0.0917
 1293loPI   C3A20681  13.876   0.954   7.310 -0.1953  0.0774  0.2424
 1293loPI   C4A20682  13.939   0.992   7.764 -0.5069  0.2982  0.1542
 1293loPI   C5A20683  13.964   0.939   8.249  0.1255 -0.0765 -0.2893
 1293loPI   C6A20684  14.190   0.950   8.618  0.0556 -0.4226  0.0994
 1293loPI   C1B20685  14.022   0.347   6.498 -0.1361 -0.2237 -0.1980
 1293loPI   C2B20686  13.935   0.367   6.950 -0.0918 -0.2317 -0.0556
 1293loPI   C3B20687  13.990   0.430   7.372  0.0752 -0.1812 -0.1486
 1293loPI   C4B20688  14.011   0.490   7.814 -0.0289  0.0459  0.1415
 1294loPI    C120689   5.670   4.623   5.745 -0.1259  0.0348  0.1494
 1294loPI    C220690   5.732   4.228   5.745 -0.3868 -0.0081  0.0953
 1294loPI    C320691   5.616   4.412   5.409 -0.2237  0.1227  0.1092
 1294loPI   PO420692   5.704   4.712   5.932 -0.0460 -0.1789 -0.0099
 1294loPI   GL120693   5.902   4.895   6.293 -0.0951  0.0331 -0.3043
 1294loPI   GL220694   5.593   5.005   6.374 -0.0510  0.0993  0.2205
 1294loPI   C1A20695   6.043   4.928   6.691 -0.0659 -0.3063 -0.0078
 1294loPI   C2A20696   6.000   4.945   7.109 -0.1925  0.0456 -0.1751
 1294loPI   C3A20697   5.962   4.969   7.526 -0.2559 -0.3188 -0.1102
 1294loPI   C4A20698   5.949   4.966   7.945  0.0069  0.3710 -0.1797
 1294loPI   C5A20699   5.863   5.134   8.310  0.1799 -0.0023 -0.2805
 1294loPI   C6A20700   5.865   5.515   8.521 -0.1742 -0.3287  0.1151
 1294loPI   C1B20701   5.526   5.195   6.824  0.2511  0.0363 -0.1137
 1294loPI   C2B20702   5.588   5.211   7.231 -0.1563  0.1488 -0.0319
 1294loPI   C3B20703   5.486   5.139   7.626 -0.3200 -0.2876  0.0965
 1294loPI   C4B20704   5.450   5.281   8.104 -0.0787  0.0995  0.2987
 1295loPI    C120705   8.800   9.866   5.362 -0.1494 -0.0507 -0.1125
 1295loPI    C220706   8.852   9.593   5.074  0.2823 -0.0755 -0.0179
 1295loPI    C320707   9.114   9.893   5.115 -0.0556  0.2190  0.0320
 1295loPI   PO420708   8.792   9.683   5.571 -0.2423  0.0083 -0.1670
 1295loPI   GL120709   8.867   9.652   6.064  0.4269 -0.0417 -0.0613
 1295loPI   GL220710   9.132   9.370   6.037  0.1810  0.1375  0.0836
 1295loPI   C1A20711   8.997   9.680   6.435  0.0514  0.1900  0.1199
 1295loPI   C2A20712   8.902   9.552   6.932 -0.1786  0.0508  0.0087
 1295loPI   C3A20713   8.857   9.486   7.285  0.4085 -0.0679 -0.1570
 1295loPI   C4A20714   8.902   9.430   7.665  0.2485 -0.2459  0.2220
 1295loPI   C5A20715   8.845   9.459   8.227  0.2593  0.0356 -0.1574
 1295loPI   C6A20716   8.870   9.248   8.623 -0.0452  0.2853  0.0233
 1295loPI   C1B20717   9.108   9.181   6.460 -0.1546  0.1042  0.2204
 1295loPI   C2B20718   9.031   9.015   6.892 -0.1126  0.1594  0.2392
 1295loPI   C3B20719   9.021   9.015   7.368  0.0269 -0.0590 -0.1767
 1295loPI   C4B20720   9.014   9.016   7.823 -0.1428  0.0614  0.2192
 1296loPI    C120721   4.861   8.927   5.446  0.0119 -0.1622 -0.1804
 1296loPI    C220722   5.061   9.206   5.241  0.0105 -0.0455 -0.0245
 1296loPI    C320723   4.706   9.077   5.109  0.0641 -0.0578 -0.1581
 1296loPI   PO420724   4.931   8.943   5.687  0.4014 -0.1777  0.0707
 1296loPI   GL120725   5.005   8.839   6.061 -0.0515  0.0030 -0.1643
 1296loPI   GL220726   5.220   8.646   6.206 -0.2218  0.1171 -0.0300
 1296loPI   C1A20727   4.985   9.166   6.469  0.0934 -0.3435  0.4597
 1296loPI   C2A20728   4.904   9.123   6.871 -0.1726 -0.0639  0.0828
 1296loPI   C3A20729   4.924   9.116   7.353  0.0642 -0.0193  0.0884
 1296loPI   C4A20730   4.826   9.145   7.785  0.0267  0.2491  0.2438
 1296loPI   C5A20731   4.711   9.129   8.308 -0.0920 -0.1055  0.2626
 1296loPI   C6A20732   4.928   9.048   8.629  0.4335 -0.2768 -0.0809
 1296loPI   C1B20733   5.015   8.712   6.642 -0.0306  0.2585 -0.1387
 1296loPI   C2B20734   4.904   8.697   7.135 -0.1881  0.0678 -0.0721
 1296loPI   C3B20735   4.908   8.673   7.570  0.4341  0.1472 -0.1715
 1296loPI   C4B20736   4.881   8.722   8.039 -0.0244  0.1212 -0.0029
 1297loPI    C120737   7.189  14.685   5.662 -0.3755 -0.0033  0.0205
 1297loPI    C220738   7.406  14.875   5.384 -0.3525 -0.0836 -0.0170
 1297loPI    C320739   7.448  14.480   5.435 -0.5844 -0.1221 -0.1135
 1297loPI   PO420740   7.283  14.827   5.901 -0.0519  0.2195 -0.3209
 1297loPI   GL120741   7.259  15.156   6.146 -0.3294 -0.1332 -0.0304
 1297loPI   GL220742   7.548  15.269   6.124 -0.1412  0.0956 -0.0271
 1297loPI   C1A20743   7.182  15.116   6.590  0.0840 -0.3427  0.1889
 1297loPI   C2A20744   7.245  15.106   7.036  0.3132 -0.2761 -0.1717
 1297loPI   C3A20745   7.126  15.096   7.461 -0.3640  0.0644  0.1759
 1297loPI   C4A20746   7.090  15.055   7.896  0.5517 -0.0107 -0.2271
 1297loPI   C5A20747   7.087  15.088   8.190 -0.1440 -0.0484  0.2789
 1297loPI   C6A20748   6.960  14.963   8.597 -0.0477 -0.3730 -0.0743
 1297loPI   C1B20749   7.650  15.354   6.508 -0.1321  0.1443  0.2765
 1297loPI   C2B20750   7.639  15.412   6.917 -0.2687 -0.0743  0.0459
 1297loPI   C3B20751   7.566  15.405   7.443  0.0314  0.1142 -0.0017
 1297loPI   C4B20752   7.476  15.346   7.845  0.3327  0.0892  0.3588
 1298loPI    C120753   0.127   9.426   5.641  0.0274 -0.1238 -0.0156
 1298loPI    C220754  -0.165   9.213   5.469  0.0879 -0.2382  0.0218
 1298loPI    C320755   0.172   9.288   5.268 -0.0653  0.1085 -0.1145
 1298loPI   PO420756   0.148   9.273   5.887  0.2834  0.2009  0.0454
 1298loPI   GL120757   0.013   9.337   6.195  0.4195  0.0683 -0.1073
 1298loPI   GL220758   0.095   9.726   6.162 -0.4334  0.0787  0.0626
 1298loPI   C1A20759  -0.050   9.144   6.636  0.4521  0.1599  0.4228
 1298loPI   C2A20760  -0.004   9.102   7.047 -0.1212  0.1998 -0.0402
 1298loPI   C3A20761  -0.161   9.153   7.337 -0.0002  0.2307  0.0277
 1298loPI   C4A20762  -0.240   9.250   7.836 -0.1183 -0.0287  0.0943
 1298loPI   C5A20763   0.017   9.348   8.218  0.1644  0.0371 -0.0331
 1298loPI   C6A20764   0.361   9.445   8.465  0.1883  0.0711  0.2299
 1298loPI   C1B20765  -0.092   9.647   6.545  0.3130 -0.0547 -0.0157
 1298loPI   C2B20766  -0.096   9.622   7.002  0.0079  0.0514 -0.3720
 1298loPI   C3B20767  -0.220   9.694   7.406 -0.2348  0.3169 -0.0627
 1298loPI   C4B20768  -0.282   9.762   7.828 -0.0508 -0.0858 -0.3064
 1299loPI    C120769  15.357  10.724   5.560 -0.1902 -0.1600 -0.0354
 1299loPI    C220770  15.165  11.054   5.441 -0.3595 -0.1543  0.2448
 1299loPI    C320771  15.082  10.703   5.270 -0.1329 -0.0460 -0.0987
 1299loPI   PO420772  15.357  10.689   5.714 -0.1064 -0.0058 -0.0033
 1299loPI   GL120773  15.522  10.715   6.093  0.4253 -0.3334  0.2885
 1299loPI   GL220774  15.220  10.880   6.217 -0.0838 -0.1767  0.2571
 1299loPI   C1A20775  15.605  10.874   6.526 -0.1184  0.0325  0.3760
 1299loPI   C2A20776  15.624  10.878   6.943  0.5136 -0.2819 -0.3969
 1299loPI   C3A20777  15.504  10.827   7.398  0.1924 -0.5183 -0.1644
 1299loPI   C4A20778  15.136  10.632   7.581  0.4754  0.0844 -0.0436
 1299loPI   C5A20779  14.893  10.736   8.046 -0.1601 -0.0502 -0.4306
 1299loPI   C6A20780  14.911  10.869   8.501 -0.2991 -0.0906  0.0676
 1299loPI   C1B20781  15.090  11.098   6.547 -0.0658  0.3142  0.1472
 1299loPI   C2B20782  15.061  11.096   7.006  0.0117  0.1871 -0.0334
 1299loPI   C3B20783  15.046  11.114   7.346  0.0171 -0.1061 -0.3923
 1299loPI   C4B20784  15.026  11.192   7.841  0.2982  0.0630  0.0855
 1300loPI    C120785  14.796  12.110   5.481 -0.0885  0.1438 -0.1012
 1300loPI    C220786  14.538  11.956   5.218  0.0606  0.0782 -0.2103
 1300loPI    C320787  14.837  12.190   5.091  0.1911 -0.0333 -0.1114
 1300loPI   PO420788  14.771  12.254   5.673  0.1804  0.3248  0.1304
 1300loPI   GL120789  14.760  12.042   6.045 -0.0514  0.1437  0.3228
 1300loPI   GL220790  15.010  11.932   6.179 -0.0815  0.3074 -0.0600
 1300loPI   C1A20791  14.554  12.173   6.447 -0.0699  0.1423 -0.0426
 1300loPI   C2A20792  14.471  12.252   6.856 -0.1662  0.3387  0.1252
 1300loPI   C3A20793  14.451  12.278   7.202  0.0777  0.1078 -0.1335
 1300loPI   C4A20794  14.481  12.214   7.666 -0.2698  0.0070 -0.1078
 1300loPI   C5A20795  14.331  12.058   8.029 -0.3926  0.0926 -0.0002
 1300loPI   C6A20796  13.963  12.078   8.311 -0.0800 -0.0245 -0.3325
 1300loPI   C1B20797  15.025  12.097   6.587 -0.2305 -0.2069 -0.3357
 1300loPI   C2B20798  14.985  12.046   7.013  0.1833  0.1177 -0.1618
 1300loPI   C3B20799  14.959  12.151   7.421  0.0430 -0.0922 -0.2285
 1300loPI   C4B20800  14.908  12.176   7.908  0.0691 -0.1792  0.0915
 1301loPI    C120801   1.075   9.285   5.701  0.0698 -0.0007  0.1289
 1301loPI    C220802   1.422   9.445   5.584  0.0915 -0.0884  0.0720
 1301loPI    C320803   1.079   9.641   5.520  0.1081 -0.1120 -0.0922
 1301loPI   PO420804   1.074   9.125   5.777 -0.0590  0.1944  0.1295
 1301loPI   GL120805   0.924   9.129   6.226  0.5128 -0.0645 -0.0281
 1301loPI   GL220806   1.223   9.143   6.250 -0.3708  0.3221  0.1141
 1301loPI   C1A20807   0.811   9.281   6.629 -0.0838  0.0429 -0.2623
 1301loPI   C2A20808   0.764   9.270   7.081  0.2162 -0.3122  0.2611
 1301loPI   C3A20809   0.729   9.328   7.546 -0.2119  0.1846 -0.0185
 1301loPI   C4A20810   0.700   9.354   8.015  0.3606 -0.2072  0.2194
 1301loPI   C5A20811   0.821   9.216   8.403  0.0934  0.0246  0.2375
 1301loPI   C6A20812   1.183   9.137   8.670  0.2255  0.0199  0.1686
 1301loPI   C1B20813   1.260   9.100   6.678  0.1407  0.1551 -0.0698
 1301loPI   C2B20814   1.254   9.056   7.118 -0.0797  0.0539 -0.2207
 1301loPI   C3B20815   1.223   9.042   7.534  0.0930 -0.1822  0.0623
 1301loPI   C4B20816   1.199   9.159   8.046 -0.1549 -0.0274 -0.0423
 1302loPI    C120817   0.346  15.314   5.573  0.2367 -0.1001 -0.0302
 1302loPI    C220818   0.440  15.010   5.331 -0.1858  0.0708 -0.4242
 1302loPI    C320819   0.506  15.387   5.214  0.0664  0.1456 -0.0593
 1302loPI   PO420820   0.330  15.177   5.786 -0.0555 -0.0015 -0.1289
 1302loPI   GL120821   0.164  15.232   6.146 -0.0600  0.0015 -0.0786
 1302loPI   GL220822  -0.001  15.449   6.210  0.1234 -0.0520  0.0676
 1302loPI   C1A20823   0.384  15.293   6.584 -0.2162 -0.0171  0.0313
 1302loPI   C2A20824   0.338  15.276   7.000 -0.0051 -0.3079  0.1379
 1302loPI   C3A20825   0.379  15.194   7.395 -0.0402  0.1034  0.0558
 1302loPI   C4A20826   0.352  15.234   7.771  0.1720  0.3606 -0.1370
 1302loPI   C5A20827   0.324  15.261   8.135 -0.1301 -0.0345  0.1860
 1302loPI   C6A20828   0.343  15.010   8.573 -0.0577 -0.0612  0.0734
 1302loPI   C1B20829  -0.100  15.400   6.634 -0.1469 -0.2862  0.0675
 1302loPI   C2B20830  -0.167  15.368   6.969  0.1873 -0.2229  0.2024
 1302loPI   C3B20831  -0.082  15.412   7.335 -0.0056  0.1208 -0.0616
 1302loPI   C4B20832  -0.078  15.466   7.842 -0.0240  0.2728 -0.2682
 1303loPI    C120833   4.107  14.541   5.354 -0.0617  0.2284 -0.0481
 1303loPI    C220834   4.365  14.390   5.087 -0.0863  0.0178  0.0455
 1303loPI    C320835   3.975  14.301   5.062 -0.1112  0.1222  0.0606
 1303loPI   PO420836   4.178  14.600   5.645 -0.0082 -0.0012  0.1770
 1303loPI   GL120837   4.308  14.823   6.116  0.0428 -0.2558  0.3366
 1303loPI   GL220838   4.136  15.129   6.178 -0.2516  0.0319  0.0788
 1303loPI   C1A20839   4.097  14.802   6.568 -0.1229  0.1102 -0.1367
 1303loPI   C2A20840   4.114  14.831   6.947 -0.0707  0.0653  0.1437
 1303loPI   C3A20841   4.089  14.752   7.343  0.1129 -0.1382 -0.0012
 1303loPI   C4A20842   3.939  14.731   7.623  0.0055  0.0627 -0.0256
 1303loPI   C5A20843   3.951  14.751   8.018 -0.3078  0.0195  0.0691
 1303loPI   C6A20844   4.052  14.688   8.397 -0.0211 -0.0085  0.2113
 1303loPI   C1B20845   4.054  15.342   6.547 -0.0611  0.2503 -0.0939
 1303loPI   C2B20846   4.017  15.282   6.880  0.0996 -0.0334 -0.1488
 1303loPI   C3B20847   3.883  15.293   7.236  0.1929 -0.1947 -0.1903
 1303loPI   C4B20848   3.926  15.255   7.769 -0.2449  0.1814 -0.0187
 1304loPI    C120849  17.258  13.758   5.781 -0.3219 -0.1805  0.1322
 1304loPI    C220850  17.262  13.899   5.407 -0.1203  0.0081  0.2031
 1304loPI    C320851  17.404  13.533   5.484  0.1005  0.0780  0.1359
 1304loPI   PO420852  17.335  13.966   5.927  0.2664 -0.1711 -0.1261
 1304loPI   GL120853  17.718  13.954   6.151  0.0599 -0.1942  0.0922
 1304loPI   GL220854  17.819  14.220   6.230 -0.2252  0.0108 -0.0194
 1304loPI   C1A20855  17.972  13.905   6.603 -0.1471 -0.1103  0.1731
 1304loPI   C2A20856  17.895  13.946   7.004 -0.0229 -0.0261 -0.1547
 1304loPI   C3A20857  17.880  13.909   7.437  0.1354 -0.0503 -0.0198
 1304loPI   C4A20858  17.846  13.938   7.816  0.4254  0.4807 -0.0136
 1304loPI   C5A20859  17.867  13.885   8.246 -0.2868 -0.1239  0.1607
 1304loPI   C6A20860  17.920  13.717   8.573  0.2145 -0.0674 -0.2488
 1304loPI   C1B20861  17.766  14.379   6.660  0.0503 -0.1131  0.1772
 1304loPI   C2B20862  17.735  14.422   7.065  0.1419 -0.1633 -0.1791
 1304loPI   C3B20863  17.775  14.419   7.486  0.1280 -0.0780  0.1812
 1304loPI   C4B20864  17.737  14.465   7.934 -0.3742  0.2205 -0.0625
 1305loPI    C120865  13.797  16.520   5.553  0.0070 -0.0171 -0.0822
 1305loPI    C220866  13.844  16.205   5.311 -0.0403  0.0329 -0.1570
 1305loPI    C320867  13.767  16.566   5.157 -0.0849  0.0622 -0.0664
 1305loPI   PO420868  13.937  16.496   5.743 -0.1327  0.3469 -0.1242
 1305loPI   GL120869  14.101  16.623   6.180  0.1290  0.3810  0.2106
 1305loPI   GL220870  13.808  16.390   6.271  0.0528  0.0103 -0.0877
 1305loPI   C1A20871  14.165  16.699   6.552 -0.0334 -0.3402  0.1833
 1305loPI   C2A20872  14.236  16.656   6.878  0.0492  0.2187 -0.0046
 1305loPI   C3A20873  14.187  16.613   7.304 -0.0307 -0.0650  0.0310
 1305loPI   C4A20874  14.231  16.638   7.728 -0.0393 -0.0259 -0.1889
 1305loPI   C5A20875  14.287  16.484   8.130 -0.1594 -0.0624 -0.1909
 1305loPI   C6A20876  14.342  16.446   8.558 -0.0854 -0.0566 -0.1217
 1305loPI   C1B20877  13.736  16.313   6.625 -0.4409  0.1769 -0.0707
 1305loPI   C2B20878  13.734  16.247   7.083 -0.2258 -0.2219  0.0182
 1305loPI   C3B20879  13.806  16.297   7.514  0.0324 -0.1367  0.2272
 1305loPI   C4B20880  13.874  16.225   7.882 -0.1300 -0.1626  0.0345
 1306loPI    C120881  17.357   5.195   5.447  0.1935  0.0826  0.0638
 1306loPI    C220882  17.335   4.956   5.127  0.1218 -0.1720  0.2553
 1306loPI    C320883  17.047   5.224   5.197  0.1110 -0.1518  0.1362
 1306loPI   PO420884  17.405   5.067   5.658  0.3979 -0.1142 -0.1508
 1306loPI   GL120885  17.504   5.294   6.077 -0.1407  0.0304 -0.1791
 1306loPI   GL220886  17.484   4.951   6.366 -0.0092 -0.0398 -0.1769
 1306loPI   C1A20887  17.342   5.408   6.416 -0.0157  0.2267  0.0071
 1306loPI   C2A20888  17.335   5.436   6.850  0.2257  0.3612 -0.0171
 1306loPI   C3A20889  17.269   5.435   7.236 -0.3136 -0.0077  0.3564
 1306loPI   C4A20890  17.219   5.476   7.611 -0.3175  0.2291  0.0754
 1306loPI   C5A20891  17.167   5.509   8.099 -0.0757  0.0449  0.1818
 1306loPI   C6A20892  17.433   5.679   8.320  0.1460 -0.0853 -0.1070
 1306loPI   C1B20893  17.409   4.804   6.852 -0.1476  0.1068 -0.1804
 1306loPI   C2B20894  17.377   4.917   7.237  0.2453 -0.0521 -0.1869
 1306loPI   C3B20895  17.357   4.932   7.568 -0.0834  0.0423 -0.0851
 1306loPI   C4B20896  17.236   4.962   8.076 -0.0938  0.0520  0.1641
 1307loPI    C120897   0.855   1.064   5.255 -0.3278  0.1235  0.0868
 1307loPI    C220898   0.775   1.229   4.900 -0.3120 -0.0406  0.0060
 1307loPI    C320899   0.650   0.857   4.980  0.0216 -0.1513  0.0261
 1307loPI   PO420900   0.788   1.147   5.403  0.1560  0.1473 -0.3242
 1307loPI   GL120901   0.822   1.160   5.882  0.1880  0.0141 -0.1733
 1307loPI   GL220902   0.983   0.822   6.035 -0.0081 -0.0664  0.2588
 1307loPI   C1A20903   0.751   1.128   6.427 -0.1953 -0.1232 -0.2099
 1307loPI   C2A20904   0.795   1.162   6.869  0.0377 -0.2095 -0.1491
 1307loPI   C3A20905   0.612   1.199   7.244  0.2440  0.0280  0.2469
 1307loPI   C4A20906   0.687   1.208   7.642  0.3352 -0.0886  0.1207
 1307loPI   C5A20907   0.622   1.192   8.052  0.0943 -0.0232 -0.0014
 1307loPI   C6A20908   0.601   1.144   8.549  0.0269  0.2076 -0.1200
 1307loPI   C1B20909   0.854   0.624   6.457 -0.3653  0.0960  0.0753
 1307loPI   C2B20910   0.858   0.604   6.929 -0.1885  0.6449 -0.0738
 1307loPI   C3B20911   0.837   0.779   7.260 -0.0801  0.1012  0.0842
 1307loPI   C4B20912   0.680   0.705   7.666  0.0341 -0.0833 -0.0696
 1308loPI    C120913  15.524   3.699   5.535 -0.0646 -0.1112 -0.0115
 1308loPI    C220914  15.467   3.422   5.251  0.1206 -0.1287 -0.0330
 1308loPI    C320915  15.739   3.710   5.198 -0.0191  0.0149  0.0213
 1308loPI   PO420916  15.507   3.503   5.826 -0.0078  0.0098 -0.0987
 1308loPI   GL120917  15.469   3.378   6.211 -0.0009  0.0891  0.1500
 1308loPI   GL220918  15.204   3.689   6.258  0.2156  0.1704  0.0946
 1308loPI   C1A20919  15.372   3.248   6.610 -0.0673 -0.0100 -0.0745
 1308loPI   C2A20920  15.437   3.289   6.951  0.1373  0.0333 -0.2629
 1308loPI   C3A20921  15.395   3.277   7.307 -0.1449  0.0253 -0.0057
 1308loPI   C4A20922  15.268   3.299   7.659 -0.0481  0.0934 -0.0562
 1308loPI   C5A20923  15.330   3.303   8.175 -0.0942 -0.1706  0.1784
 1308loPI   C6A20924  15.559   2.904   8.333  0.2273 -0.3241  0.1548
 1308loPI   C1B20925  15.249   3.678   6.696 -0.2610  0.1333 -0.0871
 1308loPI   C2B20926  15.276   3.815   7.086  0.4281  0.0994 -0.0463
 1308loPI   C3B20927  15.273   3.820   7.518 -0.2697 -0.2461 -0.0683
 1308loPI   C4B20928  15.292   3.816   7.936 -0.0061  0.0672 -0.0498
 1309loPI    C120929   3.022   8.406   5.508  0.0204 -0.0504  0.2200
 1309loPI    C220930   3.185   8.393   5.143  0.0895  0.2795  0.2355
 1309loPI    C320931   2.990   8.075   5.287  0.2737  0.0609  0.0110
 1309loPI   PO420932   3.163   8.469   5.648 -0.1369  0.0159 -0.1541
 1309loPI   GL120933   3.261   8.364   6.148 -0.2752 -0.1438  0.0044
 1309loPI   GL220934   3.274   7.997   6.302  0.0454  0.1725 -0.0233
 1309loPI   C1A20935   3.182   8.417   6.624 -0.0369 -0.0498 -0.1750
 1309loPI   C2A20936   3.242   8.352   7.098 -0.4907 -0.3090 -0.2785
 1309loPI   C3A20937   3.124   8.263   7.560  0.0963  0.1245 -0.2111
 1309loPI   C4A20938   3.103   8.373   7.975  0.0754 -0.0615  0.1398
 1309loPI   C5A20939   3.145   8.501   8.398  0.0056 -0.1010  0.0856
 1309loPI   C6A20940   3.433   8.188   8.476 -0.1517  0.0336  0.0797
 1309loPI   C1B20941   3.227   7.915   6.798  0.1452  0.2393  0.4196
 1309loPI   C2B20942   3.277   7.867   7.256  0.0061 -0.0958 -0.4417
 1309loPI   C3B20943   3.226   7.790   7.615  0.1155 -0.0407  0.1710
 1309loPI   C4B20944   3.178   7.890   8.049 -0.0808 -0.0267  0.1346
 1310loPI    C120945   8.217   5.402   5.423 -0.0825  0.4091 -0.3367
 1310loPI    C220946   7.899   5.493   5.649 -0.0634  0.0198 -0.1443
 1310loPI    C320947   7.849   5.377   5.269 -0.1530 -0.0492 -0.1117
 1310loPI   PO420948   8.471   5.463   5.562 -0.4592  0.0803 -0.2302
 1310loPI   GL120949   8.740   5.598   5.991  0.4026 -0.1185  0.3535
 1310loPI   GL220950   8.820   5.914   6.120 -0.0762  0.0003  0.1697
 1310loPI   C1A20951   8.731   5.331   6.350 -0.0593  0.0258 -0.1438
 1310loPI   C2A20952   8.685   5.268   6.778  0.0587 -0.2048 -0.0007
 1310loPI   C3A20953   8.621   5.324   7.280 -0.6518  0.0547 -0.1054
 1310loPI   C4A20954   8.673   5.295   7.620 -0.2633 -0.3129 -0.1740
 1310loPI   C5A20955   8.667   5.347   8.079 -0.2940 -0.0092 -0.4300
 1310loPI   C6A20956   8.663   5.577   8.431 -0.0048 -0.0532  0.0286
 1310loPI   C1B20957   8.612   5.770   6.533  0.2917 -0.0904 -0.0747
 1310loPI   C2B20958   8.614   5.776   6.953  0.1420 -0.0559 -0.1056
 1310loPI   C3B20959   8.602   5.838   7.302  0.1104  0.2772  0.2927
 1310loPI   C4B20960   8.668   5.804   7.672  0.0200  0.1645 -0.2043
 1311loPI    C120961  12.729   4.960   5.436 -0.1237  0.0266 -0.1044
 1311loPI    C220962  12.717   5.245   5.155 -0.0304  0.1123 -0.0226
 1311loPI    C320963  12.796   4.866   5.053  0.1654  0.1708 -0.0919
 1311loPI   PO420964  12.556   5.039   5.583 -0.0936 -0.1576 -0.1038
 1311loPI   GL120965  12.491   5.033   6.030  0.0067  0.1184  0.2613
 1311loPI   GL220966  12.312   4.832   6.228  0.0923  0.0639 -0.3132
 1311loPI   C1A20967  12.316   5.311   6.409  0.0259 -0.0614 -0.2465
 1311loPI   C2A20968  12.245   5.327   6.790 -0.1593  0.1729 -0.0320
 1311loPI   C3A20969  12.319   5.304   7.240 -0.4003 -0.1130  0.0468
 1311loPI   C4A20970  12.362   5.372   7.562  0.2269 -0.0949  0.0026
 1311loPI   C5A20971  12.408   5.320   7.998 -0.1072 -0.1792  0.0346
 1311loPI   C6A20972  12.499   5.523   8.364 -0.4159  0.3245 -0.0019
 1311loPI   C1B20973  12.354   4.852   6.715 -0.0080  0.2806  0.1289
 1311loPI   C2B20974  12.389   4.835   7.165  0.0722 -0.0413 -0.0630
 1311loPI   C3B20975  12.470   4.868   7.563 -0.4784 -0.1469 -0.0372
 1311loPI   C4B20976  12.396   4.817   8.027  0.0953  0.0526  0.0271
 1312loPI    C120977  16.407   1.978   5.342 -0.1960 -0.2719 -0.2449
 1312loPI    C220978  16.792   2.046   5.256 -0.2025  0.2525  0.0916
 1312loPI    C320979  16.537   1.944   4.965  0.2120 -0.2541 -0.1116
 1312loPI   PO420980  16.500   2.038   5.626 -0.0132  0.1909  0.2656
 1312loPI   GL120981  16.457   2.327   5.931  0.1160  0.3152  0.1521
 1312loPI   GL220982  16.601   2.023   6.116 -0.2226 -0.1542 -0.4020
 1312loPI   C1A20983  16.468   2.399   6.318  0.0307 -0.3138 -0.0438
 1312loPI   C2A20984  16.452   2.447   6.735  0.1834  0.1260 -0.0576
 1312loPI   C3A20985  16.407   2.353   7.162  0.1303  0.0313 -0.2316
 1312loPI   C4A20986  16.331   2.377   7.557  0.0163  0.0004 -0.0412
 1312loPI   C5A20987  16.295   2.373   7.955 -0.0435  0.1578 -0.2272
 1312loPI   C6A20988  16.268   2.050   8.254  0.1623 -0.0447  0.1761
 1312loPI   C1B20989  16.462   1.931   6.551  0.1356  0.0295 -0.2146
 1312loPI   C2B20990  16.486   1.936   6.941 -0.0252 -0.0364 -0.1089
 1312loPI   C3B20991  16.508   1.906   7.444 -0.1345 -0.0724 -0.0307
 1312loPI   C4B20992  16.607   1.962   7.852  0.0613  0.3939  0.1037
 1313loPI    C120993   2.039   6.389   5.946  0.0676  0.0611  0.0542
 1313loPI    C220994   2.010   6.050   6.157  0.2082  0.0243  0.0157
 1313loPI    C320995   2.183   6.047   5.796  0.0106  0.0960 -0.0815
 1313loPI   PO420996   2.137   6.616   6.121  0.2249 -0.0013  0.3327
 1313loPI   GL120997   2.120   6.779   6.527 -0.1331 -0.1458 -0.1844
 1313loPI   GL220998   2.393   6.752   6.604  0.0818 -0.1804 -0.1958
 1313loPI   C1A20999   2.076   6.923   6.916  0.0173 -0.2379  0.3443
 1313loPI   C2A21000   2.008   6.856   7.302  0.1506  0.2425  0.5596
 1313loPI   C3A21001   1.990   6.695   7.742 -0.0465 -0.1393  0.2422
 1313loPI   C4A21002   1.830   6.527   8.105 -0.0052 -0.4432  0.2473
 1313loPI   C5A21003   1.801   6.714   8.509 -0.2431 -0.0075  0.3056
 1313loPI   C6A21004   1.655   6.759   8.935 -0.4159 -0.0792  0.1269
 1313loPI   C1B21005   2.552   6.646   6.997  0.1367  0.2018 -0.1799
 1313loPI   C2B21006   2.495   6.656   7.469  0.2435  0.1141 -0.3072
 1313loPI   C3B21007   2.504   6.591   7.906  0.0808  0.0963  0.0042
 1313loPI   C4B21008   2.236   6.559   8.313 -0.2181  0.3988 -0.1746
 1314loPI    C121009  16.285   4.235   5.477  0.0549  0.0620 -0.1575
 1314loPI    C221010  16.489   4.577   5.443  0.0013  0.0938 -0.1597
 1314loPI    C321011  16.471   4.324   5.134  0.2987 -0.0557 -0.0582
 1314loPI   PO421012  16.374   4.170   5.774 -0.0711 -0.0943 -0.2138
 1314loPI   GL121013  16.167   4.093   6.106 -0.0426  0.0216 -0.0108
 1314loPI   GL221014  16.307   3.818   6.148 -0.1017  0.4589 -0.1155
 1314loPI   C1A21015  16.157   4.410   6.419  0.0884  0.2594 -0.0317
 1314loPI   C2A21016  16.115   4.495   6.823  0.0096  0.0070 -0.1065
 1314loPI   C3A21017  16.088   4.429   7.236 -0.2896 -0.1470  0.1153
 1314loPI   C4A21018  16.122   4.507   7.701  0.1099  0.0083  0.0403
 1314loPI   C5A21019  16.132   4.503   8.135 -0.0033  0.0887 -0.0633
 1314loPI   C6A21020  16.157   4.569   8.587 -0.2906 -0.3978 -0.1710
 1314loPI   C1B21021  16.199   3.888   6.600 -0.1825 -0.1862  0.0170
 1314loPI   C2B21022  16.138   3.985   7.070 -0.1014  0.0746  0.1078
 1314loPI   C3B21023  16.221   3.992   7.501 -0.1824  0.4150 -0.0532
 1314loPI   C4B21024  16.092   3.896   7.969 -0.0287  0.3381  0.1522
 1315loPI    C121025  11.549   5.136   5.494  0.2234  0.1197  0.2530
 1315loPI    C221026  11.484   5.483   5.307  0.3698  0.1144  0.1909
 1315loPI    C321027  11.744   5.219   5.155 -0.2044 -0.2991 -0.1098
 1315loPI   PO421028  11.475   5.164   5.772 -0.3317 -0.2049  0.3525
 1315loPI   GL121029  11.628   5.337   6.169  0.0004 -0.2132 -0.0999
 1315loPI   GL221030  11.974   5.325   6.098 -0.1456 -0.0243  0.0889
 1315loPI   C1A21031  11.544   5.345   6.613 -0.0736 -0.2267 -0.1160
 1315loPI   C2A21032  11.485   5.186   7.016 -0.2018 -0.1757 -0.0606
 1315loPI   C3A21033  11.507   5.078   7.404 -0.1988 -0.1078 -0.1883
 1315loPI   C4A21034  11.376   5.207   7.767 -0.1144 -0.0342 -0.0962
 1315loPI   C5A21035  11.203   5.121   8.127 -0.2964 -0.0066 -0.1312
 1315loPI   C6A21036  11.162   4.714   8.400 -0.1382  0.2108  0.0951
 1315loPI   C1B21037  11.880   4.993   6.455  0.2979  0.2701  0.2256
 1315loPI   C2B21038  11.943   4.926   6.980  0.2821 -0.0167 -0.0996
 1315loPI   C3B21039  11.974   4.914   7.413 -0.2042  0.0350  0.0552
 1315loPI   C4B21040  11.941   5.019   7.904  0.0228 -0.0523  0.3221
 1316loPI    C121041  14.325  17.193   5.440 -0.0780  0.1008  0.0804
 1316loPI    C221042  14.176  16.843   5.319  0.0226  0.1037 -0.0547
 1316loPI    C321043  14.366  17.079   5.059  0.1094  0.1789  0.0760
 1316loPI   PO421044  14.489  17.119   5.694  0.1701  0.3205  0.0273
 1316loPI   GL121045  14.392  17.106   6.101 -0.0641 -0.1170  0.2644
 1316loPI   GL221046  14.075  17.095   6.260 -0.1215 -0.0903 -0.0627
 1316loPI   C1A21047  14.612  17.052   6.432 -0.0973 -0.1603  0.0754
 1316loPI   C2A21048  14.633  16.990   6.921  0.2166  0.0050 -0.1241
 1316loPI   C3A21049  14.688  16.922   7.386  0.1201  0.1172 -0.0091
 1316loPI   C4A21050  14.589  17.005   7.872 -0.0609  0.0795 -0.1672
 1316loPI   C5A21051  14.728  16.936   8.304 -0.0811  0.2180  0.3070
 1316loPI   C6A21052  14.841  17.286   8.682 -0.2226 -0.0373  0.0958
 1316loPI   C1B21053  14.173  17.188   6.688 -0.1273 -0.2180  0.0953
 1316loPI   C2B21054  14.115  17.068   7.077  0.1922 -0.1564 -0.2148
 1316loPI   C3B21055  14.221  17.163   7.520  0.0960 -0.3077  0.1277
 1316loPI   C4B21056  14.176  17.193   7.996  0.1798 -0.1331  0.0605
 1317loPI    C121057   6.565   5.169   5.468  0.1215 -0.2019  0.0039
 1317loPI    C221058   6.649   5.028   5.103 -0.0298 -0.0762 -0.0804
 1317loPI    C321059   6.377   5.319   5.148 -0.0462 -0.1237  0.1374
 1317loPI   PO421060   6.630   4.869   5.569 -0.2651  0.2576 -0.0785
 1317loPI   GL121061   6.706   4.575   5.916  0.0530 -0.1669 -0.2980
 1317loPI   GL221062   6.863   4.755   6.020  0.1612 -0.0498 -0.0724
 1317loPI   C1A21063   6.466   4.759   6.336  0.0019  0.1948 -0.2817
 1317loPI   C2A21064   6.596   4.791   6.727 -0.3192 -0.1317 -0.0242
 1317loPI   C3A21065   6.449   4.751   7.125  0.0393  0.0823  0.3110
 1317loPI   C4A21066   6.437   4.844   7.574  0.1663 -0.0766 -0.0540
 1317loPI   C5A21067   6.470   4.756   7.987 -0.1479 -0.0402  0.0776
 1317loPI   C6A21068   6.761   4.589   8.216  0.2208 -0.4336  0.2892
 1317loPI   C1B21069   7.008   4.552   6.459  0.2189 -0.1492 -0.1760
 1317loPI   C2B21070   7.043   4.606   6.935  0.2222 -0.1019 -0.0057
 1317loPI   C3B21071   6.920   4.607   7.362 -0.2219 -0.0635  0.1303
 1317loPI   C4B21072   6.933   4.647   7.781 -0.0672  0.0785  0.1116
 1318loPI    C121073  15.650  11.127   5.424  0.2911 -0.0643  0.0175
 1318loPI    C221074  15.833  11.287   5.106 -0.0975  0.2706 -0.0463
 1318loPI    C321075  15.554  11.006   5.055  0.4184 -0.2805  0.0536
 1318loPI   PO421076  15.884  11.040   5.614 -0.1688  0.2178 -0.0299
 1318loPI   GL121077  16.075  10.795   6.057  0.0918 -0.0204 -0.4339
 1318loPI   GL221078  15.863  11.095   6.185 -0.0391 -0.1151 -0.1378
 1318loPI   C1A21079  16.012  10.669   6.412  0.0246 -0.1940 -0.2491
 1318loPI   C2A21080  16.040  10.723   6.784  0.0011 -0.1057 -0.0413
 1318loPI   C3A21081  15.998  10.682   7.167 -0.0352 -0.0760 -0.1679
 1318loPI   C4A21082  15.937  10.688   7.610  0.1186 -0.1938  0.0057
 1318loPI   C5A21083  15.643  10.851   7.863 -0.0395  0.0807 -0.2898
 1318loPI   C6A21084  15.418  11.033   8.179  0.1912 -0.0474 -0.1067
 1318loPI   C1B21085  15.957  11.176   6.599  0.0785  0.1925  0.1005
 1318loPI   C2B21086  16.001  11.214   7.067 -0.1845 -0.0506  0.1854
 1318loPI   C3B21087  15.867  11.196   7.418  0.0619  0.0619 -0.1051
 1318loPI   C4B21088  15.927  11.269   7.811  0.1939  0.2675 -0.1357
 1319loPI    C121089  15.184   7.294   5.543 -0.2113  0.0465  0.1350
 1319loPI    C221090  14.996   7.482   5.244 -0.0085 -0.2058 -0.1577
 1319loPI    C321091  15.352   7.312   5.180  0.2088  0.0504  0.3241
 1319loPI   PO421092  15.156   7.498   5.765  0.1080 -0.1277  0.0383
 1319loPI   GL121093  15.237   7.383   6.160  0.1030 -0.5920  0.1830
 1319loPI   GL221094  14.892   7.262   6.084 -0.1757 -0.1622 -0.0541
 1319loPI   C1A21095  15.258   7.154   6.456  0.3441  0.0186 -0.1878
 1319loPI   C2A21096  15.280   7.151   6.942  0.1720 -0.0940 -0.0395
 1319loPI   C3A21097  15.230   7.173   7.453 -0.2501 -0.2902  0.2039
 1319loPI   C4A21098  15.168   7.173   7.894 -0.1714  0.0587  0.3713
 1319loPI   C5A21099  15.023   7.145   8.231 -0.0648  0.1682  0.1430
 1319loPI   C6A21100  15.151   7.116   8.570  0.2754  0.0680 -0.0626
 1319loPI   C1B21101  14.822   7.396   6.541  0.0224  0.3787 -0.0206
 1319loPI   C2B21102  14.808   7.318   7.016  0.2618  0.1179 -0.1969
 1319loPI   C3B21103  14.727   7.362   7.457 -0.3912  0.2108 -0.1421
 1319loPI   C4B21104  14.669   7.327   7.926  0.2755  0.1381  0.0931
 1320loPI    C121105   3.455   4.648   5.484 -0.0802 -0.0716 -0.2190
 1320loPI    C221106   3.290   4.936   5.260 -0.0289  0.0109 -0.1516
 1320loPI    C321107   3.472   4.626   5.085 -0.0835  0.0196 -0.2244
 1320loPI   PO421108   3.451   4.760   5.723 -0.0035 -0.1527 -0.1476
 1320loPI   GL121109   3.282   4.794   6.193  0.2550  0.0121  0.0350
 1320loPI   GL221110   3.713   4.784   6.294  0.2506 -0.1606  0.2869
 1320loPI   C1A21111   3.288   4.858   6.698  0.0993 -0.0410  0.2002
 1320loPI   C2A21112   3.208   4.948   6.984 -0.1220 -0.0106  0.2176
 1320loPI   C3A21113   3.224   5.025   7.409  0.2437 -0.0400 -0.0697
 1320loPI   C4A21114   3.361   4.949   7.819  0.1821 -0.2196  0.0965
 1320loPI   C5A21115   3.347   4.753   8.227 -0.0758 -0.1254  0.2369
 1320loPI   C6A21116   3.540   4.714   8.569 -0.0877 -0.1126 -0.0863
 1320loPI   C1B21117   3.736   4.755   6.771 -0.2157 -0.0090  0.2743
 1320loPI   C2B21118   3.678   4.757   7.234  0.0164 -0.0159  0.0837
 1320loPI   C3B21119   3.854   4.830   7.649  0.1233 -0.0339  0.0417
 1320loPI   C4B21120   3.800   4.896   8.112 -0.2772  0.0786  0.1533
 1321loPI    C121121   9.422  12.814   5.236  0.0311  0.0070  0.1469
 1321loPI    C221122   9.604  13.099   5.023 -0.0762 -0.1213 -0.1206
 1321loPI    C321123   9.205  13.092   5.048 -0.0680 -0.1653  0.0040
 1321loPI   PO421124   9.524  12.750   5.567  0.1975  0.2866 -0.2358
 1321loPI   GL121125   9.524  12.504   5.886 -0.1778 -0.2581 -0.0990
 1321loPI   GL221126   9.740  12.269   6.003  0.1519  0.0532 -0.0133
 1321loPI   C1A21127   9.436  12.656   6.258  0.3091  0.1805 -0.3684
 1321loPI   C2A21128   9.478  12.623   6.719  0.0824 -0.1107  0.1690
 1321loPI   C3A21129   9.297  12.745   7.148 -0.2077 -0.0497 -0.0046
 1321loPI   C4A21130   9.349  12.729   7.560  0.0891 -0.0861  0.1142
 1321loPI   C5A21131   9.366  12.782   7.942  0.1231  0.0949 -0.1006
 1321loPI   C6A21132   9.544  12.684   8.217 -0.3485 -0.3210 -0.3037
 1321loPI   C1B21133   9.627  12.187   6.561 -0.4018  0.1004 -0.0032
 1321loPI   C2B21134   9.517  12.157   6.942 -0.1483  0.3358 -0.0458
 1321loPI   C3B21135   9.342  12.233   7.430  0.0744  0.1027  0.1685
 1321loPI   C4B21136   9.432  12.249   7.823  0.0934  0.1046  0.0448
 1322loPI    C121137  11.691  11.522   5.246 -0.1947 -0.1751 -0.0210
 1322loPI    C221138  11.543  11.875   5.132  0.2322  0.0143 -0.0084
 1322loPI    C321139  11.859  11.720   4.942  0.1974 -0.2469  0.1424
 1322loPI   PO421140  11.749  11.579   5.511 -0.1615 -0.2408 -0.2812
 1322loPI   GL121141  11.860  11.820   5.863  0.1198 -0.4724 -0.0866
 1322loPI   GL221142  11.515  11.908   5.986 -0.0036  0.2312  0.1651
 1322loPI   C1A21143  11.927  11.799   6.329  0.2552 -0.1344  0.2872
 1322loPI   C2A21144  11.950  11.823   6.801 -0.1538  0.1052 -0.1924
 1322loPI   C3A21145  11.781  11.753   7.183 -0.0291  0.4126 -0.2348
 1322loPI   C4A21146  11.794  11.828   7.565  0.2767 -0.0267  0.0878
 1322loPI   C5A21147  11.656  11.758   7.962  0.0107 -0.0868  0.3461
 1322loPI   C6A21148  11.625  11.890   8.313 -0.0620 -0.4001 -0.0042
 1322loPI   C1B21149  11.450  12.033   6.397 -0.2051  0.1460 -0.1692
 1322loPI   C2B21150  11.367  11.996   6.879 -0.1313  0.0350 -0.2244
 1322loPI   C3B21151  11.233  11.955   7.384 -0.1638 -0.2324 -0.0680
 1322loPI   C4B21152  11.200  11.996   7.792 -0.1160  0.0441  0.0713
 1323loPI    C121153  10.608   7.293   5.536  0.0490 -0.0957 -0.1402
 1323loPI    C221154  10.832   7.595   5.398  0.0740 -0.1079 -0.1262
 1323loPI    C321155  10.768   7.273   5.169  0.0888 -0.1140 -0.1218
 1323loPI   PO421156  10.652   7.276   5.772  0.0848 -0.1327  0.1836
 1323loPI   GL121157  10.501   7.104   6.198 -0.1037 -0.1386  0.0601
 1323loPI   GL221158  10.375   7.416   6.177  0.0661  0.0948  0.0804
 1323loPI   C1A21159  10.233   7.164   6.608 -0.2482  0.3407 -0.1261
 1323loPI   C2A21160  10.276   7.056   7.041  0.0779 -0.0705 -0.3429
 1323loPI   C3A21161  10.237   7.040   7.508  0.0462  0.2029 -0.1806
 1323loPI   C4A21162  10.300   7.169   7.956  0.0597 -0.4145 -0.3113
 1323loPI   C5A21163  10.082   7.203   8.309  0.0507 -0.1219  0.0426
 1323loPI   C6A21164  10.188   7.249   8.612  0.2289 -0.1137  0.1136
 1323loPI   C1B21165  10.612   7.475   6.538  0.3935 -0.0409  0.1482
 1323loPI   C2B21166  10.681   7.400   6.935 -0.0545  0.2554  0.3023
 1323loPI   C3B21167  10.612   7.356   7.321  0.1881  0.0783  0.0283
 1323loPI   C4B21168  10.697   7.423   7.799  0.0837  0.0594 -0.3220
 1324loPI    C121169   8.931  14.186   5.569 -0.1133 -0.0576  0.1540
 1324loPI    C221170   8.576  14.073   5.424 -0.0689 -0.2655  0.2048
 1324loPI    C321171   8.913  13.930   5.262 -0.0117 -0.2009  0.2663
 1324loPI   PO421172   8.806  14.261   5.854  0.2625 -0.0395 -0.2804
 1324loPI   GL121173   8.483  14.260   6.229  0.4022 -0.1106 -0.2398
 1324loPI   GL221174   8.611  13.909   6.319  0.1643 -0.2316 -0.5311
 1324loPI   C1A21175   8.665  14.339   6.628  0.0604 -0.2900  0.1482
 1324loPI   C2A21176   8.554  14.399   6.944 -0.0795  0.0997 -0.2027
 1324loPI   C3A21177   8.569  14.484   7.343  0.0613  0.1422 -0.2610
 1324loPI   C4A21178   8.480  14.467   7.819  0.5095  0.1030  0.1300
 1324loPI   C5A21179   8.637  14.599   8.190  0.1681  0.0782 -0.0596
 1324loPI   C6A21180   8.746  15.025   8.393 -0.0415 -0.2251 -0.1664
 1324loPI   C1B21181   8.781  13.884   6.739 -0.0827  0.2990 -0.0858
 1324loPI   C2B21182   8.757  13.848   7.115  0.2532  0.0734  0.0037
 1324loPI   C3B21183   8.729  13.997   7.499  0.2162 -0.2385  0.0269
 1324loPI   C4B21184   8.729  13.930   7.973 -0.0618  0.3340 -0.2900
 1325loPI    C121185  12.099  14.158   5.250 -0.2543 -0.0037  0.1400
 1325loPI    C221186  12.151  13.803   5.072  0.1691  0.1451 -0.0456
 1325loPI    C321187  11.920  14.081   4.901 -0.3395 -0.1096  0.2065
 1325loPI   PO421188  12.035  14.043   5.501 -0.3176  0.2392  0.2868
 1325loPI   GL121189  12.040  14.121   5.995  0.0525 -0.3161 -0.2745
 1325loPI   GL221190  12.204  14.393   6.070 -0.1068  0.0976  0.1265
 1325loPI   C1A21191  11.981  14.007   6.354  0.0957  0.3344 -0.0765
 1325loPI   C2A21192  12.001  14.115   6.807  0.2706 -0.1158 -0.0079
 1325loPI   C3A21193  11.928  14.181   7.237  0.1515 -0.0998  0.0627
 1325loPI   C4A21194  11.927  14.158   7.741 -0.1239 -0.1639 -0.1922
 1325loPI   C5A21195  11.926  14.311   8.200  0.2541 -0.1083  0.1709
 1325loPI   C6A21196  11.769  14.248   8.503 -0.1010 -0.0053 -0.3695
 1325loPI   C1B21197  12.287  14.486   6.408 -0.0574  0.2523  0.0103
 1325loPI   C2B21198  12.308  14.462   6.894  0.5419  0.0126  0.1549
 1325loPI   C3B21199  12.303  14.541   7.276 -0.4802  0.1271 -0.0083
 1325loPI   C4B21200  12.341  14.529   7.673 -0.3610 -0.0760 -0.2650
 1326loPI    C121201   1.299  10.063   5.213  0.1423  0.1579 -0.1540
 1326loPI    C221202   1.665  10.054   5.052  0.2239  0.3057  0.0187
 1326loPI    C321203   1.342  10.019   4.818  0.3465  0.2121 -0.1389
 1326loPI   PO421204   1.292  10.100   5.442  0.1762  0.0907  0.1615
 1326loPI   GL121205   1.372   9.924   5.871 -0.1054  0.0749 -0.2873
 1326loPI   GL221206   1.280   9.649   5.984  0.1801  0.0635  0.4087
 1326loPI   C1A21207   1.112  10.039   6.259  0.0622 -0.1813  0.0076
 1326loPI   C2A21208   1.184  10.054   6.677  0.0644  0.3269 -0.2986
 1326loPI   C3A21209   1.214  10.081   7.119 -0.1411 -0.2198 -0.2855
 1326loPI   C4A21210   1.002  10.112   7.526  0.2143  0.0594 -0.1649
 1326loPI   C5A21211   0.999  10.056   7.949 -0.0470 -0.1291  0.0597
 1326loPI   C6A21212   0.989  10.087   8.352  0.0502 -0.1090 -0.0052
 1326loPI   C1B21213   1.207   9.576   6.533 -0.0827  0.0075 -0.1672
 1326loPI   C2B21214   1.156   9.605   6.949  0.0981 -0.3457  0.1445
 1326loPI   C3B21215   1.176   9.551   7.321 -0.0382 -0.0778  0.2228
 1326loPI   C4B21216   1.062   9.608   7.729 -0.0239  0.1533  0.3505
 1327loPI    C121217   7.633  15.658   5.626  0.5310 -0.3116 -0.0168
 1327loPI    C221218   7.478  15.676   5.258  0.0450  0.0804  0.1954
 1327loPI    C321219   7.622  15.330   5.397 -0.1799 -0.1789 -0.1970
 1327loPI   PO421220   7.488  15.723   5.759  0.2237  0.1915 -0.1458
 1327loPI   GL121221   7.450  15.811   6.204 -0.0570 -0.1475  0.1213
 1327loPI   GL221222   7.732  16.006   6.080 -0.0843 -0.1736 -0.0298
 1327loPI   C1A21223   7.564  15.856   6.645  0.2564 -0.0227 -0.2718
 1327loPI   C2A21224   7.532  15.951   7.114 -0.1014  0.1568 -0.0663
 1327loPI   C3A21225   7.479  15.880   7.541 -0.2015 -0.0326  0.0390
 1327loPI   C4A21226   7.513  15.929   7.931 -0.0627 -0.1109  0.0430
 1327loPI   C5A21227   7.876  15.880   8.250  0.1231  0.3776 -0.0521
 1327loPI   C6A21228   7.977  16.134   8.680  0.3657  0.2216  0.2227
 1327loPI   C1B21229   7.943  16.234   6.416  0.3877  0.1803 -0.2383
 1327loPI   C2B21230   7.937  16.162   6.891  0.3851  0.0641  0.1489
 1327loPI   C3B21231   7.958  16.096   7.336 -0.0947  0.2435 -0.1750
 1327loPI   C4B21232   7.879  16.256   7.747 -0.0106  0.0619  0.0982
 1328loPI    C121233  -0.054   7.404   5.467  0.0651 -0.0457 -0.2491
 1328loPI    C221234   0.255   7.631   5.352  0.1262 -0.0430 -0.0821
 1328loPI    C321235  -0.055   7.573   5.105  0.1571  0.1384 -0.1642
 1328loPI   PO421236   0.043   7.368   5.698 -0.0443 -0.2294  0.0736
 1328loPI   GL121237   0.269   7.264   6.070  0.1341 -0.1533 -0.2367
 1328loPI   GL221238   0.579   7.422   6.134  0.1578 -0.0358  0.1344
 1328loPI   C1A21239   0.092   7.163   6.410 -0.0622 -0.0421  0.1281
 1328loPI   C2A21240   0.278   7.079   6.708  0.4160  0.1959 -0.1001
 1328loPI   C3A21241   0.182   7.087   7.073  0.1682 -0.2692  0.4320
 1328loPI   C4A21242   0.120   7.166   7.545 -0.0331  0.2737  0.0341
 1328loPI   C5A21243   0.083   7.143   8.006  0.0206  0.0417 -0.1243
 1328loPI   C6A21244   0.268   7.117   8.258 -0.2317  0.1959  0.2511
 1328loPI   C1B21245   0.567   7.441   6.496 -0.1011 -0.0769 -0.0489
 1328loPI   C2B21246   0.560   7.432   6.987  0.0265 -0.0802  0.0751
 1328loPI   C3B21247   0.595   7.402   7.381  0.0909  0.0093 -0.3273
 1328loPI   C4B21248   0.544   7.445   7.821  0.3099  0.0811  0.2137
 1329loPI    C121249   2.008  16.925   5.590 -0.0727  0.0116 -0.0371
 1329loPI    C221250   2.365  16.935   5.411 -0.0718 -0.3606 -0.0645
 1329loPI    C321251   2.043  17.079   5.223  0.0585 -0.0362 -0.0452
 1329loPI   PO421252   2.040  17.022   5.895  0.0529 -0.1384  0.2107
 1329loPI   GL121253   2.056  17.014   6.282  0.1025  0.0850 -0.0931
 1329loPI   GL221254   1.850  16.745   6.288  0.2525 -0.0796 -0.1875
 1329loPI   C1A21255   1.922  16.993   6.723  0.2744  0.1037 -0.3119
 1329loPI   C2A21256   1.822  17.005   7.144 -0.3406 -0.0025  0.0096
 1329loPI   C3A21257   1.884  17.072   7.553  0.0355  0.0547 -0.0341
 1329loPI   C4A21258   1.808  17.112   7.994  0.0469  0.0525 -0.4916
 1329loPI   C5A21259   1.650  16.865   8.307 -0.0954 -0.0726  0.0129
 1329loPI   C6A21260   1.885  16.813   8.762 -0.4033  0.3261 -0.0676
 1329loPI   C1B21261   1.971  16.516   6.558 -0.1565  0.1350  0.0714
 1329loPI   C2B21262   1.960  16.504   6.966  0.3320 -0.2409  0.1532
 1329loPI   C3B21263   1.966  16.605   7.454  0.1477  0.1442  0.3976
 1329loPI   C4B21264   1.892  16.620   7.921 -0.2969 -0.0956  0.1699
 1330loPI    C121265   7.796   0.775   5.240  0.0228  0.2536  0.2311
 1330loPI    C221266   8.117   1.005   5.181  0.1874 -0.0002  0.1170
 1330loPI    C321267   7.760   1.120   5.042  0.2608  0.1999  0.0904
 1330loPI   PO421268   7.781   0.713   5.549  0.0165  0.1375  0.0004
 1330loPI   GL121269   7.849   0.567   5.998 -0.1676 -0.3539 -0.2788
 1330loPI   GL221270   7.956   0.837   6.275  0.0811 -0.0036 -0.0103
 1330loPI   C1A21271   8.066   0.349   6.488  0.0286 -0.2276 -0.1162
 1330loPI   C2A21272   8.111   0.327   6.868 -0.0419 -0.2519 -0.0686
 1330loPI   C3A21273   8.104   0.306   7.299  0.0180 -0.1862  0.1716
 1330loPI   C4A21274   8.124   0.347   7.753  0.0164  0.0397 -0.2488
 1330loPI   C5A21275   7.993   0.339   8.175 -0.1033 -0.1434  0.2295
 1330loPI   C6A21276   7.813   0.540   8.528 -0.1598 -0.1375  0.0979
 1330loPI   C1B21277   7.985   0.770   6.706  0.0081 -0.1955 -0.0288
 1330loPI   C2B21278   7.973   0.781   7.133 -0.0893 -0.0517  0.1882
 1330loPI   C3B21279   8.057   0.795   7.571  0.2174  0.0205  0.0600
 1330loPI   C4B21280   7.930   0.852   8.007 -0.0749  0.0036  0.2606
 1331loPI    C121281  11.638  13.187   5.652 -0.3967 -0.0420  0.0916
 1331loPI    C221282  11.400  13.506   5.687 -0.1570  0.1439  0.0583
 1331loPI    C321283  11.474  13.350   5.326 -0.1857  0.1179  0.0635
 1331loPI   PO421284  11.715  13.213   5.929 -0.1451 -0.3594  0.0684
 1331loPI   GL121285  11.653  13.299   6.409 -0.2777  0.2358  0.0849
 1331loPI   GL221286  11.861  13.513   6.274 -0.2265  0.1923 -0.1635
 1331loPI   C1A21287  11.650  13.323   6.754 -0.1668 -0.0083  0.0964
 1331loPI   C2A21288  11.685  13.293   7.177  0.1102  0.2688  0.2212
 1331loPI   C3A21289  11.553  13.344   7.503  0.1779  0.0856  0.0237
 1331loPI   C4A21290  11.607  13.333   7.971  0.1129 -0.1523 -0.3882
 1331loPI   C5A21291  11.603  13.607   8.363  0.1809 -0.0237  0.3869
 1331loPI   C6A21292  11.754  13.719   8.686  0.1785 -0.0215 -0.3052
 1331loPI   C1B21293  12.060  13.648   6.672 -0.0893  0.3229  0.0364
 1331loPI   C2B21294  11.908  13.714   7.078 -0.1689 -0.4403 -0.4030
 1331loPI   C3B21295  11.940  13.663   7.553  0.2147  0.0269 -0.1710
 1331loPI   C4B21296  11.904  13.757   8.049  0.0437  0.2389  0.2815
 1332loPI    C121297  10.347   5.801   5.200  0.1414  0.0938  0.0770
 1332loPI    C221298  10.509   6.055   4.936 -0.0216  0.0975 -0.0203
 1332loPI    C321299  10.587   5.664   4.911 -0.1344  0.0825 -0.1508
 1332loPI   PO421300  10.392   5.858   5.464  0.0382  0.1946 -0.0328
 1332loPI   GL121301  10.123   5.734   5.832 -0.0291 -0.2567 -0.0557
 1332loPI   GL221302  10.431   5.619   6.020 -0.4145 -0.0782  0.0309
 1332loPI   C1A21303  10.086   5.773   6.310  0.3941 -0.2087 -0.3372
 1332loPI   C2A21304  10.005   5.645   6.727  0.3798 -0.0003 -0.3183
 1332loPI   C3A21305   9.972   5.649   7.147 -0.1645 -0.0864 -0.2582
 1332loPI   C4A21306   9.949   5.795   7.545  0.1053  0.0659 -0.1251
 1332loPI   C5A21307   9.925   5.668   8.024  0.0308  0.0819 -0.0927
 1332loPI   C6A21308   9.621   5.863   8.264 -0.0917  0.2177 -0.1356
 1332loPI   C1B21309  10.495   5.568   6.440 -0.1169 -0.0365 -0.1310
 1332loPI   C2B21310  10.434   5.475   6.914  0.0290 -0.2695 -0.1341
 1332loPI   C3B21311  10.448   5.534   7.296 -0.1303 -0.1057  0.0835
 1332loPI   C4B21312  10.386   5.615   7.732 -0.2812  0.0732  0.1316
 1333loPI    C121313   4.700   0.536   5.701  0.0718  0.3504 -0.0662
 1333loPI    C221314   4.890   0.293   5.447 -0.0348  0.0320  0.1526
 1333loPI    C321315   4.610   0.544   5.311 -0.0356 -0.0789 -0.0550
 1333loPI   PO421316   4.731   0.444   5.969  0.0480 -0.0327  0.1426
 1333loPI   GL121317   4.958   0.329   6.300  0.1456 -0.0245  0.3082
 1333loPI   GL221318   5.103   0.052   6.417 -0.3459  0.3630  0.0715
 1333loPI   C1A21319   4.875   0.548   6.670 -0.2592 -0.1976  0.0023
 1333loPI   C2A21320   4.916   0.521   7.098 -0.0917  0.1462 -0.0294
 1333loPI   C3A21321   4.805   0.574   7.487 -0.1740  0.2094  0.1718
 1333loPI   C4A21322   4.698   0.607   7.933  0.0416 -0.2886  0.0204
 1333loPI   C5A21323   4.849   0.560   8.369 -0.1535 -0.1777  0.1178
 1333loPI   C6A21324   4.683   0.549   8.779 -0.2467  0.1749  0.2134
 1333loPI   C1B21325   5.019   0.081   6.824  0.1335 -0.0827  0.1930
 1333loPI   C2B21326   4.906   0.036   7.247  0.1884 -0.2224  0.0147
 1333loPI   C3B21327   4.856   0.147   7.680  0.1056  0.0760  0.4101
 1333loPI   C4B21328   4.837   0.049   8.138  0.0331  0.2820 -0.1362
 1334loPI    C121329   1.290   4.245   5.684  0.0792 -0.1081  0.2249
 1334loPI    C221330   1.549   4.011   5.489  0.2041  0.1687  0.0512
 1334loPI    C321331   1.257   4.196   5.288  0.0628  0.1080  0.1981
 1334loPI   PO421332   1.420   4.296   5.960 -0.3981  0.0641  0.3378
 1334loPI   GL121333   1.596   4.244   6.338  0.1327 -0.1022  0.0158
 1334loPI   GL221334   1.546   4.623   6.334 -0.1028 -0.0846 -0.1147
 1334loPI   C1A21335   1.581   4.274   6.647  0.1194 -0.1810 -0.2009
 1334loPI   C2A21336   1.596   4.162   7.077 -0.2718 -0.1683  0.0567
 1334loPI   C3A21337   1.572   4.201   7.476  0.0361 -0.2664  0.1889
 1334loPI   C4A21338   1.512   4.247   7.835  0.0085  0.2078 -0.1177
 1334loPI   C5A21339   1.487   4.264   8.253 -0.1457 -0.2432 -0.3500
 1334loPI   C6A21340   1.393   4.658   8.517  0.1066  0.0191  0.2500
 1334loPI   C1B21341   1.474   4.757   6.787 -0.1340  0.1735  0.0310
 1334loPI   C2B21342   1.482   4.687   7.203 -0.1233  0.2445 -0.3635
 1334loPI   C3B21343   1.502   4.742   7.622 -0.1717  0.0119 -0.0463
 1334loPI   C4B21344   1.409   4.795   7.992 -0.2952  0.0949  0.1499
 1335loPI    C121345   0.582  16.592   5.445  0.0134 -0.1675 -0.0493
 1335loPI    C221346   0.779  16.914   5.314 -0.0221 -0.1505 -0.0611
 1335loPI    C321347   0.493  16.750   5.088 -0.0970 -0.1094  0.0034
 1335loPI   PO421348   0.489  16.792   5.739  0.1191  0.2216  0.1149
 1335loPI   GL121349   0.412  16.564   6.147  0.0928  0.0005 -0.2807
 1335loPI   GL221350   0.408  16.909   6.286  0.1864  0.0581 -0.0781
 1335loPI   C1A21351   0.499  16.472   6.531 -0.0048  0.0382 -0.0135
 1335loPI   C2A21352   0.578  16.600   6.968 -0.0771  0.0364  0.0937
 1335loPI   C3A21353   0.629  16.649   7.462  0.2362  0.0782  0.0121
 1335loPI   C4A21354   0.663  16.570   7.930 -0.0859  0.2909  0.2070
 1335loPI   C5A21355   0.867  16.643   8.391  0.1562 -0.1148  0.1355
 1335loPI   C6A21356   1.199  16.550   8.648 -0.0127 -0.1273  0.0436
 1335loPI   C1B21357   0.562  17.110   6.756  0.0748 -0.0559  0.0093
 1335loPI   C2B21358   0.549  17.132   7.115  0.2188  0.1233 -0.0755
 1335loPI   C3B21359   0.491  17.119   7.532 -0.2098  0.2340  0.1305
 1335loPI   C4B21360   0.456  17.043   7.981 -0.0584  0.1099  0.0964
 1336loPI    C121361  14.195   2.534   5.623 -0.2870  0.0702  0.0467
 1336loPI    C221362  14.446   2.628   5.326  0.0443 -0.0437  0.2846
 1336loPI    C321363  14.061   2.734   5.304  0.0592 -0.0696 -0.1923
 1336loPI   PO421364  14.274   2.612   5.848 -0.2394  0.2709 -0.1235
 1336loPI   GL121365  14.288   2.372   6.245  0.2678 -0.0895 -0.0700
 1336loPI   GL221366  14.511   2.095   6.048  0.2193 -0.0459  0.1111
 1336loPI   C1A21367  14.163   2.352   6.693  0.2302  0.3134 -0.0447
 1336loPI   C2A21368  14.228   2.290   7.224 -0.3235 -0.0934  0.3219
 1336loPI   C3A21369  14.188   2.286   7.590  0.3862  0.1462  0.2329
 1336loPI   C4A21370  14.041   2.289   8.020  0.0205  0.0413  0.3465
 1336loPI   C5A21371  13.723   2.012   8.234 -0.0609 -0.0858  0.0244
 1336loPI   C6A21372  13.557   2.115   8.575  0.1758 -0.1822 -0.2080
 1336loPI   C1B21373  14.642   2.144   6.496 -0.2568  0.0619  0.0698
 1336loPI   C2B21374  14.622   2.172   6.909 -0.0345  0.1401 -0.2532
 1336loPI   C3B21375  14.678   2.151   7.424  0.2173 -0.1487  0.0598
 1336loPI   C4B21376  14.634   2.061   7.791  0.1398 -0.3060  0.2952
 1337loPI    C121377   1.543  12.397   5.382  0.0935 -0.0113 -0.0856
 1337loPI    C221378   1.531  12.129   5.085  0.4256  0.1322 -0.2348
 1337loPI    C321379   1.568  12.518   5.001 -0.1512  0.2422 -0.0238
 1337loPI   PO421380   1.621  12.259   5.575 -0.1723 -0.1195  0.1902
 1337loPI   GL121381   1.550  12.251   6.045  0.2200  0.0291 -0.2407
 1337loPI   GL221382   1.290  11.994   5.948 -0.0096  0.1450  0.1195
 1337loPI   C1A21383   1.636  12.290   6.461  0.1046 -0.0961 -0.3069
 1337loPI   C2A21384   1.687  12.327   6.984  0.2584 -0.0543 -0.0934
 1337loPI   C3A21385   1.693  12.284   7.403 -0.2139 -0.1482 -0.1769
 1337loPI   C4A21386   1.618  12.352   7.791  0.2706 -0.1491 -0.2736
 1337loPI   C5A21387   1.263  12.126   8.138  0.1314  0.0738 -0.1367
 1337loPI   C6A21388   0.861  12.089   8.072  0.2384  0.3028 -0.1244
 1337loPI   C1B21389   1.235  11.893   6.328  0.1634 -0.2425 -0.1845
 1337loPI   C2B21390   1.246  11.880   6.772  0.3252 -0.0788 -0.3584
 1337loPI   C3B21391   1.303  11.970   7.216 -0.0510 -0.0442 -0.0038
 1337loPI   C4B21392   1.249  11.991   7.650 -0.1757  0.1467  0.1925
 1338loPI    C121393  10.873  11.433   5.426  0.1191 -0.0232  0.0189
 1338loPI    C221394  10.894  11.159   5.135  0.0615  0.1941 -0.1928
 1338loPI    C321395  10.601  11.432   5.133 -0.1458 -0.0149  0.2610
 1338loPI   PO421396  10.867  11.394   5.657  0.1352  0.1658  0.1123
 1338loPI   GL121397  10.860  11.115   6.118  0.1086  0.0895  0.0543
 1338loPI   GL221398  10.717  11.307   6.229  0.0536  0.2001 -0.1099
 1338loPI   C1A21399  11.143  11.182   6.527 -0.0893 -0.0081 -0.0644
 1338loPI   C2A21400  11.082  11.135   6.956 -0.0369 -0.0840 -0.2977
 1338loPI   C3A21401  11.039  11.137   7.388 -0.0012 -0.1119 -0.0347
 1338loPI   C4A21402  11.012  11.117   7.786 -0.0906 -0.2565  0.0235
 1338loPI   C5A21403  10.913  11.182   8.263  0.1853  0.1843 -0.1604
 1338loPI   C6A21404  10.856  11.141   8.719 -0.2707 -0.0218  0.0404
 1338loPI   C1B21405  10.683  11.242   6.646 -0.0984 -0.0269  0.0616
 1338loPI   C2B21406  10.555  11.254   7.122 -0.0531 -0.0395  0.0359
 1338loPI   C3B21407  10.522  11.320   7.589  0.0241 -0.1615  0.0252
 1338loPI   C4B21408  10.483  11.313   7.980 -0.3131  0.1386 -0.0826
 1339loPI    C121409   7.251  14.016   5.861  0.1161  0.0079  0.0881
 1339loPI    C221410   7.448  13.937   5.521 -0.2023 -0.1025 -0.0743
 1339loPI    C321411   7.522  13.722   5.850 -0.0357 -0.1270 -0.1272
 1339loPI   PO421412   7.330  14.247   5.955 -0.1041  0.0551  0.0074
 1339loPI   GL121413   7.389  14.385   6.302  0.2327  0.0504 -0.0308
 1339loPI   GL221414   7.204  14.626   6.366 -0.0677 -0.0053  0.2109
 1339loPI   C1A21415   7.677  14.369   6.597 -0.2435 -0.0095 -0.1784
 1339loPI   C2A21416   7.816  14.356   6.986  0.2855  0.1728  0.0997
 1339loPI   C3A21417   7.734  14.347   7.493 -0.1784  0.1847  0.1107
 1339loPI   C4A21418   7.681  14.357   7.876 -0.1635 -0.1904 -0.2797
 1339loPI   C5A21419   7.583  14.433   8.355  0.0223 -0.0429  0.0271
 1339loPI   C6A21420   7.575  14.392   8.795  0.0428  0.2858  0.2018
 1339loPI   C1B21421   7.228  14.547   6.819 -0.0040  0.2677  0.0416
 1339loPI   C2B21422   7.316  14.579   7.218 -0.2844 -0.0075 -0.0805
 1339loPI   C3B21423   7.247  14.567   7.630 -0.2043 -0.1117 -0.0260
 1339loPI   C4B21424   7.133  14.550   8.048  0.0186  0.1377 -0.1528
 1340loPI    C121425  14.050  13.209   5.444  0.0588 -0.0136  0.0492
 1340loPI    C221426  14.299  12.898   5.475 -0.1825 -0.2363 -0.1980
 1340loPI    C321427  14.349  13.166   5.182  0.0608 -0.0039  0.0497
 1340loPI   PO421428  14.015  13.241   5.780 -0.2188 -0.2519 -0.2520
 1340loPI   GL121429  14.184  12.906   6.052  0.1269 -0.3109  0.1047
 1340loPI   GL221430  14.337  13.174   6.200 -0.1229 -0.0086 -0.1146
 1340loPI   C1A21431  13.963  12.934   6.411 -0.1224 -0.0605 -0.1366
 1340loPI   C2A21432  13.915  12.971   6.928 -0.2710 -0.1107 -0.1464
 1340loPI   C3A21433  13.900  12.906   7.422  0.2149 -0.0290  0.1250
 1340loPI   C4A21434  13.831  12.873   7.828 -0.0690  0.0663  0.0534
 1340loPI   C5A21435  13.951  13.024   8.168  0.1292 -0.4169 -0.3341
 1340loPI   C6A21436  14.414  13.067   8.296 -0.0766  0.0087  0.1466
 1340loPI   C1B21437  14.253  13.261   6.717 -0.1712 -0.1414  0.0277
 1340loPI   C2B21438  14.359  13.318   7.151 -0.0044 -0.0701  0.0867
 1340loPI   C3B21439  14.251  13.300   7.609  0.1629  0.2632  0.1902
 1340loPI   C4B21440  14.250  13.488   8.068  0.0683 -0.0764  0.2376
 1341loPI    C121441   1.841   3.576   5.657 -0.1697 -0.2219  0.1551
 1341loPI    C221442   2.114   3.388   5.432 -0.0704  0.1459 -0.0403
 1341loPI    C321443   1.746   3.453   5.288 -0.0178  0.3495 -0.0863
 1341loPI   PO421444   1.866   3.470   5.887 -0.0318  0.1256 -0.1166
 1341loPI   GL121445   2.035   3.376   6.303  0.1072 -0.0569 -0.3069
 1341loPI   GL221446   1.819   3.666   6.319  0.0028  0.0439  0.0566
 1341loPI   C1A21447   2.173   3.502   6.768  0.1130 -0.4346 -0.2821
 1341loPI   C2A21448   2.222   3.418   7.151  0.0733 -0.2357 -0.1341
 1341loPI   C3A21449   2.044   3.490   7.545 -0.0784  0.0906 -0.0689
 1341loPI   C4A21450   2.099   3.532   8.011 -0.0749  0.1345 -0.0633
 1341loPI   C5A21451   2.016   3.599   8.484  0.1123  0.0644  0.0207
 1341loPI   C6A21452   2.086   3.808   8.953  0.3861 -0.2163  0.0015
 1341loPI   C1B21453   1.674   3.706   6.717  0.1046 -0.0872 -0.1300
 1341loPI   C2B21454   1.664   3.628   7.223 -0.1701 -0.4243  0.2581
 1341loPI   C3B21455   1.568   3.724   7.648  0.0402  0.2045 -0.1127
 1341loPI   C4B21456   1.533   3.692   8.070 -0.1418 -0.1724 -0.3946
 1342loPI    C121457   3.598   1.284   5.786 -0.1652  0.0559 -0.0238
 1342loPI    C221458   3.837   1.576   5.653 -0.4441  0.2646 -0.0761
 1342loPI    C321459   3.799   1.237   5.443  0.0214  0.1094  0.0770
 1342loPI   PO421460   3.624   1.338   6.061  0.4680 -0.0840 -0.2666
 1342loPI   GL121461   3.915   1.258   6.365  0.2378 -0.3389  0.2197
 1342loPI   GL221462   4.279   1.179   6.482 -0.2948  0.2273  0.1156
 1342loPI   C1A21463   3.858   1.364   6.704  0.0396 -0.4054  0.3588
 1342loPI   C2A21464   3.775   1.378   7.162  0.1406 -0.1141  0.0596
 1342loPI   C3A21465   3.830   1.406   7.580  0.0658  0.1578 -0.0173
 1342loPI   C4A21466   3.724   1.421   7.959 -0.2497 -0.3238 -0.2728
 1342loPI   C5A21467   3.871   1.583   8.343  0.1363  0.3120 -0.0631
 1342loPI   C6A21468   3.945   1.419   8.705 -0.1077 -0.0883  0.0850
 1342loPI   C1B21469   4.291   1.254   6.882  0.0259 -0.0765  0.3319
 1342loPI   C2B21470   4.234   1.212   7.312 -0.2268 -0.0458 -0.2051
 1342loPI   C3B21471   4.300   1.296   7.768  0.1464  0.2108 -0.0086
 1342loPI   C4B21472   4.273   1.282   8.183  0.1232 -0.2398  0.0062
 1343loPI    C121473   5.512   8.948   5.771 -0.1134  0.1204  0.0417
 1343loPI    C221474   5.544   9.183   5.449  0.1240 -0.0269 -0.0444
 1343loPI    C321475   5.353   8.832   5.423 -0.1563  0.1144  0.0631
 1343loPI   PO421476   5.548   9.154   5.963  0.1154 -0.1256  0.1704
 1343loPI   GL121477   5.518   9.022   6.391  0.0054 -0.0085  0.2027
 1343loPI   GL221478   5.910   8.869   6.503 -0.1926 -0.2960 -0.2975
 1343loPI   C1A21479   5.358   8.997   6.813 -0.1212  0.1956 -0.0614
 1343loPI   C2A21480   5.366   8.918   7.196  0.1478  0.0368 -0.0853
 1343loPI   C3A21481   5.301   9.001   7.681  0.3989 -0.0059 -0.0496
 1343loPI   C4A21482   5.290   9.144   8.179  0.0774 -0.1265 -0.1180
 1343loPI   C5A21483   5.262   9.433   8.475 -0.1921 -0.1065  0.1784
 1343loPI   C6A21484   5.204   9.624   8.807  0.0216 -0.2118 -0.2520
 1343loPI   C1B21485   5.923   8.802   6.877  0.2912  0.1404 -0.2980
 1343loPI   C2B21486   5.821   8.818   7.333  0.0856 -0.1351  0.0136
 1343loPI   C3B21487   5.809   8.759   7.816  0.0153  0.0517 -0.0582
 1343loPI   C4B21488   5.792   8.922   8.203 -0.3958 -0.2267 -0.0060
 1344loPI    C121489   1.876   5.784   5.506 -0.0405 -0.0964 -0.2215
 1344loPI    C221490   2.090   5.487   5.346  0.3052 -0.0601  0.1560
 1344loPI    C321491   2.188   5.867   5.271  0.1111 -0.0401 -0.0041
 1344loPI   PO421492   1.761   5.728   5.757 -0.0777 -0.2728  0.1621
 1344loPI   GL121493   1.695   5.612   6.114  0.1066 -0.2591  0.0982
 1344loPI   GL221494   1.884   5.555   6.303  0.0432 -0.1606 -0.0458
 1344loPI   C1A21495   1.392   5.639   6.394  0.2574 -0.1787  0.2202
 1344loPI   C2A21496   1.356   5.650   6.810 -0.1050  0.0485 -0.0543
 1344loPI   C3A21497   1.240   5.707   7.275  0.2278 -0.0053  0.2483
 1344loPI   C4A21498   1.214   5.811   7.693 -0.1536 -0.1239  0.0582
 1344loPI   C5A21499   1.174   5.748   8.220 -0.0924  0.0314  0.0613
 1344loPI   C6A21500   1.106   6.027   8.573  0.1300  0.0023  0.0677
 1344loPI   C1B21501   1.809   5.521   6.686  0.1818  0.1849 -0.0126
 1344loPI   C2B21502   1.726   5.522   7.097  0.0591  0.3258  0.2912
 1344loPI   C3B21503   1.770   5.531   7.634  0.0018  0.1220 -0.2522
 1344loPI   C4B21504   1.896   5.674   8.066 -0.2409 -0.0004 -0.0891
 1345loPI    C121505   6.943  10.563   5.476  0.2097 -0.1119  0.1516
 1345loPI    C221506   7.009  10.306   5.176  0.1458  0.0368  0.0091
 1345loPI    C321507   7.018  10.701   5.108  0.2022  0.0730  0.2182
 1345loPI   PO421508   6.966  10.506   5.744 -0.0795 -0.0262  0.2949
 1345loPI   GL121509   7.008  10.504   6.126 -0.1968  0.0673 -0.0716
 1345loPI   GL221510   6.961  10.868   6.166 -0.1080  0.1110 -0.3147
 1345loPI   C1A21511   7.079  10.254   6.455  0.0933 -0.0513 -0.1659
 1345loPI   C2A21512   7.131  10.191   6.853  0.0876 -0.1104 -0.0116
 1345loPI   C3A21513   7.070  10.292   7.354  0.0741  0.3021 -0.1076
 1345loPI   C4A21514   6.970  10.235   7.730 -0.0720  0.0190  0.2263
 1345loPI   C5A21515   7.124  10.196   8.207 -0.1640 -0.1840  0.1034
 1345loPI   C6A21516   7.156  10.647   8.501 -0.1386  0.1307  0.0051
 1345loPI   C1B21517   7.056  10.842   6.515 -0.0882  0.1020  0.0618
 1345loPI   C2B21518   6.961  10.803   7.053 -0.2188  0.1764  0.2087
 1345loPI   C3B21519   6.672  10.618   7.427  0.1124 -0.3917 -0.2172
 1345loPI   C4B21520   6.444  10.462   7.762 -0.1680  0.2077 -0.3225
 1346loPI    C121521   6.898  11.748   5.812 -0.0275 -0.0102 -0.1014
 1346loPI    C221522   7.139  11.796   5.496  0.2032 -0.0893  0.0602
 1346loPI    C321523   6.842  11.529   5.482  0.0449  0.0963 -0.1852
 1346loPI   PO421524   6.987  11.855   5.947  0.3297 -0.3599 -0.1678
 1346loPI   GL121525   6.754  11.755   6.374 -0.1637  0.1086  0.1567
 1346loPI   GL221526   6.790  11.437   6.532 -0.0933 -0.0647 -0.0197
 1346loPI   C1A21527   6.758  11.840   6.737 -0.1682 -0.0523 -0.0442
 1346loPI   C2A21528   6.640  11.854   7.227 -0.0548  0.3485  0.0203
 1346loPI   C3A21529   6.759  11.888   7.671 -0.0364  0.0495 -0.3008
 1346loPI   C4A21530   6.888  11.746   8.047  0.0688  0.3585 -0.4581
 1346loPI   C5A21531   7.086  11.379   8.347 -0.0859 -0.0768  0.0278
 1346loPI   C6A21532   7.271  11.143   8.582  0.0517 -0.1417 -0.0471
 1346loPI   C1B21533   6.913  11.273   6.920  0.3027 -0.2167 -0.2182
 1346loPI   C2B21534   6.873  11.355   7.380 -0.0905 -0.1029 -0.0085
 1346loPI   C3B21535   6.874  11.345   7.791  0.0823 -0.1639 -0.1901
 1346loPI   C4B21536   7.321  11.090   7.977 -0.0034  0.2530 -0.2494
 1347loPI    C121537  12.683   7.486   5.533  0.0104  0.1753 -0.0328
 1347loPI    C221538  12.983   7.673   5.347  0.1574  0.0271  0.0535
 1347loPI    C321539  12.693   7.500   5.133  0.2394 -0.0017 -0.0353
 1347loPI   PO421540  12.655   7.570   5.795 -0.3143  0.1790 -0.1318
 1347loPI   GL121541  12.629   7.873   6.134 -0.0428 -0.2629 -0.0333
 1347loPI   GL221542  12.442   8.222   6.080 -0.1217  0.0050  0.2677
 1347loPI   C1A21543  12.907   7.995   6.439 -0.1077  0.0351  0.0541
 1347loPI   C2A21544  12.874   8.125   6.888  0.0425 -0.2527  0.2225
 1347loPI   C3A21545  12.785   8.010   7.359 -0.1818  0.0782 -0.0223
 1347loPI   C4A21546  12.858   8.038   7.712 -0.1442  0.3956 -0.1076
 1347loPI   C5A21547  12.849   8.076   8.150 -0.1605 -0.1049 -0.1220
 1347loPI   C6A21548  13.282   8.067   8.434 -0.1707 -0.0181 -0.0314
 1347loPI   C1B21549  12.370   8.265   6.490 -0.1149  0.0338 -0.0255
 1347loPI   C2B21550  12.356   8.327   6.927  0.4077 -0.0099 -0.2268
 1347loPI   C3B21551  12.347   8.196   7.253  0.0973  0.2583 -0.1554
 1347loPI   C4B21552  12.412   8.194   7.718 -0.0745  0.1897  0.2085
 1348loPI    C121553   7.039   0.846   5.998  0.1795  0.1191  0.0853
 1348loPI    C221554   7.347   0.728   5.771  0.2524  0.1098  0.1884
 1348loPI    C321555   7.003   0.840   5.600  0.3800  0.3167  0.0622
 1348loPI   PO421556   6.999   1.167   6.123 -0.0625  0.3880 -0.3233
 1348loPI   GL121557   7.120   1.392   6.460 -0.0024  0.3012  0.0229
 1348loPI   GL221558   7.100   1.172   6.721 -0.1175  0.0839 -0.3030
 1348loPI   C1A21559   6.982   1.635   6.805  0.0419 -0.3690  0.1768
 1348loPI   C2A21560   6.942   1.697   7.237  0.2072 -0.2294 -0.1929
 1348loPI   C3A21561   7.002   1.561   7.610  0.2200  0.1995 -0.0163
 1348loPI   C4A21562   7.017   1.236   7.797 -0.1227  0.1504  0.1253
 1348loPI   C5A21563   6.942   1.096   8.185  0.0154  0.0883 -0.3729
 1348loPI   C6A21564   6.556   0.802   8.271 -0.0044 -0.1335  0.0460
 1348loPI   C1B21565   7.112   1.264   7.101 -0.0737 -0.2051 -0.0175
 1348loPI   C2B21566   6.913   1.110   7.312  0.1143  0.2732  0.2815
 1348loPI   C3B21567   6.539   0.839   7.515 -0.0165  0.1597  0.0958
 1348loPI   C4B21568   6.550   0.436   7.783  0.1181  0.2425  0.2703
 1349loPI    C121569  12.105   6.394   5.450  0.0240 -0.1870 -0.0555
 1349loPI    C221570  11.984   6.597   5.128 -0.0557 -0.2681 -0.0769
 1349loPI    C321571  12.343   6.420   5.129  0.1042  0.0502  0.0211
 1349loPI   PO421572  12.100   6.408   5.651  0.1003 -0.3382 -0.4044
 1349loPI   GL121573  11.863   6.593   5.962  0.2197 -0.0868  0.0985
 1349loPI   GL221574  12.107   6.835   6.017  0.0223 -0.2763 -0.1786
 1349loPI   C1A21575  11.722   6.602   6.377  0.2279  0.1848  0.0800
 1349loPI   C2A21576  11.728   6.508   6.819  0.1724 -0.0231 -0.2223
 1349loPI   C3A21577  11.696   6.532   7.261 -0.2632  0.1069 -0.2794
 1349loPI   C4A21578  11.672   6.577   7.725  0.0828  0.0422  0.0139
 1349loPI   C5A21579  11.659   6.434   8.206  0.0564 -0.0385 -0.1256
 1349loPI   C6A21580  11.382   6.467   8.505  0.0407 -0.0775  0.1229
 1349loPI   C1B21581  12.133   6.907   6.398 -0.1371  0.1649 -0.1557
 1349loPI   C2B21582  12.085   6.845   6.825 -0.2111  0.3327 -0.4148
 1349loPI   C3B21583  12.121   6.912   7.236  0.3106 -0.0672 -0.1032
 1349loPI   C4B21584  12.120   6.847   7.637 -0.1124  0.3390  0.0953
 1350loPI    C121585   1.812   6.272   5.500 -0.3928 -0.1825  0.1950
 1350loPI    C221586   1.519   6.444   5.288 -0.0932  0.0594 -0.0310
 1350loPI    C321587   1.862   6.640   5.353  0.0398 -0.2378  0.1910
 1350loPI   PO421588   1.649   6.208   5.737 -0.1582 -0.0132 -0.0143
 1350loPI   GL121589   1.481   6.036   6.101  0.1200  0.0329 -0.1809
 1350loPI   GL221590   1.141   6.012   6.189 -0.2284  0.1882 -0.1327
 1350loPI   C1A21591   1.683   6.008   6.528 -0.1417  0.1160 -0.3132
 1350loPI   C2A21592   1.724   6.054   6.942 -0.1018  0.1871  0.1769
 1350loPI   C3A21593   1.674   6.029   7.321 -0.0442 -0.3343  0.0430
 1350loPI   C4A21594   1.637   6.093   7.774 -0.1498 -0.1358 -0.0025
 1350loPI   C5A21595   1.592   5.985   8.252  0.0926  0.1538  0.1458
 1350loPI   C6A21596   1.496   6.289   8.406 -0.1066  0.0875  0.4309
 1350loPI   C1B21597   0.950   5.876   6.566 -0.1399 -0.1506 -0.0870
 1350loPI   C2B21598   0.811   5.775   6.946  0.1981 -0.0883  0.2332
 1350loPI   C3B21599   0.711   5.884   7.321  0.1806  0.0808 -0.3116
 1350loPI   C4B21600   0.740   6.012   7.800 -0.1915 -0.0238 -0.4305
 1351loPI    C121601  17.414   4.168   5.713 -0.0590  0.0024 -0.0335
 1351loPI    C221602  17.210   4.024   5.400  0.0263  0.2445 -0.2028
 1351loPI    C321603  17.601   4.101   5.366  0.0938  0.0257  0.0438
 1351loPI   PO421604  17.387   4.096   5.942 -0.0418 -0.0708  0.1084
 1351loPI   GL121605  17.101   4.187   6.279 -0.1827 -0.4959 -0.0286
 1351loPI   GL221606  17.360   4.199   6.407  0.1095  0.1689 -0.0313
 1351loPI   C1A21607  16.993   4.007   6.761 -0.0048 -0.1068 -0.3066
 1351loPI   C2A21608  17.024   4.124   7.182  0.2463 -0.0963  0.2015
 1351loPI   C3A21609  17.052   4.113   7.649  0.0204 -0.2206 -0.0259
 1351loPI   C4A21610  17.072   4.217   8.001 -0.0216 -0.0617  0.2574
 1351loPI   C5A21611  16.992   4.044   8.410 -0.1124 -0.3238 -0.0395
 1351loPI   C6A21612  17.224   4.237   8.728 -0.2381 -0.2229 -0.1409
 1351loPI   C1B21613  17.384   4.278   6.897 -0.0255  0.3898 -0.0997
 1351loPI   C2B21614  17.399   4.448   7.256 -0.1138 -0.0674 -0.1365
 1351loPI   C3B21615  17.394   4.459   7.686 -0.0023  0.1316 -0.3700
 1351loPI   C4B21616  17.387   4.522   8.182 -0.0549 -0.1278 -0.0286
 1352loPI    C121617   6.783  14.969   5.801 -0.3018  0.0166 -0.2619
 1352loPI    C221618   6.652  15.312   5.642  0.2368  0.2896 -0.1423
 1352loPI    C321619   6.903  15.079   5.435  0.2815  0.2287 -0.0201
 1352loPI   PO421620   6.543  14.915   5.907  0.0653 -0.3127  0.2096
 1352loPI   GL121621   6.422  14.874   6.335  0.0343 -0.0108  0.0533
 1352loPI   GL221622   6.758  14.908   6.402 -0.1073  0.0630 -0.0164
 1352loPI   C1A21623   6.379  14.886   6.737  0.1636  0.1680  0.0686
 1352loPI   C2A21624   6.327  14.827   7.077  0.1092  0.1076 -0.1891
 1352loPI   C3A21625   6.316  14.902   7.488 -0.1269  0.2636  0.1111
 1352loPI   C4A21626   6.235  14.868   7.907  0.2532  0.1057 -0.1270
 1352loPI   C5A21627   5.987  14.911   8.312 -0.0086 -0.1730  0.2731
 1352loPI   C6A21628   5.998  15.236   8.586 -0.2747  0.1538 -0.3469
 1352loPI   C1B21629   6.838  14.837   6.821 -0.0775 -0.1633  0.1554
 1352loPI   C2B21630   6.826  14.721   7.262 -0.0735 -0.1556  0.0943
 1352loPI   C3B21631   6.791  14.707   7.667  0.2163  0.2798 -0.1414
 1352loPI   C4B21632   6.650  14.704   8.082 -0.0138  0.0946 -0.2186
 1353W        W21633   7.096   5.719   1.800 -0.1362  0.1127 -0.0165
 1354W        W21634   1.897  11.647   0.132  0.0253 -0.3404  0.0116
 1355W        W21635   2.539  15.725  12.395  0.1896 -0.0923  0.0592
 1356W        W21636   5.952  12.457  14.609  0.1524 -0.0644  0.0396
 1357W        W21637  12.545   5.087  11.082  0.0052  0.1020  0.0207
 1358W        W21638   0.570  16.616   0.592  0.0277  0.2141 -0.0139
 1359W        W21639   7.185  12.862   2.321  0.0337 -0.1449  0.2827
 1360W        W21640   6.998  11.000  14.084  0.0166  0.1185  0.3013
 1361W        W21641   0.636  10.717   0.918  0.1161  0.1043 -0.1526
 1362W        W21642  15.814   6.372  13.766 -0.0957 -0.2743  0.0261
 1363W        W21643   1.325   0.261   4.039  0.0432  0.0608 -0.0395
 1364W        W21644   7.777   7.765  13.264 -0.2317 -0.3618  0.0605
 1365W        W21645  15.427  12.224  16.445  0.2291 -0.1139 -0.1250
 1366W        W21646  14.044   2.720   3.031  0.0559  0.1956  0.1463
 1367W        W21647   2.186   1.784  16.954 -0.0726  0.3548 -0.3430
 1368W        W21648   7.907   1.993  15.936 -0.1111  0.1416  0.2831
 1369W        W21649   7.361  13.372  16.269  0.4940  0.4988 -0.0922
 1370W        W21650   0.877  15.863  12.968 -0.1372 -0.1393 -0.0660
 1371W        W21651  10.536  15.043   4.227  0.2675 -0.0843  0.2978
 1372W        W21652  14.549  14.353  12.379  0.3722 -0.4225 -0.2519
 1373W        W21653   7.735   5.861  14.613  0.0051  0.1405  0.0429
 1374W        W21654  15.043  15.586  13.346  0.0416 -0.0293  0.0044
 1375W        W21655   7.625  16.067   1.047 -0.2019  0.1418 -0.0667
 1376W        W21656  13.876  11.243  13.353 -0.1694 -0.2121 -0.1744
 1377W        W21657  12.902   4.360   2.055 -0.1268  0.1566  0.0690
 1378W        W21658   1.214   2.835   1.616 -0.2735 -0.1333  0.0337
 1379W        W21659   7.882  17.334  14.578 -0.1635 -0.1201  0.0722
 1380W        W21660  12.413   2.848  16.951  0.1062 -0.0518 -0.2694
 1381W        W21661   7.718  14.097  16.138  0.0831  0.2706  0.2729
 1382W        W21662   0.663  17.625   0.748 -0.2748 -0.0171  0.5017
 1383W        W21663  13.801   8.692  13.219 -0.0186 -0.2114  0.0733
 1384W        W21664   0.295  17.482   2.132 -0.3235  0.0452 -0.0894
 1385W        W21665  12.920  11.232   1.105  0.2308 -0.2249 -0.0805
 1386W        W21666  11.519   3.546  15.488 -0.0693  0.0831  0.1129
 1387W        W21667   4.294   3.087   2.228  0.2384 -0.4474 -0.0404
 1388W        W21668   2.458  14.321   3.108  0.1384  0.2693  0.3184
 1389W        W21669   1.676  12.387  15.255 -0.1244 -0.1209 -0.2432
 1390W        W21670  15.752   3.165   2.093  0.0735  0.0040 -0.0796
 1391W        W21671  10.218   9.262  15.822 -0.2267 -0.0462 -0.1387
 1392W        W21672   9.514   6.041   4.701  0.1145  0.3212 -0.0393
 1393W        W21673  11.069   2.268  13.179  0.0158  0.1712 -0.0936
 1394W        W21674  12.531   1.887  12.019  0.1225 -0.1045  0.2774
 1395W        W21675  14.526   6.687   1.374  0.0677 -0.1919  0.4962
 1396W        W21676  17.516   6.228   0.689  0.3203  0.0528 -0.0973
 1397W        W21677   3.148  16.335   5.875 -0.3157  0.0242  0.2248
 1398W        W21678  17.146  16.817   4.016 -0.0702  0.0854 -0.0493
 1399W        W21679  17.008  17.418   4.595  0.0635 -0.0768  0.2952
 1400W        W21680   3.271   7.450   0.183  0.0229 -0.4414 -0.3297
 1401W        W21681   4.175  10.827  12.231 -0.2122  0.0625  0.1553
 1402W        W21682   6.274   9.458  14.709 -0.2497  0.1069 -0.2474
 1403W        W21683   5.649  11.897   4.173 -0.1317  0.1374 -0.0431
 1404W        W21684   9.719   1.767  13.957 -0.3166 -0.3296  0.1214
 1405W        W21685  14.835   0.354  14.233 -0.3208 -0.2730  0.1908
 1406W        W21686   5.981  13.531  13.004  0.0074  0.0129  0.4586
 1407W        W21687   9.785   5.551   4.341 -0.0149  0.3035  0.2347
 1408W        W21688  12.177  17.690   1.449  0.0823 -0.2755  0.1170
 1409W        W21689   7.322   4.211   2.758  0.1494 -0.0682 -0.0607
 1410W        W21690   7.714   3.665  15.854  0.1556 -0.0620  0.3465
 1411W        W21691   4.102  17.139   1.908  0.1013  0.3327  0.1997
 1412W        W21692   9.424  14.137  13.681  0.0411  0.1829 -0.0711
 1413W        W21693  15.847   3.154   0.640 -0.5491 -0.2342 -0.2060
 1414W        W21694  10.076  16.767   0.346 -0.2178  0.2019  0.0977
 1415W        W21695  10.783   6.568   1.081  0.0517 -0.1650 -0.3591
 1416W        W21696   4.585   6.167   1.552  0.0831  0.1438  0.2179
 1417W        W21697   4.590   3.147   2.758 -0.3246 -0.1569  0.0574
 1418W        W21698   7.473   0.787  12.799  0.3376  0.0717 -0.1516
 1419W        W21699  14.970  12.180   4.483 -0.0943 -0.3028 -0.1863
 1420W        W21700   3.526   5.507  16.567  0.2288 -0.0778 -0.0566
 1421W        W21701  14.620   9.670  16.879  0.3665  0.1441 -0.1713
 1422W        W21702   4.527  11.299   1.249  0.0165 -0.0088 -0.1384
 1423W        W21703  15.715  13.774  14.192  0.1057 -0.3925 -0.0591
 1424W        W21704  12.349  14.365  16.496 -0.0356 -0.0628  0.1809
 1425W        W21705   5.942  16.900   0.649  0.0871  0.0826 -0.1558
 1426W        W21706   6.888   5.870  12.851  0.0077 -0.0329  0.1199
 1427W        W21707   2.095   5.323   4.606  0.0358  0.1787 -0.0664
 1428W        W21708   8.500  12.316  14.222  0.0303 -0.0832 -0.1580
 1429W        W21709   3.789   9.389   5.272  0.1997  0.0101 -0.1155
 1430W        W21710  14.751  16.381   3.925  0.2263  0.1962 -0.1286
 1431W        W21711  17.410  12.772  12.409 -0.3852 -0.2074  0.0783
 1432W        W21712   4.252   1.993   2.924 -0.3142 -0.1908 -0.0692
 1433W        W21713   0.300  12.909   2.819  0.0643 -0.0926 -0.0971
 1434W        W21714   1.640   6.435  14.110  0.0973  0.2645 -0.0781
 1435W        W21715   4.939   8.651   3.781 -0.1499 -0.1749 -0.3062
 1436W        W21716   4.159  11.203   4.482  0.1660  0.1044 -0.0027
 1437W        W21717  13.353   9.965  13.122  0.2783 -0.2333 -0.0351
 1438W        W21718   4.321   9.066   1.366 -0.0404 -0.0594  0.0671
 1439W        W21719   5.907   2.073  15.020 -0.2063 -0.0220 -0.1862
 1440W        W21720   7.883  13.308  15.464 -0.1629 -0.1469 -0.1029
 1441W        W21721  14.177  14.280   4.576 -0.2748 -0.0778  0.2119
 1442W        W21722   9.198   3.816  14.804 -0.3386 -0.1015 -0.1192
 1443W        W21723   1.681   2.144   2.612 -0.0720 -0.0215 -0.1636
 1444W        W21724  13.063  12.628   2.109 -0.0456 -0.2163  0.0103
 1445W        W21725   9.909  15.846   1.492 -0.1996 -0.0491  0.0731
 1446W        W21726  12.945   3.432   3.139  0.0024  0.1402  0.0681
 1447W        W21727   2.251  11.797   4.527 -0.1830  0.2348  0.0206
 1448W        W21728  10.635  13.958  12.955 -0.0086  0.0891 -0.0669
 1449W        W21729   5.125   5.718  15.037  0.0152 -0.0380  0.1708
 1450W        W21730  14.314  16.006   2.485  0.1964 -0.1038 -0.2536
 1451W        W21731   9.208   0.717   1.438 -0.0142  0.0700  0.2674
 1452W        W21732  12.763   5.762  12.386 -0.1087 -0.0938 -0.1501
 1453W        W21733   6.832  17.362   0.526 -0.0431  0.2463 -0.0910
 1454W        W21734   9.774   5.063   4.058 -0.0197  0.3618  0.0770
 1455W        W21735  11.999   7.049  16.025 -0.0032  0.0216  0.1649
 1456W        W21736   8.631  17.169  12.226 -0.0664 -0.1786 -0.0998
 1457W        W21737   7.043  13.812  13.513  0.0047 -0.4211  0.0633
 1458W        W21738  16.152   7.557  14.255  0.2068  0.0392  0.0158
 1459W        W21739   8.198  10.751   2.421  0.0107 -0.0060  0.0344
 1460W        W21740   3.350   8.858  14.373 -0.2382 -0.1721  0.0496
 1461W        W21741  13.462  10.418  13.519  0.1298 -0.0295 -0.1082
 1462W        W21742  13.036   1.807  16.110  0.4240 -0.0762  0.0523
 1463W        W21743  11.051   8.737  11.914 -0.0934  0.3129 -0.0089
 1464W        W21744   0.575   7.155   1.778  0.0717  0.0088 -0.0802
 1465W        W21745   8.317  14.943  15.327 -0.2333  0.0306 -0.0796
 1466W        W21746  13.736  13.469  14.444 -0.0796  0.0824 -0.0895
 1467W        W21747   3.414  11.951   1.535 -0.1087  0.0082 -0.1016
 1468W        W21748   4.717  11.543  17.012  0.1568  0.1253 -0.2701
 1469W        W21749   2.395   9.056  14.022 -0.1617  0.0424  0.1680
 1470W        W21750   8.286  17.031  12.516  0.3415  0.1349  0.2861
 1471W        W21751   9.989   3.358  12.549 -0.0301  0.0846  0.2768
 1472W        W21752   6.094   8.134  14.785  0.1335  0.1131 -0.1365
 1473W        W21753   8.140   3.207   3.797 -0.2883 -0.3829 -0.1108
 1474W        W21754  16.691   8.055  12.622 -0.1984 -0.0106 -0.2774
 1475W        W21755  13.377   6.810   2.576 -0.0603  0.2658 -0.0192
 1476W        W21756   9.217   4.556   1.148 -0.0713 -0.0662 -0.2499
 1477W        W21757   6.914  13.132  16.258 -0.1555 -0.1633 -0.0485
 1478W        W21758  11.197   4.924  15.454 -0.2378  0.1595  0.1769
 1479W        W21759   2.745  11.111   4.990  0.0661 -0.0619 -0.1997
 1480W        W21760   8.995   6.021   3.914  0.2094  0.0574  0.0736
 1481W        W21761  12.254   4.132   3.985 -0.1522  0.0996 -0.0923
 1482W        W21762   9.274  17.048  16.783 -0.0222  0.3001  0.0029
 1483W        W21763  15.782  14.392   1.428  0.0460  0.0269 -0.0920
 1484W        W21764  16.303   7.291   1.177 -0.7187  0.0851 -0.1750
 1485W        W21765   4.525   1.143  14.491 -0.0465 -0.2026 -0.1551
 1486W        W21766   8.440   0.266   3.857  0.2718  0.2482 -0.1332
 1487W        W21767  11.224  17.064  12.058  0.0225  0.2328  0.1834
 1488W        W21768  13.066  13.764  12.104  0.3582 -0.1586 -0.0959
 1489W        W21769  12.985   3.680   2.629  0.2469 -0.1074  0.0775
 1490W        W21770   9.245   1.342   1.970  0.0766  0.0689  0.1604
 1491W        W21771   0.302   9.380   2.296  0.2153 -0.3286 -0.1989
 1492W        W21772   2.148  11.332   3.831 -0.0224 -0.0651  0.2589
 1493W        W21773  15.837   5.531   1.213 -0.1884 -0.2699  0.0080
 1494W        W21774  14.780   1.883   4.220  0.0622  0.0981  0.1716
 1495W        W21775   6.225   5.857  16.040 -0.1786 -0.0174 -0.0114
 1496W        W21776  13.769   6.116  16.740 -0.3414  0.0962 -0.1649
 1497W        W21777   7.043   1.084   3.746 -0.0578  0.1716  0.1668
 1498W        W21778   9.891   8.414  15.933 -0.2107 -0.0594 -0.0150
 1499W        W21779  10.557  15.185  13.637 -0.0063  0.0200 -0.0475
 1500W        W21780   9.206   8.941   0.003  0.0549 -0.0668 -0.1608
 1501W        W21781  11.956  16.603  16.869 -0.0724 -0.1406  0.0128
 1502W        W21782  11.214   1.844  15.856  0.0077 -0.0261  0.3047
 1503W        W21783   7.075   5.453  12.123  0.0801  0.0162 -0.0327
 1504W        W21784  12.619   1.451   3.224  0.1503 -0.1202  0.1633
 1505W        W21785  12.568   8.222  15.334 -0.3887  0.1897 -0.1050
 1506W        W21786  14.654  15.807   4.623 -0.1396  0.0615 -0.0245
 1507W        W21787   7.752   9.174  15.391  0.1546  0.1163  0.1582
 1508W        W21788   7.234  15.639  12.397  0.1744  0.0501 -0.2337
 1509W        W21789   7.513  12.142  14.335  0.4155 -0.5400 -0.0433
 1510W        W21790  17.142  16.858   3.032 -0.1481 -0.1773 -0.2667
 1511W        W21791  17.348   6.550   4.338  0.0478  0.1070  0.2990
 1512W        W21792   2.442   6.262  15.528  0.1912  0.2566  0.0621
 1513W        W21793  13.283   1.780   3.633  0.2994  0.2559  0.1021
 1514W        W21794  14.990  12.560   0.080  0.0172  0.4253 -0.2380
 1515W        W21795   6.787  14.343   0.687  0.1046  0.0095  0.1405
 1516W        W21796   3.532  11.583   5.043 -0.1167  0.2717  0.1294
 1517W        W21797   3.361   9.223  15.692 -0.0725  0.4760 -0.0983
 1518W        W21798   5.441  11.724  16.081  0.2914  0.2058 -0.0353
 1519W        W21799   9.819   9.398  14.670  0.3065  0.0327  0.1341
 1520W        W21800  12.360   0.313   0.301 -0.0241  0.0140 -0.0179
 1521W        W21801  11.125  14.186  12.332 -0.0115 -0.2291  0.0876
 1522W        W21802   6.131   8.941   3.443  0.1506  0.5444  0.1481
 1523W        W21803   9.240  13.614  13.006  0.1305  0.2866 -0.1578
 1524W        W21804  11.734   9.660  12.409  0.3261 -0.0649  0.1128
 1525W        W21805  11.167   1.609   1.157 -0.3171 -0.0615 -0.1819
 1526W        W21806   0.550   4.402   2.476 -0.1411 -0.0126  0.1602
 1527W        W21807   8.167  15.947  13.079 -0.0555 -0.0357  0.1131
 1528W        W21808  11.205  12.453  15.735  0.0567 -0.0475  0.2273
 1529W        W21809   2.392   0.863   3.697 -0.1325 -0.1001  0.0158
 1530W        W21810   8.644  15.911  12.698 -0.1982 -0.1168 -0.1432
 1531W        W21811   7.202   0.500   2.660  0.2169 -0.0050 -0.0603
 1532W        W21812  10.602   8.839   1.906 -0.4335  0.1276 -0.1777
 1533W        W21813  11.276  16.735  13.293 -0.0212  0.0034  0.0119
 1534W        W21814   4.466  13.929  15.043 -0.0394 -0.1591  0.1069
 1535W        W21815   7.495   0.639   0.737  0.1339  0.2670  0.1836
 1536W        W21816  15.650   6.847  14.015 -0.0801  0.0351  0.1686
 1537W        W21817  15.897   3.958   0.971  0.0513 -0.0456  0.0463
 1538W        W21818   9.787  15.351  13.486 -0.2756  0.1278  0.2553
 1539W        W21819  11.247  17.009   1.323 -0.1753 -0.2341 -0.0586
 1540W        W21820   2.051  15.997   4.408  0.0072 -0.2475 -0.4307
 1541W        W21821   8.777   0.441  16.820  0.3126 -0.3951 -0.1256
 1542W        W21822   2.231  10.608  15.720 -0.0029  0.0310  0.0409
 1543W        W21823  14.569  14.430  16.943  0.2471  0.2287  0.0486
 1544W        W21824   3.259   7.518  12.836  0.1035 -0.1012  0.0085
 1545W        W21825   6.989   8.517  14.878  0.1536 -0.2685  0.0885
 1546W        W21826  11.513   0.311  15.632 -0.1087  0.0131 -0.0376
 1547W        W21827  15.365   8.684  14.655  0.0314  0.0442 -0.0649
 1548W        W21828  15.315   7.669  16.964 -0.0348  0.1381  0.2230
 1549W        W21829   7.333   5.102  12.969  0.0102  0.0692  0.2677
 1550W        W21830  13.411   1.080   0.172 -0.0354 -0.0789 -0.1374
 1551W        W21831   9.640   2.335   0.289  0.0472  0.0496  0.1184
 1552W        W21832  16.126   8.648  13.023 -0.1657  0.3085  0.2382
 1553W        W21833   9.446   7.017   2.413  0.0735  0.2241  0.0490
 1554W        W21834  10.195  11.854   3.456 -0.2005 -0.1817 -0.4960
 1555W        W21835   6.394   8.742  13.527 -0.0207  0.0876  0.0219
 1556W        W21836   1.225   4.720   2.761  0.0345 -0.1595 -0.0980
 1557W        W21837   6.915  17.069   2.719 -0.0467 -0.0561 -0.0831
 1558W        W21838   5.403   6.586  13.934  0.0203 -0.2792  0.0827
 1559W        W21839   0.772  13.528  13.919  0.0605  0.1412  0.1608
 1560W        W21840  14.994   5.696  13.766  0.0656  0.1897  0.0819
 1561W        W21841   7.477  10.793  16.033 -0.0764 -0.0614 -0.1639
 1562W        W21842   7.004   5.685   2.379 -0.2596  0.3176 -0.1532
 1563W        W21843   7.492   2.031  16.297 -0.3098 -0.2898 -0.0989
 1564W        W21844   3.948  17.148   2.939 -0.2063 -0.2373 -0.0293
 1565W        W21845   0.783  14.230   2.004 -0.0777 -0.2074 -0.2152
 1566W        W21846   2.391  17.560  13.361 -0.1056  0.0736 -0.2537
 1567W        W21847  15.257   0.645   3.740 -0.2956  0.1738  0.0404
 1568W        W21848   3.979  14.759  16.712  0.2501 -0.0548  0.0036
 1569W        W21849  16.825   6.664  14.159  0.0169  0.1710 -0.0743
 1570W        W21850   1.676  17.183   4.470 -0.0958  0.1766 -0.4370
 1571W        W21851   8.225   7.351  12.089 -0.0337  0.1158  0.1675
 1572W        W21852   7.578  15.360   1.670  0.3441  0.1350  0.2881
 1573W        W21853   1.118  11.610  12.491 -0.1918 -0.0521 -0.0988
 1574W        W21854  12.212   7.594  14.867  0.1316 -0.1006 -0.0059
 1575W        W21855   2.958  15.397  14.229 -0.3792  0.1840  0.1203
 1576W        W21856  11.354  10.022   3.219  0.1153 -0.0739 -0.0401
 1577W        W21857   3.350  13.599  16.805  0.1289 -0.1161  0.0355
 1578W        W21858   8.900  15.995  14.669 -0.0016  0.2809 -0.0295
 1579W        W21859   4.373  17.689  12.329  0.0304 -0.0868 -0.3881
 1580W        W21860   7.851  12.798  12.925  0.2258 -0.0570 -0.0285
 1581W        W21861  16.189   3.184  14.403 -0.2560 -0.2795 -0.4852
 1582W        W21862   3.572   5.111  15.739  0.0353  0.2359  0.0542
 1583W        W21863   2.094  14.739   4.640 -0.2152  0.3393 -0.0580
 1584W        W21864   5.251   6.119  15.279  0.0093 -0.0507 -0.0111
 1585W        W21865   6.796   7.789  16.477 -0.1860 -0.2156 -0.2093
 1586W        W21866   9.480   0.153  14.838 -0.0529 -0.0219 -0.0069
 1587W        W21867   1.670  13.016  12.353  0.0511 -0.0533  0.1513
 1588W        W21868   5.441   1.103  13.916 -0.5779 -0.3673 -0.0340
 1589W        W21869  13.883   3.983  16.864  0.1708  0.0284  0.0130
 1590W        W21870   3.105   8.359  14.864 -0.1385 -0.1883  0.3075
 1591W        W21871  15.939  12.578   2.778  0.0074 -0.0694  0.3489
 1592W        W21872   6.412   3.165  12.880 -0.2386 -0.1009 -0.0843
 1593W        W21873   3.894  13.218  12.331  0.2163 -0.0882  0.0331
 1594W        W21874   8.241   2.627  15.209 -0.1294 -0.1174 -0.1118
 1595W        W21875   0.650   4.157  14.010  0.0980  0.0081  0.0447
 1596W        W21876  12.633   0.557  13.835  0.0686  0.2204  0.0152
 1597W        W21877  13.825  10.956  15.804  0.0101 -0.2262  0.0999
 1598W        W21878  14.992  10.128  15.150 -0.2898  0.0931 -0.4120
 1599W        W21879   3.339   9.280   2.384 -0.2270 -0.2700 -0.1773
 1600W        W21880   5.864   0.820   0.609 -0.0441  0.1996 -0.0535
 1601W        W21881  15.555   4.345   1.611 -0.1076  0.4866 -0.2626
 1602W        W21882  16.985   1.823   0.380  0.1460  0.2318  0.1428
 1603W        W21883  15.726  11.156  12.288 -0.3520  0.3981  0.1180
 1604W        W21884  14.154   7.988   5.263  0.0217  0.0791 -0.0893
 1605W        W21885  17.676  17.117  12.948  0.1180  0.1552 -0.0762
 1606W        W21886   8.482   3.894   3.279 -0.1817 -0.1858 -0.2113
 1607W        W21887  17.456   8.208   3.649  0.0337  0.0310 -0.2142
 1608W        W21888   5.088  16.126  16.579  0.0640 -0.1385 -0.2803
 1609W        W21889  10.828  11.892   4.252 -0.0839 -0.2477  0.1953
 1610W        W21890   5.622  11.581  16.898  0.3318 -0.1431 -0.0164
 1611W        W21891  13.648   3.917   3.215  0.1093 -0.0788 -0.2615
 1612W        W21892   1.151  14.642   4.334  0.2277  0.3662  0.2227
 1613W        W21893   4.041   0.158   0.251  0.0035 -0.0447 -0.1631
 1614W        W21894  12.421   2.211   4.322  0.0031  0.1613 -0.1110
 1615W        W21895  10.775   4.759  14.244  0.3149  0.1609  0.0592
 1616W        W21896   0.501   3.164   1.823  0.1844  0.2816 -0.2392
 1617W        W21897   5.672  13.705   3.341 -0.1743  0.3899 -0.2202
 1618W        W21898   9.241  15.737  13.306 -0.2408 -0.3990 -0.1940
 1619W        W21899   7.154  13.955  14.003 -0.1019 -0.2157 -0.0143
 1620W        W21900  13.645  10.473  14.912  0.1657  0.0866  0.3760
 1621W        W21901  12.543  11.588  12.980  0.0230  0.2909  0.0804
 1622W        W21902   6.555  13.550   3.803  0.0289  0.0026 -0.1965
 1623W        W21903  13.565   9.645   3.509 -0.0202  0.2625 -0.2313
 1624W        W21904   8.526   4.124   3.932 -0.2700 -0.1278  0.2151
 1625W        W21905   8.101  12.173   0.879 -0.0120 -0.0119  0.0764
 1626W        W21906   1.258   0.497   2.702  0.3308  0.0279 -0.1168
 1627W        W21907   4.692  14.164  15.607  0.1729 -0.3242  0.1107
 1628W        W21908  12.735   9.588  15.249 -0.2560 -0.0065  0.2808
 1629W        W21909  14.696   3.860  15.512 -0.0869 -0.2179 -0.0981
 1630W        W21910   4.322   5.366   0.123  0.0759 -0.0099 -0.0061
 1631W        W21911  10.328   8.043   3.365  0.0408  0.0877 -0.0102
 1632W        W21912  11.782  10.747  12.741  0.1085  0.1459 -0.1251
 1633W        W21913   9.099  16.070  12.882 -0.0433  0.1215 -0.2470
 1634W        W21914  11.469   2.788   1.308  0.1465  0.1324 -0.2987
 1635W        W21915   1.816  13.600  16.846 -0.1657 -0.2149 -0.1065
 1636W        W21916   9.484  10.738   1.843  0.0569  0.0132  0.0284
 1637W        W21917  12.071   7.449  13.143  0.0597 -0.2173 -0.0624
 1638W        W21918  12.604  13.647   4.882 -0.1214 -0.1082 -0.1796
 1639W        W21919   6.793   9.533   0.901 -0.2025  0.2757  0.0292
 1640W        W21920   2.316   4.194  16.989  0.2372 -0.2611 -0.1361
 1641W        W21921   8.639   5.566  13.745  0.0135  0.0651  0.1864
 1642W        W21922  10.130  11.170   4.356  0.1052  0.0869 -0.1443
 1643W        W21923   4.287   7.458  12.040 -0.1203  0.0389  0.3040
 1644W        W21924   1.194  13.517   1.157 -0.0637  0.0708  0.2559
 1645W        W21925   1.768   8.212  12.876  0.0730  0.1116  0.1313
 1646W        W21926   3.510  11.310  14.178  0.2743 -0.1812 -0.2864
 1647W        W21927   2.602   7.827   2.703  0.2220  0.1003  0.1697
 1648W        W21928  16.457   1.908   3.225  0.1000 -0.1357 -0.0309
 1649W        W21929  10.828  13.910  13.581  0.0255 -0.4128 -0.2961
 1650W        W21930   8.197   8.320  16.004  0.1292  0.4200  0.1680
 1651W        W21931  15.708  11.569   1.546 -0.2267  0.2665 -0.0440
 1652W        W21932  17.705   7.769   1.249 -0.2688 -0.2166  0.1574
 1653W        W21933   9.786  15.409  16.178 -0.2623  0.2793  0.0229
 1654W        W21934   4.209  10.423  14.764 -0.0860  0.1843 -0.1462
 1655W        W21935  15.606  14.157  16.351  0.1472 -0.0842  0.0728
 1656W        W21936   8.206   3.600  16.179 -0.0544  0.0789 -0.1118
 1657W        W21937  12.201  15.712  16.778  0.1452  0.0054  0.2239
 1658W        W21938   2.460  17.221  15.139 -0.1892 -0.3941 -0.3703
 1659W        W21939  13.572   5.859   3.557 -0.0400 -0.0229  0.2138
 1660W        W21940  14.884   7.110  17.012 -0.0262  0.1102  0.0491
 1661W        W21941   2.250   7.132   4.019  0.0122 -0.0046  0.1774
 1662W        W21942  13.509   5.185   4.565  0.0255  0.1341 -0.1901
 1663W        W21943  16.421   6.814   1.197  0.0142  0.0101  0.0385
 1664W        W21944  15.185   8.973  13.236 -0.1896  0.3290  0.1734
 1665W        W21945  15.927   1.491  14.091 -0.1378 -0.0883 -0.6508
 1666W        W21946   8.672   0.716   1.719 -0.0930  0.0621 -0.1259
 1667W        W21947  12.759  17.646  14.006  0.1228 -0.3430  0.0234
 1668W        W21948  12.396   3.564   2.613  0.2210 -0.2515  0.2533
 1669W        W21949  16.235   6.392   3.984 -0.0282 -0.0259  0.1817
 1670W        W21950  10.437  12.542   2.420 -0.2227 -0.2602  0.3430
 1671W        W21951  14.964   2.406  16.908 -0.3567 -0.1464  0.0850
 1672W        W21952   7.124   1.872   2.355  0.1535  0.1462  0.0741
 1673W        W21953   3.163  15.058  16.768  0.0744  0.0773 -0.2300
 1674W        W21954   2.439   0.563  15.051 -0.0569 -0.2270  0.1318
 1675W        W21955   4.706  15.708   4.871  0.0663  0.0473  0.0291
 1676W        W21956   9.762   6.413   0.449  0.3485 -0.0792  0.0077
 1677W        W21957  12.733  12.849  16.051  0.2583 -0.2656  0.1693
 1678W        W21958   9.449  12.753   3.133  0.1011 -0.3081  0.1415
 1679W        W21959  13.270   7.709  14.298  0.0073 -0.0538  0.2074
 1680W        W21960   1.199   2.123  15.653 -0.0973  0.3269 -0.3929
 1681W        W21961  14.728   2.613  14.911 -0.2389 -0.2068  0.0278
 1682W        W21962  12.079   4.509  16.720  0.2779  0.0166  0.0149
 1683W        W21963  12.749   2.917   4.261 -0.1964 -0.0107 -0.0512
 1684W        W21964   5.517   2.592   0.575 -0.1698 -0.0980  0.0417
 1685W        W21965   1.588   5.724  15.624  0.1293  0.1887 -0.2298
 1686W        W21966   1.918   4.839   4.171  0.1218  0.2112 -0.1767
 1687W        W21967  10.229   8.340   1.582 -0.1239 -0.1398  0.1617
 1688W        W21968  10.906  10.772   4.814  0.3681 -0.1553  0.2059
 1689W        W21969   7.321   6.926   0.347  0.0334  0.1281 -0.2094
 1690W        W21970  16.629   6.736  16.065 -0.0716 -0.3889  0.1768
 1691W        W21971   3.212  14.406  13.652 -0.0820 -0.0714  0.1398
 1692W        W21972  16.747   2.741  15.523 -0.1376  0.0809  0.2210
 1693W        W21973   9.135   6.533   3.793 -0.0130 -0.2065 -0.3705
 1694W        W21974  14.065   6.935  16.494 -0.2739 -0.2016 -0.0582
 1695W        W21975  11.098  10.684   0.886 -0.2298  0.2412  0.0748
 1696W        W21976   3.414   4.770  12.982  0.2118  0.2873 -0.1128
 1697W        W21977   3.107  16.743  12.548  0.0267  0.0724 -0.2165
 1698W        W21978   7.801   7.366   4.889 -0.2074  0.0706 -0.2036
 1699W        W21979  13.957   1.373   2.045  0.2000 -0.1758  0.0992
 1700W        W21980  15.225  10.444   1.381  0.1675  0.1215 -0.1740
 1701W        W21981  16.104   5.069   4.153 -0.2189  0.2574  0.1097
 1702W        W21982   7.954   0.875  13.974 -0.1158  0.0533 -0.2496
 1703W        W21983  12.278  14.996   4.028 -0.0681 -0.3489 -0.1331
 1704W        W21984   5.702   8.098   3.509 -0.1426 -0.1986  0.0668
 1705W        W21985   6.085  16.502   4.009 -0.0526 -0.3006 -0.0460
 1706W        W21986   3.965   5.579   2.535 -0.2377 -0.0165  0.3164
 1707W        W21987   1.801  10.298   0.458  0.1799  0.0132 -0.0998
 1708W        W21988   0.333   8.186   1.530 -0.0154 -0.0791  0.3940
 1709W        W21989  12.444   2.738   1.901 -0.0822  0.2004  0.0601
 1710W        W21990  14.189   7.788  14.376 -0.1709 -0.0901 -0.1021
 1711W        W21991   5.895  14.284   2.241  0.3236  0.4307 -0.0019
 1712W        W21992   0.470   0.073   2.747 -0.2300 -0.3312  0.0514
 1713W        W21993   4.701   4.211   0.724 -0.0352  0.0743  0.0652
 1714W        W21994  12.352  12.927   0.428 -0.0732  0.1919  0.0995
 1715W        W21995   1.052  17.523  13.023 -0.1874  0.0378 -0.0327
 1716W        W21996   1.153   6.424  14.224 -0.1627  0.3041  0.1233
 1717W        W21997   3.033   2.629  14.143  0.0570 -0.0632  0.0362
 1718W        W21998   8.270   7.649  13.881  0.1266 -0.0162 -0.1297
 1719W        W21999  17.527   1.194   3.371 -0.0411  0.2091  0.0038
 1720W        W22000  16.380  11.770   0.453 -0.2280  0.2340  0.0504
 1721W        W22001  16.833   1.901  16.823 -0.2787  0.0096 -0.1006
 1722W        W22002   3.313   6.778  12.374  0.1956  0.0854  0.3765
 1723W        W22003  10.794   6.134   1.383  0.0002  0.1820 -0.0001
 1724W        W22004   1.531   0.399   3.552  0.3135 -0.0183 -0.1189
 1725W        W22005   7.696   5.869  16.851  0.1867  0.1631  0.0276
 1726W        W22006  15.007   0.682  15.105  0.0957  0.0375  0.2162
 1727W        W22007  16.118  16.988   0.910 -0.1661 -0.0750  0.1120
 1728W        W22008   3.303   2.370  14.974  0.1509 -0.0785 -0.1247
 1729W        W22009   4.175   2.212   1.817 -0.2032 -0.0677 -0.0518
 1730W        W22010   2.044   7.744  13.216  0.0494  0.0755  0.1758
 1731W        W22011   3.406  11.286   3.254 -0.0061  0.0247  0.1447
 1732W        W22012  17.267  17.470  16.717  0.0441  0.0599  0.0614
 1733W        W22013  10.735  13.852  15.539 -0.0271  0.2411 -0.3840
 1734W        W22014  17.576  12.489  11.526 -0.0981  0.1729 -0.0989
 1735W        W22015   8.970  16.719   2.127 -0.0049  0.1791 -0.0698
 1736W        W22016  10.333  10.385  14.372 -0.1156 -0.0211 -0.3462
 1737W        W22017  10.357   7.769   3.987  0.1495  0.2937 -0.0580
 1738W        W22018   4.518   7.822  13.262 -0.1252  0.2705 -0.3146
 1739W        W22019  11.063   7.085  16.392  0.2014  0.1880 -0.2420
 1740W        W22020   1.863   3.882   3.174  0.3787 -0.1078 -0.3810
 1741W        W22021  17.738  17.572  13.177 -0.0024 -0.0410  0.1433
 1742W        W22022  17.702   0.520  14.178 -0.3321 -0.0830 -0.3346
 1743W        W22023  10.652   4.755  13.758 -0.1075 -0.0150  0.1271
 1744W        W22024   5.582  10.778   2.811 -0.0031 -0.3682 -0.1075
 1745W        W22025  17.711   9.469   4.846 -0.0098 -0.1598 -0.0107
 1746W        W22026   6.624  16.912   0.325 -0.0076  0.0566 -0.1347
 1747W        W22027  17.634   6.104   4.460 -0.4492  0.0317  0.0892
 1748W        W22028   1.181  12.446   4.152  0.2175 -0.2588 -0.0540
 1749W        W22029  11.471  12.629   1.639  0.2001  0.1532  0.0187
 1750W        W22030   0.551  13.466   0.273 -0.2967  0.1889  0.0103
 1751W        W22031   4.601   1.098   1.227 -0.0355 -0.1234 -0.0550
 1752W        W22032   2.195   8.705  14.992 -0.0535 -0.2194  0.3854
 1753W        W22033  13.366  14.606   1.051 -0.1319 -0.2493  0.1344
 1754W        W22034  16.603   3.536   1.208  0.2726  0.1906  0.1268
 1755W        W22035  13.622   3.088   4.177  0.0801 -0.3663  0.1567
 1756W        W22036  11.666   2.655  15.832  0.0532 -0.0180  0.2217
 1757W        W22037   3.806  11.231  16.855  0.1118  0.2304 -0.1434
 1758W        W22038  16.060  13.426   4.497 -0.1419 -0.1224  0.1041
 1759W        W22039   5.725   3.111   2.378  0.0662  0.3237  0.3511
 1760W        W22040  13.575   1.510  16.888 -0.0462 -0.1686  0.0526
 1761W        W22041  15.568   4.360  12.649  0.1125  0.0316 -0.0647
 1762W        W22042  12.315  12.319   1.837  0.0790  0.1145  0.2938
 1763W        W22043  12.918  12.921   5.282  0.1921 -0.1748  0.0391
 1764W        W22044   0.114   7.262   4.259 -0.0550 -0.1451 -0.0027
 1765W        W22045  12.977  16.892  12.809  0.0703 -0.1875  0.0282
 1766W        W22046   0.907  15.401   2.805 -0.1794  0.0842 -0.2574
 1767W        W22047  15.615   9.427  12.269  0.0031 -0.3025  0.3275
 1768W        W22048  10.797  15.032  12.437 -0.1894  0.1952 -0.3257
 1769W        W22049   6.036   0.066   2.039 -0.0129  0.0301 -0.1962
 1770W        W22050  10.887  12.824   1.040  0.2606  0.0843 -0.0967
 1771W        W22051   1.776  16.211   1.985 -0.3096  0.0998  0.1268
 1772W        W22052   5.772   4.411   2.205 -0.1062 -0.3199  0.4259
 1773W        W22053   9.461  11.335  13.941 -0.1584  0.1228 -0.0738
 1774W        W22054  14.709   0.137  16.120  0.1922  0.2523  0.2216
 1775W        W22055  13.759   0.816  15.226  0.0668 -0.1705 -0.1583
 1776W        W22056   4.129  16.177   1.215 -0.1320 -0.2500  0.0933
 1777W        W22057   2.351  14.673  12.673  0.3124 -0.1966  0.3796
 1778W        W22058   8.048  14.080  14.370 -0.1072  0.1394 -0.3438
 1779W        W22059   4.523   6.165  12.404 -0.1547 -0.0830 -0.2780
 1780W        W22060   6.585   6.620  13.457 -0.1209  0.1007 -0.0096
 1781W        W22061   3.956  10.686   4.614  0.3325 -0.1793  0.0421
 1782W        W22062  11.650   9.218  13.093  0.0112  0.1099  0.0807
 1783W        W22063  16.365   2.819   1.053  0.1593 -0.1574 -0.1544
 1784W        W22064   4.842   2.719   2.535 -0.0353 -0.3138 -0.1886
 1785W        W22065  17.184  10.001   3.606 -0.0492  0.0709  0.1535
 1786W        W22066   8.468  14.410   3.642  0.3891 -0.1206 -0.0536
 1787W        W22067   2.386  15.625  14.775 -0.0926 -0.0348  0.0400
 1788W        W22068   0.942   8.900   4.113  0.2445 -0.2675 -0.0007
 1789W        W22069  13.717  10.583   0.785 -0.0254  0.1778  0.0064
 1790W        W22070   2.489  13.085  15.719 -0.0204  0.0525  0.1668
 1791W        W22071  14.734  17.497  14.289  0.1809 -0.4350  0.0020
 1792W        W22072  14.374   1.244  12.949 -0.0227 -0.1831 -0.1813
 1793W        W22073   3.807   8.630  16.411 -0.2254  0.0579  0.1972
 1794W        W22074  15.683  14.352   3.508  0.0532 -0.0389 -0.0564
 1795W        W22075   1.654  14.311   2.400  0.1100  0.2881  0.1595
 1796W        W22076   4.817  14.571  13.994  0.0031 -0.0304  0.0232
 1797W        W22077  13.167   1.049  13.392 -0.2775 -0.0353  0.1334
 1798W        W22078  12.987  14.304   4.143 -0.1908  0.1249  0.2695
 1799W        W22079   7.188   1.544   5.746 -0.1223 -0.0972 -0.3139
 1800W        W22080  10.508  17.257  16.324  0.1152 -0.0873  0.0561
 1801W        W22081   1.292  12.674  12.370  0.1129  0.2787  0.0235
 1802W        W22082   1.924  16.769   0.252  0.0388 -0.0185 -0.1817
 1803W        W22083   2.237  15.157  12.756 -0.1321  0.2845  0.0933
 1804W        W22084   9.971  15.104  12.374 -0.1174  0.2717  0.1397
 1805W        W22085   7.825  17.114  15.393  0.2227 -0.3038  0.3098
 1806W        W22086   1.656   1.389   1.935  0.4121  0.1372 -0.0370
 1807W        W22087   8.829   0.106   4.561  0.1830  0.1152 -0.0346
 1808W        W22088   7.877  17.533   0.498  0.0801 -0.1879  0.1951
 1809W        W22089   0.643   3.261   3.401 -0.0612  0.1154 -0.1742
 1810W        W22090   3.500   7.062  14.966 -0.2179  0.2103 -0.1329
 1811W        W22091   5.379   9.636   0.959 -0.3340  0.0411 -0.2562
 1812W        W22092   8.118   1.291   0.166 -0.1963  0.1036  0.1504
 1813W        W22093   3.423   6.979  16.899  0.0045 -0.2509 -0.0336
 1814W        W22094  11.361   4.477  15.604 -0.1244  0.0608  0.1691
 1815W        W22095   1.441   8.654   3.100  0.1833 -0.2048 -0.2000
 1816W        W22096   0.757   1.444  13.088  0.2061  0.0753 -0.2616
 1817W        W22097   9.833  13.436   3.369  0.2117  0.1686  0.1079
 1818W        W22098  17.395   4.419   4.916  0.1470 -0.0549  0.0678
 1819W        W22099  16.193  15.571   2.432 -0.1573 -0.0384 -0.2271
 1820W        W22100   7.844   6.035   3.676 -0.0219 -0.1666 -0.1995
 1821W        W22101   7.921   2.323   3.338  0.0092 -0.0296 -0.0008
 1822W        W22102  12.257   4.124   0.686  0.0511 -0.0276 -0.1588
 1823W        W22103  11.482   1.065   0.593 -0.0273  0.2674  0.0243
 1824W        W22104   1.194  10.887   2.662 -0.0559 -0.1343 -0.1937
 1825W        W22105  13.272  12.258   1.374  0.1336  0.0486 -0.0784
 1826W        W22106  13.842  10.823  14.004  0.1741  0.1896 -0.0746
 1827W        W22107   5.597   1.425  14.749  0.0121 -0.3972  0.0470
 1828W        W22108   0.447   6.279  13.068 -0.0387 -0.0563  0.1853
 1829W        W22109   7.287  10.949   3.458 -0.0055 -0.0980 -0.1294
 1830W        W22110  15.104   5.422   1.837 -0.2252 -0.1655  0.1213
 1831W        W22111  13.883   6.119   3.277 -0.2077  0.3989 -0.1666
 1832W        W22112   4.698  15.556   1.468 -0.1269  0.2306  0.1365
 1833W        W22113   4.662  17.259   1.954 -0.1842  0.0808 -0.0136
 1834W        W22114   8.760  14.171  12.425 -0.0967  0.0418 -0.0786
 1835W        W22115   2.753   1.066   3.367 -0.0725 -0.0112  0.0940
 1836W        W22116   2.646  13.856   3.267  0.2230  0.0688  0.0979
 1837W        W22117   7.507   4.631  15.278  0.2482 -0.1807 -0.2355
 1838W        W22118  11.237  14.022   2.198 -0.0946 -0.1142 -0.0605
 1839W        W22119   9.425  15.737  15.500 -0.1731  0.0451  0.1674
 1840W        W22120  17.162  16.170   0.916  0.1475 -0.0892 -0.0843
 1841W        W22121   3.176  17.065  14.287 -0.0538  0.0130 -0.3269
 1842W        W22122   8.850   3.628   1.340 -0.1715  0.0086 -0.0019
 1843W        W22123  13.098  12.904   2.560  0.1116  0.1390 -0.2354
 1844W        W22124   4.611   8.903  16.765 -0.0469  0.3428  0.0955
 1845W        W22125  11.483  14.029   0.457  0.0777 -0.0701  0.3107
 1846W        W22126   2.365   1.891   2.844  0.0262  0.1774  0.0189
 1847W        W22127  16.730   8.459   4.085  0.0915 -0.3780 -0.0482
 1848W        W22128   0.383   9.339   3.551 -0.0765 -0.1502 -0.0245
 1849W        W22129  13.511   3.337  12.973 -0.2290 -0.1182  0.1921
 1850W        W22130   7.958   5.543   0.366 -0.0597 -0.0364 -0.2194
 1851W        W22131  15.301  11.839   2.725  0.1126 -0.5130  0.1052
 1852W        W22132   5.297  10.984   0.911 -0.0575  0.0120 -0.1113
 1853W        W22133   6.979   7.271   3.027  0.0976  0.0751  0.0601
 1854W        W22134  15.628  15.548   0.641 -0.3032 -0.3859 -0.1821
 1855W        W22135   4.284  11.509   2.323  0.0021  0.0871  0.3872
 1856W        W22136  15.576   6.960   3.629  0.3163  0.0958 -0.2396
 1857W        W22137   0.765  15.483   0.455  0.0405  0.0247  0.1531
 1858W        W22138   4.113   0.346   0.692  0.4219 -0.0009 -0.2343
 1859W        W22139   1.644  12.230  14.300  0.1866  0.0473 -0.1529
 1860W        W22140  17.347  15.558  15.833  0.1475  0.2850 -0.2688
 1861W        W22141  11.229   8.017   3.555 -0.0775 -0.0893 -0.1048
 1862W        W22142   6.319   1.721   2.497 -0.0986 -0.0483  0.2275
 1863W        W22143  12.559  12.317  14.398  0.0802 -0.2533 -0.2051
 1864W        W22144   2.625   6.768  15.593 -0.0084 -0.1411 -0.0075
 1865W        W22145   6.059  12.754   3.130 -0.0376 -0.2524 -0.0261
 1866W        W22146  10.702  15.724  13.527 -0.1467 -0.1261  0.1360
 1867W        W22147  14.838   5.154   4.713 -0.2589 -0.0776  0.2406
 1868W        W22148  12.428  14.166   1.904  0.1524 -0.2700 -0.0141
 1869W        W22149  13.913  10.629  16.693  0.0046  0.1455 -0.1181
 1870W        W22150  12.679   2.731   2.464 -0.1526 -0.1361 -0.0316
 1871W        W22151   5.746  13.344   4.333 -0.1441  0.1747  0.1258
 1872W        W22152  13.700   3.541   2.426  0.2320  0.0873 -0.0686
 1873W        W22153  16.892  16.690  13.494 -0.2475 -0.0244 -0.1685
 1874W        W22154   5.038   3.851   3.014  0.3197  0.2233  0.0534
 1875W        W22155  14.424  13.834  12.518  0.1551 -0.2365 -0.1690
 1876W        W22156   9.369   4.747   4.027  0.0079  0.2402  0.0582
 1877W        W22157   6.721   7.441   4.059  0.4215 -0.2859 -0.0486
 1878W        W22158   2.404   4.682  15.331 -0.0995  0.1661  0.0989
 1879W        W22159  17.424   5.721  15.216 -0.0915 -0.0912 -0.0734
 1880W        W22160  16.109   8.210   3.168 -0.3199  0.0916 -0.2020
 1881W        W22161   9.245   3.616   3.596  0.1143  0.0527 -0.1243
 1882W        W22162  12.807  10.447  14.657  0.0368  0.0263 -0.0002
 1883W        W22163   0.609   2.899   4.132 -0.1128 -0.1208 -0.1309
 1884W        W22164   7.564   9.992   0.829  0.1053  0.2509 -0.0064
 1885W        W22165  10.759   5.160   0.426  0.0199  0.1597 -0.3340
 1886W        W22166   3.258   0.091   0.917 -0.1804 -0.0511  0.0487
 1887W        W22167  13.724   7.101   1.071 -0.1291 -0.1751  0.2752
 1888W        W22168   6.864   7.209  16.354 -0.0579 -0.0088 -0.0468
 1889W        W22169  14.062  15.119   2.774  0.1539  0.2696  0.1828
 1890W        W22170   8.778  15.453   0.139 -0.0595 -0.0418  0.2168
 1891W        W22171  11.357  14.876  14.325 -0.2210 -0.0455 -0.3181
 1892W        W22172  10.597   6.231  12.890  0.0923  0.1262  0.2312
 1893W        W22173  16.698   6.383   3.778  0.1563 -0.2536 -0.1603
 1894W        W22174   1.566   9.867   1.303  0.0741  0.2978  0.1245
 1895W        W22175   6.934   6.632  12.262  0.2943  0.1825 -0.1303
 1896W        W22176   2.782  14.094   1.044  0.3518 -0.0125 -0.1721
 1897W        W22177   2.847   4.899  15.283 -0.4424  0.0737 -0.1034
 1898W        W22178   6.862   0.257   2.335 -0.1164  0.2263 -0.0805
 1899W        W22179  17.439   6.845   3.316 -0.2457 -0.0406  0.2586
 1900W        W22180   5.369   0.754   2.060 -0.0499  0.1153  0.5858
 1901W        W22181   1.277  17.581  15.227 -0.0817  0.1446  0.1257
 1902W        W22182   9.716  10.993   1.399 -0.2599  0.3668  0.0303
 1903W        W22183  12.623   7.081   0.187 -0.0689  0.0458  0.1508
 1904W        W22184   2.914   3.520   3.134 -0.0906  0.2985 -0.2034
 1905W        W22185  10.580   2.767   0.166 -0.2281  0.0483  0.0814
 1906W        W22186   9.270   7.885  15.460  0.1914 -0.1314 -0.1012
 1907W        W22187   5.951   8.385   4.993  0.2096 -0.3781 -0.2183
 1908W        W22188   3.596  10.847   0.172  0.0385  0.0233  0.0998
 1909W        W22189   7.743  10.914   4.219 -0.3253 -0.2256  0.0305
 1910W        W22190  10.946   5.294   4.531  0.0356 -0.1991 -0.0537
 1911W        W22191   6.410  11.543   1.751 -0.3074 -0.1292  0.0696
 1912W        W22192   7.032   1.721  12.964  0.0122 -0.1312  0.2131
 1913W        W22193   5.088  16.077   0.127  0.0861 -0.0846  0.4670
 1914W        W22194  11.417  16.094  16.502  0.1592 -0.2445  0.0203
 1915W        W22195  12.076   6.093  14.070 -0.0187  0.1874 -0.1078
 1916W        W22196  14.773   0.967  14.637  0.0799 -0.1887 -0.0951
 1917W        W22197   8.926  11.372  13.341 -0.0098  0.0264 -0.0086
 1918W        W22198  10.647   9.085   3.675 -0.1717  0.0877 -0.3684
 1919W        W22199   9.091   7.060  15.505  0.1637  0.0180  0.1935
 1920W        W22200  14.338   7.284  14.307 -0.1344 -0.2085 -0.0463
 1921W        W22201  15.106  14.626  14.376 -0.0603 -0.1591  0.0446
 1922W        W22202   4.336   0.262   2.959  0.3708 -0.0361  0.0028
 1923W        W22203   4.949  15.715   3.160  0.1788  0.0180 -0.0656
 1924W        W22204   9.974  12.477  16.671  0.1174  0.1017  0.2701
 1925W        W22205   8.389  14.198  14.757 -0.2915 -0.3297 -0.1199
 1926W        W22206  15.364   8.722   2.532 -0.0092  0.4544 -0.0327
 1927W        W22207   9.113   9.469  16.995 -0.0569 -0.0287  0.0727
 1928W        W22208   0.969   6.834   1.946 -0.2225 -0.0789  0.2573
 1929W        W22209   2.269   3.167  12.465 -0.0184  0.2050  0.2744
 1930W        W22210   5.639   6.414   2.914 -0.1664 -0.0959  0.2312
 1931W        W22211  15.201  14.785  16.029  0.1194 -0.0562  0.1902
 1932W        W22212   1.280  15.118   1.224 -0.1362 -0.0416 -0.0165
 1933W        W22213  12.107   9.651   2.099 -0.1608  0.1640 -0.0149
 1934W        W22214  11.311   5.014  13.101 -0.2109  0.0236  0.1851
 1935W        W22215   1.804   7.143  15.535  0.0831 -0.1204 -0.0494
 1936W        W22216   5.565  17.644   4.713 -0.0839 -0.1187  0.2224
 1937W        W22217   3.642  16.445   1.958  0.2965 -0.0117 -0.0122
 1938W        W22218  13.731   7.031  12.285 -0.1534 -0.0628  0.0639
 1939W        W22219  15.689   6.135  12.334  0.0564  0.0802  0.2730
 1940W        W22220  17.159   9.940   2.725  0.0962  0.3097  0.1527
 1941W        W22221   3.142  16.740   4.653 -0.3475 -0.0188  0.2572
 1942W        W22222   6.999  14.270  15.857 -0.0020 -0.1728 -0.2543
 1943W        W22223  12.905  13.895   1.194 -0.2263  0.4376  0.2786
 1944W        W22224   0.585   5.170  14.095  0.2693  0.1609  0.3346
 1945W        W22225   0.427  12.184   2.025  0.1205  0.1561  0.0753
 1946W        W22226  17.183  11.523  16.314  0.1701 -0.2061 -0.3673
 1947W        W22227  11.853   3.784   2.671  0.0583  0.1207  0.3567
 1948W        W22228   7.804   2.337   2.093 -0.1377  0.0506 -0.0904
 1949W        W22229   1.786   5.559   0.533  0.0774  0.0534  0.0578
 1950W        W22230  16.776   1.391   4.231  0.1490 -0.0224  0.0250
 1951W        W22231  10.594  14.851   0.940 -0.1597 -0.0095 -0.0063
 1952W        W22232   8.675  14.104  13.574  0.1895 -0.1692 -0.1003
 1953W        W22233   0.858  13.150   1.224  0.2598  0.0630 -0.2301
 1954W        W22234  11.940  17.195  15.168  0.1626 -0.1124 -0.2866
 1955W        W22235  17.272   8.504   4.477  0.0617  0.1902 -0.1238
 1956W        W22236   0.605  14.959   0.807 -0.0021  0.2261 -0.1956
 1957W        W22237   4.828  15.322   4.583  0.0748 -0.0088 -0.0671
 1958W        W22238   0.259  11.589  15.736  0.0050  0.0870  0.2829
 1959W        W22239  12.883   8.432   2.748  0.3271 -0.2415 -0.2773
 1960W        W22240   8.166   1.229   1.998  0.1755  0.1689  0.0169
 1961W        W22241  15.157   7.854   4.869 -0.0552 -0.0921  0.1147
 1962W        W22242   8.606  12.929   1.703 -0.2320 -0.2761 -0.0366
 1963W        W22243  13.287  11.356   2.014 -0.1828  0.1644  0.0357
 1964W        W22244  12.184   9.098   2.082 -0.1117  0.1739 -0.2022
 1965W        W22245   2.788   3.914  13.836 -0.1063 -0.1419 -0.0731
 1966W        W22246   2.719   2.058  15.208 -0.3577 -0.1396 -0.0280
 1967W        W22247  10.870   8.630   2.797  0.2061 -0.0528 -0.3374
 1968W        W22248  11.035  14.290   3.462  0.0485  0.2152 -0.1639
 1969W        W22249   6.518  14.370  15.782  0.4407  0.2145 -0.0262
 1970W        W22250  12.168   2.412  16.944 -0.0962  0.0703 -0.1398
 1971W        W22251  11.820   1.068   2.685  0.2007  0.0930 -0.0159
 1972W        W22252   1.612   2.637  16.798  0.1012  0.3292  0.3115
 1973W        W22253  11.976  13.510   3.820  0.0780 -0.0622 -0.0903
 1974W        W22254   0.694   7.952  15.253 -0.1145 -0.2119  0.1587
 1975W        W22255  17.392  15.433  12.496  0.2346 -0.0405 -0.2041
 1976W        W22256   4.118   4.678   3.998  0.0014 -0.5552 -0.0400
 1977W        W22257   4.683   5.229   1.726  0.0950 -0.1015 -0.0077
 1978W        W22258   1.543   3.935   0.037 -0.0648  0.0133 -0.0867
 1979W        W22259  17.370   7.449   2.705 -0.0479 -0.3773 -0.1644
 1980W        W22260  11.462  10.561   1.539  0.2586 -0.1668  0.0218
 1981W        W22261   9.456  14.439  12.853 -0.0718  0.0840 -0.1699
 1982W        W22262  10.119  14.717   0.898 -0.0176  0.3506  0.2443
 1983W        W22263  15.533   9.647   2.930 -0.2894 -0.0093  0.1755
 1984W        W22264  17.137   7.372   0.012 -0.2296 -0.1246 -0.4258
 1985W        W22265   7.524  11.887  13.093  0.3446  0.0407 -0.1014
 1986W        W22266   5.613   7.787  15.980 -0.2606 -0.2236  0.2237
 1987W        W22267   9.978  15.181   5.016  0.1054  0.0048  0.0650
 1988W        W22268  16.023   2.380   4.607  0.0630 -0.1636 -0.0455
 1989W        W22269  14.780   6.853  16.130 -0.0314 -0.0412  0.0751
 1990W        W22270   1.724  15.113   3.899 -0.0299 -0.0819 -0.0249
 1991W        W22271  16.647   6.782   3.469  0.2103 -0.0805  0.3957
 1992W        W22272   9.204   5.916  16.091 -0.1821  0.0798  0.1021
 1993W        W22273  14.504  16.803   0.941  0.4445 -0.1121  0.1140
 1994W        W22274   5.758  15.337   0.175  0.1931 -0.1559 -0.1688
 1995W        W22275   2.181  15.546  13.587  0.2761 -0.2112  0.2717
 1996W        W22276  15.687   4.674  13.348  0.0906  0.0686 -0.0579
 1997W        W22277  15.956   7.198  16.406  0.3012 -0.0470  0.0471
 1998W        W22278  15.577  15.847   1.928 -0.1996  0.0874 -0.2941
 1999W        W22279  16.249  11.833   3.061  0.1178 -0.1325  0.2448
 2000W        W22280   5.951  13.310  15.394 -0.0653 -0.2989  0.0890
 2001W        W22281  15.007   9.765   0.617 -0.1438 -0.1720  0.0488
 2002W        W22282  17.694   1.979  13.073 -0.3706  0.2394 -0.0232
 2003W        W22283  10.543  17.575   0.234 -0.1066 -0.1157 -0.0439
 2004W        W22284  15.927   0.492  13.733  0.0935 -0.0482 -0.2297
 2005W        W22285   5.272   5.351   3.004  0.2911  0.2307  0.0772
 2006W        W22286   9.936   9.423   1.434 -0.2809 -0.0798 -0.0414
 2007W        W22287  14.867  15.277   3.700  0.0719 -0.0968  0.5721
 2008W        W22288   6.292   3.114  13.537  0.0556 -0.0140 -0.0095
 2009W        W22289  16.806   6.234   3.148 -0.2957  0.2331 -0.1196
 2010W        W22290  11.869   1.515  14.082 -0.0913  0.2180  0.3787
 2011W        W22291   8.339   0.839   0.457  0.0968  0.0567  0.2458
 2012W        W22292   7.486   0.836   1.764 -0.2796  0.3389  0.0421
 2013W        W22293   8.820   6.593   1.712  0.0165 -0.2644  0.0855
 2014W        W22294   3.751  12.164  14.909 -0.0060 -0.1309  0.1339
 2015W        W22295   7.368   1.728   1.893 -0.0895 -0.0709 -0.1617
 2016W        W22296  13.470  15.877  16.330  0.2060  0.0363  0.4463
 2017W        W22297   7.582  15.495  15.726  0.0910 -0.1101  0.0664
 2018W        W22298   8.843  10.949   1.316 -0.0613  0.1417  0.0033
 2019W        W22299   6.713   1.201   4.648  0.0756 -0.1035 -0.2447
 2020W        W22300   2.796   3.395   4.880 -0.2806 -0.3388  0.1241
 2021W        W22301  16.644  11.072  15.566  0.0535 -0.0121 -0.3427
 2022W        W22302  14.709  14.174   1.000 -0.1287  0.4428  0.0443
 2023W        W22303   3.400   9.478  16.790  0.0844  0.3115 -0.0562
 2024W        W22304   1.210  13.773   4.420 -0.0832 -0.2424 -0.0380
 2025W        W22305   3.026   3.592   0.291 -0.1841  0.1328 -0.1645
 2026W        W22306  14.336   0.129   4.652 -0.2758 -0.0197  0.0427
 2027W        W22307   0.056   4.930   5.924 -0.1388  0.0848  0.1618
 2028W        W22308  16.652   6.966   1.656  0.0229  0.1418 -0.1354
 2029W        W22309   7.167   2.855   2.466 -0.1409 -0.2464  0.1155
 2030W        W22310  11.072   4.786   1.701 -0.1525  0.1522 -0.0045
 2031W        W22311   8.619  14.358   2.723  0.0131  0.2103 -0.0094
 2032W        W22312   8.275  11.664   3.939 -0.3856 -0.0542 -0.3155
 2033W        W22313   3.288   9.645  12.951 -0.0500 -0.1392 -0.0774
 2034W        W22314  14.450   2.792   4.317  0.0229  0.2509  0.0183
 2035W        W22315  17.326   2.078   4.342 -0.2282 -0.4822 -0.1034
 2036W        W22316   3.116  12.604  13.409  0.2108 -0.2278  0.2771
 2037W        W22317   9.312   7.283   0.931 -0.1267  0.5677  0.1896
 2038W        W22318   8.555  17.706   1.197 -0.3532 -0.1766 -0.2309
 2039W        W22319  13.389   7.407  12.816 -0.0630  0.0889 -0.1558
 2040W        W22320   2.705  14.095  15.375  0.0714 -0.0585  0.1248
 2041W        W22321  16.014  16.916  14.644 -0.0577  0.0199 -0.4817
 2042W        W22322   2.215   2.497   0.735 -0.2043  0.2865  0.2181
 2043W        W22323   8.119  12.055   0.298  0.2708 -0.2847 -0.2214
 2044W        W22324  12.548  16.791  14.657  0.0072  0.0776  0.3854
 2045W        W22325  14.899  16.546   3.485 -0.1887  0.1065 -0.1275
 2046W        W22326  12.302   1.110   2.943  0.3351 -0.3555 -0.0612
 2047W        W22327  13.227   4.908   1.376 -0.0627 -0.1748  0.2851
 2048W        W22328  12.958   1.382  15.340  0.0382 -0.0655 -0.2346
 2049W        W22329   0.179  13.126   1.016 -0.0043  0.0094 -0.2019
 2050W        W22330  16.400  11.502   4.090 -0.0953  0.0057  0.0096
 2051W        W22331   4.119   7.411  11.264  0.0374 -0.2500 -0.0818
 2052W        W22332   9.410  14.693  16.743  0.1899 -0.1856  0.3205
 2053W        W22333   4.635  11.458  12.545 -0.1939 -0.0667  0.0352
 2054W        W22334   8.989   2.508   3.184  0.0728  0.1948 -0.1243
 2055W        W22335   6.472   7.821  15.466  0.1708 -0.3879 -0.4079
 2056W        W22336   6.803  15.944  14.584  0.1392  0.0077 -0.0497
 2057W        W22337   5.458   8.478  16.037 -0.3532 -0.1543  0.1196
 2058W        W22338  12.626  14.224   0.702 -0.2069  0.0439  0.0672
 2059W        W22339  11.710   6.786   4.774 -0.2049 -0.1620  0.1153
 2060W        W22340  13.256   8.339   1.396  0.4053 -0.0350  0.2817
 2061W        W22341  10.556   4.996   1.792 -0.0616 -0.3526 -0.3053
 2062W        W22342  11.172   2.657   3.684  0.0721 -0.0235 -0.0316
 2063W        W22343  13.730   5.826  14.572  0.2741  0.3431 -0.3806
 2064W        W22344   1.794  11.998  15.771 -0.0268  0.2338 -0.1110
 2065W        W22345   5.921   1.645  15.564  0.3639 -0.2042 -0.1966
 2066W        W22346   0.817  15.277  16.274  0.1369  0.1961  0.3032
 2067W        W22347   7.494  17.718   1.623 -0.3102 -0.1060 -0.0750
 2068W        W22348   8.664   6.537   0.454  0.2012  0.0644  0.2913
 2069W        W22349  11.144   5.601   3.718 -0.0326  0.1417 -0.3770
 2070W        W22350   8.527  11.291   1.178  0.2095  0.1189  0.3671
 2071W        W22351   2.942   3.827   5.028 -0.3285 -0.1023 -0.2965
 2072W        W22352   2.131  15.475  16.462  0.0525 -0.1491  0.0239
 2073W        W22353   3.390   8.610  15.806  0.1197 -0.0354  0.0901
 2074W        W22354  17.413  14.561  15.038  0.0833  0.2430  0.0827
 2075W        W22355  16.910   9.484   4.472  0.2347  0.0070  0.0707
 2076W        W22356   8.669  12.475  12.884  0.2043 -0.0903 -0.0398
 2077W        W22357   0.670   7.409  13.420 -0.2297 -0.1312 -0.1052
 2078W        W22358  14.793  11.786   0.837  0.3513  0.0908  0.1059
 2079W        W22359   4.200  16.365  13.790  0.0131  0.0556  0.0874
 2080W        W22360   7.001   3.523  14.633 -0.0625  0.2584  0.0774
 2081W        W22361   0.230   6.960  16.609 -0.2624  0.0778  0.1086
 2082W        W22362   6.950   0.628   2.028  0.0633  0.1708  0.0500
 2083W        W22363   0.243  15.478  14.570  0.0540  0.1746 -0.1132
 2084W        W22364  13.952   3.918   4.563 -0.0993  0.0395  0.0633
 2085W        W22365   8.423   6.352   2.852  0.0802 -0.0003 -0.0609
 2086W        W22366  13.472  15.769   0.932 -0.0083 -0.1407  0.2522
 2087W        W22367   8.904   6.328   0.002 -0.2975  0.1478  0.1534
 2088W        W22368   3.330   7.377  14.598 -0.1055  0.0238 -0.0670
 2089W        W22369  12.239   0.531   0.789  0.1505 -0.1579 -0.1396
 2090W        W22370   6.746   1.074   2.117 -0.1751  0.0569 -0.1821
 2091W        W22371   4.860  14.722  16.605 -0.1857  0.2409  0.1148
 2092W        W22372  15.578   2.840   2.440 -0.0169 -0.0003 -0.1388
 2093W        W22373   5.919   4.636  15.313  0.2201 -0.1392 -0.0479
 2094W        W22374  14.851   0.247  15.572 -0.2607 -0.2912 -0.0499
 2095W        W22375  11.670  17.537  13.487  0.5151  0.2789 -0.0970
 2096W        W22376   9.204  11.591   2.517 -0.0859  0.1013 -0.1439
 2097W        W22377   8.469  14.598  12.734  0.0912  0.2089  0.1014
 2098W        W22378  16.636  17.004  13.882  0.1044  0.3767  0.2857
 2099W        W22379   8.773   6.914   1.346  0.1803  0.2414  0.0093
 2100W        W22380  10.870  14.210  14.522  0.1352 -0.1907 -0.2721
 2101W        W22381   0.501   2.595  13.982  0.0322 -0.0469 -0.0700
 2102W        W22382   7.600  15.507  13.294 -0.0636 -0.0522 -0.0835
 2103W        W22383   7.509  15.402   2.874 -0.0901  0.1171 -0.1403
 2104W        W22384   6.632  16.433  13.598 -0.1618 -0.2159  0.0239
 2105W        W22385  11.384  13.980  13.500 -0.2133 -0.4505 -0.0209
 2106W        W22386   9.440   1.211   1.518  0.0598 -0.0170 -0.0319
 2107W        W22387  11.972   7.336  14.408 -0.2037  0.1123  0.1676
 2108W        W22388  14.825  10.512  14.213  0.4744 -0.0637  0.2328
 2109W        W22389  12.893  17.091  14.264  0.2392  0.2303  0.1444
 2110W        W22390  12.265  17.619  15.480  0.0928  0.2087  0.0279
 2111W        W22391  10.232   6.010   0.117 -0.0905  0.3628  0.1381
 2112W        W22392   1.635   7.196  11.936 -0.2364 -0.0291  0.1662
 2113W        W22393   6.588   5.012  14.073  0.1658  0.0250  0.1761
 2114W        W22394  16.689   5.944   2.646  0.1505 -0.1653 -0.0035
 2115W        W22395   6.204   7.349  14.991 -0.0362 -0.1282  0.3009
 2116W        W22396   3.365   3.625  13.220 -0.1085 -0.3209  0.2024
 2117W        W22397  14.263   6.595   3.685 -0.0874  0.0591  0.0146
 2118W        W22398   6.888  13.685  16.339 -0.0403 -0.0314 -0.0205
 2119W        W22399  12.336   2.185   4.897 -0.1184 -0.2183 -0.0133
 2120W        W22400  10.638   3.503   5.289 -0.1026 -0.0178 -0.0507
 2121W        W22401  11.260  14.959   5.221  0.1129 -0.0266  0.3041
 2122W        W22402   8.092   4.751   2.131 -0.0727  0.2565  0.0917
 2123W        W22403  15.310   6.205   0.709 -0.1975  0.0421 -0.0202
 2124W        W22404   4.037  10.010  15.142  0.2017 -0.0646 -0.1862
 2125W        W22405  15.466  11.377   2.805  0.0244 -0.0800  0.2584
 2126W        W22406  17.392  12.985   4.607  0.0066  0.1092 -0.0794
 2127W        W22407  15.591  13.609  16.729 -0.2605 -0.0368 -0.0508
 2128W        W22408   5.752   0.164   1.618  0.1692  0.0996  0.1716
 2129W        W22409  10.665  13.573   1.461  0.1980 -0.1278  0.1409
 2130W        W22410  16.323  11.130  13.143  0.0552  0.1165 -0.2863
 2131W        W22411   2.153   4.649   0.091 -0.1971 -0.1787  0.1155
 2132W        W22412  15.464   1.309  13.562  0.1017  0.0209  0.0808
 2133W        W22413   5.779   2.030   2.576  0.0800  0.0838  0.0611
 2134W        W22414   9.729   8.407  16.455  0.2521  0.3179  0.2222
 2135W        W22415   0.192   9.556  13.896  0.0674 -0.0882  0.0218
 2136W        W22416   0.532   0.159  13.085  0.2825 -0.0401  0.0972
 2137W        W22417   2.197   3.029   0.508  0.0773 -0.1680 -0.0305
 2138W        W22418   0.459  14.696  13.616 -0.1115 -0.2238 -0.2044
 2139W        W22419  17.731  12.844  12.884  0.2568 -0.0960 -0.1233
 2140W        W22420  11.338  10.690  12.503  0.1961  0.0829  0.2805
 2141W        W22421  10.116   2.445   2.488 -0.0693  0.2048  0.0991
 2142W        W22422   0.548   4.958  16.504  0.2038 -0.0279 -0.0204
 2143W        W22423  15.084  12.095  16.773  0.0136 -0.2380 -0.0705
 2144W        W22424  13.826   3.204   1.236  0.2241  0.1489  0.0733
 2145W        W22425   4.559  10.441   3.491 -0.0825 -0.0181 -0.1808
 2146W        W22426   6.654   5.635  12.380 -0.0949  0.1664 -0.0149
 2147W        W22427  13.963   8.122  12.548  0.1436  0.0686  0.2889
 2148W        W22428  12.173  17.347  12.996 -0.0297 -0.1586  0.0469
 2149W        W22429  12.964   0.365  16.532 -0.0851 -0.3133  0.0069
 2150W        W22430   7.034   7.889   4.744 -0.1662 -0.1780 -0.0980
 2151W        W22431   4.633  16.841   4.218 -0.1775  0.0559  0.2044
 2152W        W22432  16.912   9.275  14.642 -0.2129 -0.0714  0.0977
 2153W        W22433  11.153  13.181   0.639  0.3907  0.2735  0.0293
 2154W        W22434  16.445   2.734  12.807 -0.1068 -0.3709 -0.0859
 2155W        W22435   7.454   0.715   4.316 -0.0015 -0.0290  0.1912
 2156W        W22436  16.963  10.297  16.085  0.1478 -0.3817  0.0904
 2157W        W22437  13.468   3.952   2.636 -0.1667 -0.1343 -0.2752
 2158W        W22438   6.496  14.813   0.613  0.1708  0.0967  0.1945
 2159W        W22439  10.424   5.393  15.043  0.1076  0.0477 -0.1266
 2160W        W22440   8.955   5.504  16.238 -0.0056  0.0368 -0.0625
 2161W        W22441   6.435   1.744   0.757 -0.0834  0.4103  0.1910
 2162W        W22442   3.629   5.995   4.297  0.1573 -0.0216  0.0009
 2163W        W22443   1.659  14.310   1.533  0.0570  0.0736  0.0103
 2164W        W22444   8.858  11.513  16.973  0.1112 -0.0695 -0.3794
 2165W        W22445  17.546   4.564   0.827  0.0775 -0.0342 -0.2524
 2166W        W22446   8.411  12.455  12.428 -0.1653 -0.1240  0.0042
 2167W        W22447   4.093   9.002  16.120 -0.2571 -0.3914 -0.2109
 2168W        W22448   6.714  10.221   2.057  0.0493  0.0310  0.0613
 2169W        W22449  15.781  14.036   1.989  0.0852 -0.1275 -0.2137
 2170W        W22450  13.808  15.263  14.832  0.2243  0.0119  0.1343
 2171W        W22451   5.641   6.592  12.541 -0.4380 -0.0689  0.1886
 2172W        W22452   2.550  17.344  15.727  0.0881 -0.2257  0.1014
 2173W        W22453  10.970  17.200   3.249 -0.2660 -0.4622 -0.0797
 2174W        W22454   2.396   5.372   1.016 -0.2259  0.2240 -0.0142
 2175W        W22455  15.969   1.387  12.526  0.2113  0.2023 -0.0229
 2176W        W22456   2.602  17.607   2.533 -0.2352 -0.2095  0.1352
 2177W        W22457  15.112   7.303   1.566  0.1154  0.3237  0.0473
 2178W        W22458   6.597   3.961  12.886 -0.0662  0.2370  0.2333
 2179W        W22459  15.322   4.345   3.632 -0.1648  0.0787  0.0072
 2180W        W22460   9.103   7.735  16.953  0.2368 -0.0410  0.0330
 2181W        W22461   9.194   3.148  15.025  0.0863  0.0970  0.4706
 2182W        W22462   4.959  16.054  15.103 -0.2126  0.0366  0.2738
 2183W        W22463  12.209   4.862   1.504 -0.2400 -0.1871 -0.0993
 2184W        W22464  14.740   2.476  14.051  0.3841 -0.2055  0.0357
 2185W        W22465  12.179  11.485  13.886  0.1788 -0.1296  0.5929
 2186W        W22466   4.067   5.790   0.089 -0.0179  0.0800  0.3174
 2187W        W22467   5.822   2.736   1.963 -0.2008  0.0334 -0.1439
 2188W        W22468  14.652  17.388   3.552  0.2709  0.2781  0.3025
 2189W        W22469   7.443  11.550  16.767  0.0343 -0.1989  0.2659
 2190W        W22470  14.549   5.145   0.501 -0.0651 -0.1727 -0.0962
 2191W        W22471   9.708  14.009   3.327  0.1559 -0.0218 -0.0270
 2192W        W22472  13.310  15.788   4.122  0.0077  0.3560 -0.1757
 2193W        W22473   2.612   3.037  15.511 -0.2663 -0.2600 -0.0669
 2194W        W22474  14.534   8.952   2.283 -0.1125 -0.3150 -0.1813
 2195W        W22475   5.515   0.571   0.882  0.0607 -0.1119  0.3939
 2196W        W22476   3.603   8.952  16.113  0.1492 -0.2787 -0.1054
 2197W        W22477   9.413  10.163   1.299  0.1698  0.1857 -0.2302
 2198W        W22478   2.593   1.471   1.151  0.1128  0.0101 -0.3841
 2199W        W22479   9.386  12.205   3.894  0.2475  0.0629 -0.1787
 2200W        W22480   1.978  12.643  14.150  0.0266  0.2581 -0.1414
 2201W        W22481  17.340  13.749   4.772  0.0683 -0.0399 -0.1980
 2202W        W22482   1.474  15.092  14.326 -0.0515  0.2269  0.0147
 2203W        W22483  15.441  10.404  12.940  0.0952 -0.0352 -0.3025
 2204W        W22484   3.527   6.032  12.436 -0.2718 -0.0452  0.1455
 2205W        W22485   8.441   4.057  12.005 -0.3574 -0.3452  0.1641
 2206W        W22486   0.928   6.872  14.141  0.0197 -0.0236 -0.0531
 2207W        W22487  13.196   8.843   2.762  0.0418 -0.3237  0.0151
 2208W        W22488   0.391   6.545   3.607 -0.3130  0.0592 -0.0642
 2209W        W22489  14.679  14.165  13.359 -0.0847 -0.4164 -0.0527
 2210W        W22490   8.181  15.700   4.621 -0.1570  0.2384  0.3216
 2211W        W22491   5.965   9.790  14.986  0.0771  0.1736  0.1361
 2212W        W22492   8.871   6.069  13.927 -0.2844  0.1826  0.0663
 2213W        W22493  17.232   9.261  16.043 -0.0313 -0.1915 -0.0707
 2214W        W22494   3.267  10.234   1.469 -0.0230 -0.0276 -0.4565
 2215W        W22495  10.183   0.748   4.013  0.1278 -0.1009 -0.1893
 2216W        W22496  16.359   1.217  15.501 -0.1527  0.2203  0.0981
 2217W        W22497  13.763   7.657  14.703  0.0768  0.1667 -0.1951
 2218W        W22498   7.635  11.108  14.897 -0.0103  0.1102  0.3760
 2219W        W22499  10.086   3.662  13.788  0.1950 -0.0616  0.0631
 2220W        W22500   0.069  10.379  15.793  0.4460  0.0459  0.0591
 2221W        W22501  12.249  12.738  15.937 -0.0733 -0.1445 -0.0866
 2222W        W22502   1.774  10.274   4.142  0.1357 -0.1872  0.2197
 2223W        W22503  13.724  11.653   3.445  0.1693 -0.1914 -0.0402
 2224W        W22504   8.262   2.591   0.146  0.0145  0.2164 -0.0100
 2225W        W22505  15.059   1.302  14.902 -0.0722 -0.0587 -0.1597
 2226W        W22506  10.678   4.245  13.881 -0.0379  0.1448  0.0995
 2227W        W22507   5.764  11.594   2.863 -0.1413  0.0713  0.1084
 2228W        W22508   0.028  16.140   1.492  0.3271 -0.0370  0.0948
 2229W        W22509   4.571   7.158   5.089  0.2466  0.2666 -0.2655
 2230W        W22510  16.739  17.087  15.947 -0.1591 -0.1626  0.1021
 2231W        W22511  17.591   7.018   2.864 -0.0336  0.2238  0.0153
 2232W        W22512  10.628   4.559   1.456 -0.0247 -0.0596 -0.0830
 2233W        W22513   0.614  16.318   1.557 -0.0632  0.0954  0.0335
 2234W        W22514  17.494  10.007   0.647 -0.1210  0.4289 -0.1217
 2235W        W22515   0.907  13.086  16.790 -0.1857  0.1019 -0.2934
 2236W        W22516  11.702  15.231   0.003  0.2797  0.1851 -0.3324
 2237W        W22517   6.215   4.200   2.990 -0.3035 -0.1479 -0.2066
 2238W        W22518   0.592   2.028  14.886 -0.1179 -0.0129 -0.1476
 2239W        W22519   7.087   2.005   0.378  0.1255  0.0679  0.0473
 2240W        W22520  15.237  13.868   0.234  0.3164  0.0249  0.0749
 2241W        W22521   9.568  17.184  13.334  0.0287  0.0722 -0.3363
 2242W        W22522  16.437  12.300  15.046  0.1172 -0.0396 -0.1461
 2243W        W22523   3.265   3.046   3.099 -0.0014 -0.1622 -0.3284
 2244W        W22524   3.372   0.160  15.168  0.1051 -0.2125  0.1477
 2245W        W22525   4.959  17.009  16.395 -0.3237 -0.4780 -0.1042
 2246W        W22526  11.647  15.270  14.148 -0.1299 -0.1018 -0.0434
 2247W        W22527   4.337   1.648  15.001 -0.1913 -0.0898 -0.2415
 2248W        W22528  13.878   4.700  13.446 -0.0530 -0.2439 -0.0051
 2249W        W22529   7.464   7.964   0.398 -0.0161  0.1039  0.2900
 2250W        W22530   0.163   5.981  12.767  0.1787 -0.1564 -0.1160
 2251W        W22531   3.840  16.686   3.330 -0.3500  0.1970  0.1123
 2252W        W22532  14.026   8.857   0.539 -0.0217  0.2856  0.0656
 2253W        W22533   4.368  15.536  17.010 -0.1233  0.0994  0.4658
 2254W        W22534   7.068  16.877  12.339  0.0160 -0.4487 -0.0173
 2255W        W22535   3.146   9.501   1.858 -0.2115  0.1511  0.2111
 2256W        W22536   5.964   3.466   0.537 -0.1621 -0.0069  0.4457
 2257W        W22537   0.077  17.178  13.417 -0.2165  0.1849 -0.0766
 2258W        W22538  10.501  16.684  15.607  0.0495 -0.1165 -0.2118
 2259W        W22539  14.925   0.995   4.326 -0.2437 -0.1911 -0.2309
 2260W        W22540   1.736   8.699   4.774 -0.0367 -0.0151 -0.2167
 2261W        W22541   6.085  15.576   3.565  0.1441 -0.0627  0.2503
 2262W        W22542   5.947   5.909   3.118 -0.2240  0.4915  0.1915
 2263W        W22543   1.961   8.764   1.764 -0.1904 -0.4403  0.0199
 2264W        W22544   4.885   6.309  14.955  0.2985  0.1362  0.2165
 2265W        W22545  16.120   9.328  13.096  0.2222  0.1296  0.0527
 2266W        W22546   2.779   5.107  16.271 -0.2850 -0.0479  0.0225
 2267W        W22547  16.333   8.720  15.311  0.1317 -0.2269  0.0495
 2268W        W22548   8.727  10.048  14.245  0.2541  0.1143 -0.2783
 2269W        W22549  16.501   0.632   0.554 -0.3302  0.1029 -0.2465
 2270W        W22550   0.829   7.606  14.437 -0.0109  0.0671 -0.0880
 2271W        W22551   6.138  13.079   0.601 -0.1293 -0.0459 -0.2345
 2272W        W22552  15.923   0.342  13.207 -0.0112 -0.0751  0.2896
 2273W        W22553   6.781   8.349  13.128  0.1027 -0.0133  0.1459
 2274W        W22554   1.828   9.786   4.005 -0.0578 -0.1183 -0.1695
 2275W        W22555   9.526  11.075   4.342 -0.2952  0.0297 -0.1091
 2276W        W22556  13.374   3.471   2.031 -0.0430 -0.2339  0.0400
 2277W        W22557   6.277   6.453   3.719  0.0859 -0.2010  0.2234
 2278W        W22558   5.226   4.614   1.035 -0.1374 -0.0354  0.2535
 2279W        W22559   2.823  13.007  13.872  0.0739 -0.1349 -0.1122
 2280W        W22560  14.541  17.010   4.561  0.1040 -0.0511  0.5426
 2281W        W22561   5.561   7.131  12.667  0.3768  0.0885 -0.0023
 2282W        W22562  14.555   6.289   4.004  0.2823  0.1653  0.1057
 2283W        W22563   9.995   0.084  15.693  0.1835 -0.0661 -0.2287
 2284W        W22564   2.794  16.556   4.066  0.0100  0.3448 -0.1657
 2285W        W22565   3.213  14.167   1.336 -0.1621  0.3130  0.1604
 2286W        W22566  15.662   4.721  15.936  0.3118  0.2233 -0.0120
 2287W        W22567  12.334   0.135  12.316  0.3701 -0.1399  0.0050
 2288W        W22568  10.647  15.857   1.696 -0.1526  0.1685  0.1068
 2289W        W22569   5.212   0.409  11.962  0.0009  0.0862 -0.0277
 2290W        W22570  12.528   7.128   2.377  0.0268 -0.2360 -0.3341
 2291W        W22571  10.644   9.291  14.590  0.1366 -0.2869 -0.0173
 2292W        W22572   6.663   2.596  14.071 -0.0204  0.1096  0.0459
 2293W        W22573   3.018   6.380  13.808 -0.3860  0.1211  0.0393
 2294W        W22574   9.174  13.061   1.556  0.0544  0.0488  0.3259
 2295W        W22575  11.247  14.769  15.671 -0.0455 -0.1327  0.2434
 2296W        W22576   4.659   5.240  16.754  0.3446 -0.0723 -0.1750
 2297W        W22577  10.645   4.013   1.179  0.0182 -0.0587 -0.2920
 2298W        W22578  11.236   8.149   1.642 -0.0168  0.0967 -0.1064
 2299W        W22579  10.261  11.800  11.002  0.0933 -0.2751 -0.0772
 2300W        W22580   2.449   4.562  16.704 -0.1945 -0.0406 -0.1783
 2301W        W22581   9.985   8.022   2.941 -0.5112  0.1873 -0.1841
 2302W        W22582   3.509   2.810  16.868  0.1966 -0.2284  0.0604
 2303W        W22583   1.816   2.776   0.857 -0.1650  0.0207  0.2057
 2304W        W22584  14.088   9.372  16.703 -0.2329 -0.0044  0.2006
 2305W        W22585   7.447   9.689   3.933  0.0433 -0.0033 -0.1801
 2306W        W22586   1.002   4.454  13.722 -0.2243 -0.3632  0.1907
 2307W        W22587   5.392   4.851   4.040 -0.3245 -0.1901 -0.1568
 2308W        W22588  15.039   7.908  15.743 -0.0835 -0.0058 -0.0458
 2309W        W22589   7.352   1.476   0.989 -0.0531 -0.1184  0.0693
 2310W        W22590  16.671   7.204   2.764 -0.1257  0.1085  0.3576
 2311W        W22591   2.700  12.186  16.888  0.2955 -0.3147 -0.0671
 2312W        W22592  13.336   6.747  13.968 -0.0791 -0.2006  0.0456
 2313W        W22593  14.677   5.572   2.182  0.1496 -0.0766  0.0697
 2314W        W22594   0.172  11.713   0.787  0.1804  0.2067  0.2908
 2315W        W22595  17.233   8.152   0.154 -0.0151  0.0364  0.0500
 2316W        W22596  14.698   4.243  13.301  0.1756  0.0136 -0.1062
 2317W        W22597   7.782  16.077  14.931 -0.3605 -0.0635 -0.0357
 2318W        W22598   6.122  15.771   1.179  0.1934 -0.1772 -0.1513
 2319W        W22599   6.098   7.496  14.520  0.1185  0.3036 -0.0003
 2320W        W22600   8.978   8.976   3.450 -0.0595 -0.1099  0.1021
 2321W        W22601   4.460  10.577   1.937  0.0840  0.0409 -0.1322
 2322W        W22602   2.494  10.226  13.746 -0.4946 -0.3291 -0.3172
 2323W        W22603   6.237   8.364  13.809 -0.1583 -0.0311  0.0800
 2324W        W22604   3.439   8.693   4.840  0.0430  0.2084 -0.1874
 2325W        W22605   4.841  12.479  16.812 -0.3146 -0.3689 -0.0601
 2326W        W22606  14.646  17.301  12.884  0.2501 -0.1823  0.2418
 2327W        W22607   0.234  12.188   0.471 -0.1205  0.1785 -0.1772
 2328W        W22608   8.741  13.238  12.192 -0.0936  0.1932  0.2899
 2329W        W22609   8.121   8.394   0.921 -0.1320 -0.0725 -0.1127
 2330W        W22610  11.417   7.712   1.560 -0.1271 -0.0225 -0.0690
 2331W        W22611  12.882  12.197   0.555 -0.0147  0.0257 -0.2548
 2332W        W22612   3.261  14.232  15.640  0.2170 -0.1100  0.1338
 2333W        W22613   3.716  11.023  12.482  0.2247 -0.0301 -0.3384
 2334W        W22614  17.178  14.583   2.491 -0.0376 -0.0114 -0.2360
 2335W        W22615  13.828  10.070  15.355  0.0444 -0.2548 -0.1592
 2336W        W22616   5.884   4.761   4.486 -0.0083 -0.2079  0.3220
 2337W        W22617   3.562   9.780   3.599 -0.3626  0.0253 -0.2364
 2338W        W22618   1.083  17.384  14.024 -0.2795 -0.3110  0.0570
 2339W        W22619  11.571   1.498  13.063 -0.2922  0.3389  0.3043
 2340W        W22620   6.675  14.180  13.290 -0.2191  0.3622  0.0744
 2341W        W22621   6.783   4.120   2.858  0.1459 -0.1537 -0.2042
 2342W        W22622   7.937   1.285  14.280 -0.2303 -0.0006 -0.2300
 2343W        W22623   8.930  14.472  12.847  0.1877 -0.1234 -0.0103
 2344W        W22624  10.752   0.761  14.445  0.0110 -0.0751  0.0313
 2345W        W22625   8.106   3.117  16.128 -0.0993 -0.0058 -0.0197
 2346W        W22626   2.097   3.377  16.243  0.2364 -0.0508  0.0018
 2347W        W22627   8.388  16.465   1.230 -0.2100 -0.2052  0.0499
 2348W        W22628   9.543  12.566   3.624 -0.0539 -0.0069  0.1046
 2349W        W22629  14.042  10.887   0.614  0.1727  0.0598  0.1944
 2350W        W22630  15.052  13.469   0.500 -0.0856 -0.1382  0.0363
 2351W        W22631   3.547   8.364   3.541  0.3415  0.1878 -0.0623
 2352W        W22632  17.029  12.172   1.497 -0.1643 -0.1834 -0.1214
 2353W        W22633  15.852  12.950  15.121 -0.0878  0.0816  0.2113
 2354W        W22634  14.856  14.762  14.828 -0.2714 -0.0898  0.3686
 2355W        W22635  10.496  14.181  15.898 -0.1370  0.0227  0.0569
 2356W        W22636  12.421   5.889  15.818  0.1721  0.3300 -0.4649
 2357W        W22637  10.095  13.216   5.044  0.2188  0.4036  0.0180
 2358W        W22638   0.877  16.377  12.961 -0.1226  0.1807  0.0328
 2359W        W22639   5.082  12.251   3.527  0.0523  0.0865  0.2088
 2360W        W22640  11.782   4.130  16.898  0.2079 -0.1356 -0.2630
 2361W        W22641   4.525  14.056   2.496 -0.1829  0.2395 -0.0437
 2362W        W22642  16.027   2.669   0.710 -0.1103 -0.0385  0.0164
 2363W        W22643   3.954  12.563   4.056 -0.1318  0.1351 -0.0700
 2364W        W22644   0.743   9.092  11.355  0.2227  0.0476 -0.1530
 2365W        W22645   8.763  13.717   0.573  0.1166  0.3230 -0.1123
 2366W        W22646   6.536  11.583  15.875 -0.2355 -0.1230 -0.0207
 2367W        W22647  15.311   3.000  13.412 -0.0045 -0.0936 -0.1317
 2368W        W22648  12.856   6.768  15.981  0.2122 -0.1004  0.1466
 2369W        W22649   4.019  12.845   0.062 -0.0282 -0.1268 -0.1660
 2370W        W22650   4.675   2.806  13.340  0.1240  0.1187  0.0405
 2371W        W22651   0.724   8.539  16.979 -0.0462 -0.0966 -0.1571
 2372W        W22652  12.418   6.299   2.122 -0.0181  0.2460 -0.0898
 2373W        W22653   7.173   6.858   1.415 -0.1380 -0.1944 -0.1167
 2374W        W22654  10.680   7.825   2.168 -0.0814 -0.0271  0.1046
 2375W        W22655   9.708   8.532   4.695  0.1255 -0.1402 -0.0850
 2376W        W22656  14.361  12.203  15.713  0.1375  0.1373  0.1692
 2377W        W22657   0.605   2.893  12.706 -0.1926  0.3717  0.0264
 2378W        W22658  10.347  14.391  14.207 -0.1462 -0.3316  0.1644
 2379W        W22659   7.948   9.286  14.966 -0.0768 -0.0555 -0.0395
 2380W        W22660  12.868   2.643  16.004 -0.0597 -0.0666  0.0241
 2381W        W22661   5.864   2.749   1.430  0.0960 -0.4984  0.0476
 2382W        W22662   2.546   2.623  16.609  0.1149 -0.0039  0.3001
 2383W        W22663   6.083  16.336   1.972  0.1760 -0.0156  0.1213
 2384W        W22664   5.149  13.460   0.736  0.2551 -0.1919  0.1370
 2385W        W22665   9.589   1.949   2.874  0.1164  0.2251 -0.1096
 2386W        W22666   3.694   5.256   3.590  0.1497  0.0223 -0.1768
 2387W        W22667  15.160  17.028  12.509  0.0529 -0.0630 -0.2297
 2388W        W22668   0.400   0.215  14.927 -0.3728 -0.1938 -0.0398
 2389W        W22669   2.467  10.656  12.074  0.0829  0.1176 -0.3786
 2390W        W22670  17.084  16.669   0.063 -0.0222 -0.2158  0.0087
 2391W        W22671   4.530  14.195   4.149 -0.1815  0.0367  0.2993
 2392W        W22672   5.807   5.220  16.250 -0.1225  0.0870 -0.1811
 2393W        W22673   3.913   8.449  15.358 -0.1652 -0.0037 -0.0213
 2394W        W22674  17.689  12.986  13.820 -0.0770  0.0463 -0.2008
 2395W        W22675  15.761  11.594  13.841  0.1528 -0.0495  0.1841
 2396W        W22676  12.515  15.574  12.310 -0.0573  0.2000 -0.2477
 2397W        W22677  13.849  11.573  16.883 -0.0844  0.1736  0.0143
 2398W        W22678  15.759  14.240   2.944 -0.1810  0.1875  0.1154
 2399W        W22679  10.125  11.266  16.522  0.2185  0.1341  0.0527
 2400W        W22680   4.353  15.381  14.808  0.3511 -0.1097  0.0106
 2401W        W22681   9.121   1.255  13.775 -0.1873 -0.0306 -0.0285
 2402W        W22682  12.366   5.153  13.565  0.4333 -0.0900  0.0392
 2403W        W22683   6.894   4.077  16.749  0.0798  0.0511 -0.0931
 2404W        W22684   0.148  14.063  16.279  0.1226  0.0242  0.2801
 2405W        W22685   7.596   2.296   3.797  0.1447 -0.0416 -0.0155
 2406W        W22686  10.153   8.489  14.493  0.1848 -0.0180  0.0499
 2407W        W22687   9.245  10.020  12.351  0.0434 -0.0973  0.2328
 2408W        W22688   2.143  17.570  16.039  0.3352 -0.0528  0.3406
 2409W        W22689   6.414   2.596   0.814 -0.0299 -0.1274 -0.0942
 2410W        W22690  14.671  14.085   3.546  0.0358  0.2350  0.0229
 2411W        W22691   7.707  11.954   2.375 -0.3784 -0.3261 -0.2055
 2412W        W22692  15.221  15.898   2.478 -0.0628 -0.2558  0.2088
 2413W        W22693  12.317  13.526   3.031  0.2308  0.3217  0.0594
 2414W        W22694   8.742   1.682  16.196  0.0590 -0.3196 -0.0636
 2415W        W22695  10.715  17.202   4.903 -0.0247 -0.2202 -0.1253
 2416W        W22696   4.728  15.926  13.146  0.1123 -0.4160 -0.3117
 2417W        W22697  17.149   7.431  15.635  0.4281  0.1069 -0.0540
 2418W        W22698   4.655  12.299  16.369 -0.1757  0.1198  0.0656
 2419W        W22699  15.741   6.948   4.561 -0.3112  0.0708  0.2726
 2420W        W22700  11.335   9.706   4.752 -0.0479  0.0275 -0.0298
 2421W        W22701   7.063   1.752  16.493  0.5589  0.3125  0.4835
 2422W        W22702   0.028  15.039   0.794  0.0312  0.0134  0.1381
 2423W        W22703   4.534  10.267  12.753  0.1089 -0.4205 -0.1037
 2424W        W22704   0.784   6.118  15.987 -0.0073  0.0110 -0.2159
 2425W        W22705  11.845   9.394   1.753 -0.1840 -0.0195 -0.1488
 2426W        W22706   1.447  13.014   1.330 -0.0011  0.0754 -0.1162
 2427W        W22707  11.013  15.218  12.889 -0.1960  0.2357 -0.1666
 2428W        W22708  12.012  12.262  16.061 -0.0279  0.1159  0.1940
 2429W        W22709   3.026  16.383  12.911 -0.2711  0.0128 -0.0224
 2430W        W22710   8.895  10.611  16.054  0.1415 -0.1469  0.2606
 2431W        W22711  12.164  11.465  13.390  0.2494 -0.1069 -0.0360
 2432W        W22712   7.773   4.697   4.750 -0.2361 -0.1536  0.1434
 2433W        W22713   9.875  12.374   2.461 -0.1654  0.3032  0.2258
 2434W        W22714   5.393  13.282   3.494  0.1740 -0.0348 -0.4196
 2435W        W22715  10.201  14.481   2.352  0.0335  0.1304  0.2929
 2436W        W22716   2.559  11.483  13.340  0.3168 -0.0111  0.3376
 2437W        W22717   2.141   9.269  16.749 -0.1748 -0.1220  0.1117
 2438W        W22718   4.430  16.705  14.006  0.1407 -0.0791 -0.0217
 2439W        W22719   5.422   4.878  13.688 -0.1867 -0.0853  0.2803
 2440W        W22720  11.811   6.896  13.048 -0.0873  0.1622 -0.0100
 2441W        W22721   5.585  16.105  14.044  0.2054 -0.2172  0.1869
 2442W        W22722   6.134   6.918  15.298  0.0560  0.0322 -0.0810
 2443W        W22723   8.595  17.672   4.146  0.0165 -0.0966 -0.0267
 2444W        W22724   9.808  13.416   0.755  0.0947 -0.0131 -0.1355
 2445W        W22725  12.953   2.387   4.376 -0.0617 -0.1177 -0.3431
 2446W        W22726   0.940  15.205  13.486  0.0009  0.0219 -0.1938
 2447W        W22727   4.068  11.608  13.370 -0.2974 -0.2116 -0.2239
 2448W        W22728   4.882   5.898  14.589  0.1103  0.2989  0.1271
 2449W        W22729  12.949   2.617   0.193  0.0840  0.1763  0.3844
 2450W        W22730   4.349   6.380   2.989 -0.0704  0.1285 -0.2011
 2451W        W22731   5.763  12.126  14.965  0.0998 -0.0055  0.2846
 2452W        W22732   4.160  17.671  13.710  0.3461 -0.0456  0.0242
 2453W        W22733   6.800  15.763  16.658 -0.2566  0.0294  0.0059
 2454W        W22734  10.021   3.508  13.095 -0.1685  0.1004  0.1298
 2455W        W22735  15.824   2.983  16.335 -0.0636 -0.2242  0.2100
 2456W        W22736   4.344  15.612   4.519 -0.0000 -0.1387 -0.0563
 2457W        W22737   3.776   2.212   4.478  0.0018 -0.1126  0.2039
 2458W        W22738   8.858  14.628   3.217 -0.0949  0.1135 -0.2795
 2459W        W22739  12.476  15.939   3.232  0.0115 -0.2159  0.2154
 2460W        W22740  16.706   2.392   2.948 -0.0163  0.1178  0.2574
 2461W        W22741   3.875   9.376  16.420 -0.2512 -0.1388  0.1183
 2462W        W22742  11.100   8.951   1.986 -0.2060  0.2157 -0.3068
 2463W        W22743  10.595   7.948  16.579  0.0638 -0.3794  0.1276
 2464W        W22744   3.968   0.449  16.862  0.0084 -0.1678  0.4011
 2465W        W22745  15.896   2.139  16.541 -0.0590  0.1231  0.1587
 2466W        W22746   9.891  11.187  12.728  0.1750  0.1043  0.0186
 2467W        W22747  17.001  15.355   2.105  0.1208  0.2883 -0.1487
 2468W        W22748   9.721  10.426   0.506 -0.0530 -0.2988  0.1026
 2469W        W22749  13.844   9.506  14.855 -0.0311 -0.1201 -0.1384
 2470W        W22750  13.234  11.545  12.867  0.0152 -0.0013 -0.0030
 2471W        W22751  14.548   6.599   0.852  0.0291 -0.1371 -0.1402
 2472W        W22752   3.338   9.377   0.591  0.0859 -0.1408  0.1985
 2473W        W22753  11.022  16.392  12.885 -0.0631 -0.0593  0.1399
 2474W        W22754   7.049   6.364   1.327 -0.0673  0.1914 -0.0868
 2475W        W22755   7.613   1.304  12.193  0.1165 -0.0119  0.1532
 2476W        W22756   3.094   1.709  13.696 -0.2562 -0.2053 -0.2089
 2477W        W22757  15.207   1.060  16.209  0.1175 -0.3634 -0.1541
 2478W        W22758   7.386   3.858   2.370  0.1958 -0.0443  0.1088
 2479W        W22759   7.325   7.482  16.437  0.2543  0.0873  0.0917
 2480W        W22760  16.823   8.439   0.028 -0.0936  0.2101 -0.1957
 2481W        W22761   6.896  12.407   4.285 -0.0914  0.1536  0.2014
 2482W        W22762   5.096  10.974  13.784 -0.0493  0.2033 -0.2035
 2483W        W22763  12.563  10.858  14.516  0.2254 -0.1216  0.0593
 2484W        W22764   7.093  14.398  12.529  0.1991  0.0385  0.1444
 2485W        W22765   5.904   6.604  14.167 -0.1861  0.0548  0.0478
 2486W        W22766  11.435  15.367   2.129  0.2950  0.3891 -0.0218
 2487W        W22767  17.453  10.512   1.091  0.0506  0.2133  0.0517
 2488W        W22768  14.380   2.542   4.829 -0.0537  0.4167  0.2121
 2489W        W22769   3.078  16.893  16.363 -0.1435 -0.2139 -0.0186
 2490W        W22770  15.206  13.790  14.067  0.2374  0.1166 -0.0470
 2491W        W22771   5.404  11.294   4.370 -0.1051  0.0214  0.2534
 2492W        W22772   4.673   4.006  12.889 -0.3066  0.2391  0.0011
 2493W        W22773   1.064   9.371  15.363 -0.1238  0.0656 -0.3007
 2494W        W22774   4.517   2.858   0.632 -0.0799  0.2235  0.2801
 2495W        W22775   9.512   3.334  12.680  0.3081 -0.2058 -0.1070
 2496W        W22776   5.179   2.924   0.474 -0.1700 -0.3259  0.0508
 2497W        W22777   4.929   7.439   4.985  0.0845 -0.0399  0.1165
 2498W        W22778   9.213   0.288   3.486 -0.0351  0.3771  0.0178
 2499W        W22779  15.262  12.342  13.999 -0.1749  0.2263 -0.1361
 2500W        W22780  13.847  10.132  16.998  0.0045 -0.2839 -0.2734
 2501W        W22781  17.496   8.880  16.281  0.1029 -0.0021  0.0647
 2502W        W22782  13.066   4.436   1.602 -0.3150 -0.1402  0.0038
 2503W        W22783   0.345  15.155  15.031  0.1318  0.1799  0.3311
 2504W        W22784   1.900   4.285   0.949 -0.2218 -0.0927  0.3431
 2505W        W22785  10.367   0.958  13.223  0.1907 -0.1038  0.2388
 2506W        W22786   5.431  11.876  13.465 -0.1655 -0.0670  0.2682
 2507W        W22787   8.608  12.613  16.819  0.3767  0.1650  0.2145
 2508W        W22788   8.355   3.770   0.106  0.2917  0.0078 -0.0082
 2509W        W22789   1.810   1.189  13.267  0.1350 -0.2342  0.2277
 2510W        W22790  14.624   3.450  14.188 -0.1405 -0.1203 -0.0117
 2511W        W22791   1.981   4.020   2.661 -0.1312 -0.1839 -0.0373
 2512W        W22792   7.201   3.192  12.307 -0.2116  0.0216 -0.1767
 2513W        W22793  12.035   0.273  16.932 -0.0734 -0.2203 -0.2080
 2514W        W22794  14.488  17.349  15.312 -0.0689 -0.3716  0.1277
 2515W        W22795  16.536   1.205  16.066  0.0151 -0.5831 -0.1645
 2516W        W22796   1.281   3.158  15.309 -0.3276 -0.2998  0.1507
 2517W        W22797   5.343  16.274   1.419  0.0085 -0.0893 -0.0668
 2518W        W22798  17.583   8.061   4.727 -0.0506  0.0600  0.4452
 2519W        W22799  11.563  16.051  16.049  0.1551 -0.0692 -0.2328
 2520W        W22800  17.458  14.918   1.259 -0.2237  0.2271 -0.4432
 2521W        W22801  13.041  16.118  16.165  0.2893  0.0451  0.3017
 2522W        W22802  11.123  17.474  15.659  0.0195  0.0552  0.0478
 2523W        W22803   5.779  12.375  12.633 -0.0546 -0.0667 -0.0371
 2524W        W22804  17.043   9.726   0.816 -0.0985  0.0889 -0.0200
 2525W        W22805   5.851   7.954  14.418 -0.1767 -0.4849 -0.1880
 2526W        W22806  16.062  10.901   2.144 -0.0554 -0.3120  0.1772
 2527W        W22807   1.648   1.333   0.640 -0.3803  0.0608 -0.0151
 2528W        W22808   7.337   8.656   1.522 -0.3344  0.2121 -0.0673
 2529W        W22809  12.066   3.238   2.805  0.0321  0.0100 -0.1664
 2530W        W22810  13.303  11.879   1.734  0.0078 -0.1166  0.2320
 2531W        W22811  17.195  12.532  12.763 -0.0510  0.2260 -0.1467
 2532W        W22812  15.240   1.235   1.555 -0.0145 -0.1870  0.2803
 2533W        W22813   6.765  12.580   2.070  0.2587  0.0738 -0.1839
 2534W        W22814   8.760   2.707   0.562  0.3243 -0.2334 -0.1371
 2535W        W22815  15.348  16.102  12.673 -0.1733 -0.0440 -0.3189
 2536W        W22816  11.784   6.243  13.662  0.2205  0.0861 -0.1138
 2537W        W22817  15.571   7.390  13.227  0.2439  0.0287  0.2344
 2538W        W22818   7.521   5.663  15.859 -0.0684 -0.0441 -0.2383
 2539W        W22819   9.422   9.719   2.205 -0.1280 -0.2304  0.0111
 2540W        W22820   1.925   5.763   2.942 -0.1166  0.1364  0.2948
 2541W        W22821  17.635   2.476  12.540  0.0639 -0.0747 -0.2238
 2542W        W22822   8.886   5.597  12.557 -0.0875 -0.0502  0.1036
 2543W        W22823  16.904  13.581   0.653  0.3306  0.2014  0.0098
 2544W        W22824   2.958   9.976   3.548 -0.3079 -0.0803  0.2906
 2545W        W22825  17.738   7.428  12.227  0.3149 -0.1301  0.2565
 2546W        W22826  10.839  11.125  15.290  0.0048  0.0373  0.1092
 2547W        W22827  12.791  11.599  12.551  0.2004  0.1268  0.3152
 2548W        W22828   0.955   0.361  12.343 -0.1921  0.1067 -0.1161
 2549W        W22829  15.270  16.778  13.991  0.1136 -0.0670 -0.1534
 2550W        W22830  15.947   8.740   4.023  0.0045  0.0643  0.1729
 2551W        W22831  15.195   5.092   2.174  0.1354 -0.0014 -0.1133
 2552W        W22832   5.181  14.424   4.969  0.0851  0.0146 -0.0602
 2553W        W22833  14.520   2.913   0.523 -0.2351 -0.2235  0.1724
 2554W        W22834  17.711  13.976  12.641 -0.0704  0.0860  0.0658
 2555W        W22835   8.821   6.165   1.479  0.1915  0.1789 -0.0304
 2556W        W22836  13.095   9.510   2.723  0.1218 -0.1379  0.1307
 2557W        W22837  15.482  17.107   4.330 -0.0904  0.1811 -0.0328
 2558W        W22838   7.138   0.564  14.409 -0.0619 -0.0878  0.0871
 2559W        W22839  14.130   0.687   0.030  0.4480  0.0625 -0.0237
 2560W        W22840  12.870   7.799  16.022  0.0407  0.0409 -0.2213
 2561W        W22841  17.012  16.842  14.669 -0.1090 -0.1196  0.1813
 2562W        W22842  17.498   2.519   3.615 -0.0785 -0.0657  0.0870
 2563W        W22843   1.856   1.875  12.377 -0.0335  0.1048  0.1015
 2564W        W22844  10.753   0.105   1.430  0.0476  0.2308  0.1052
 2565W        W22845  12.057  16.053  14.643 -0.1447 -0.3654  0.2722
 2566W        W22846   9.076  13.501   2.285  0.0137 -0.1480  0.0613
 2567W        W22847  16.088  14.376  13.504  0.2155 -0.1360  0.0870
 2568W        W22848   7.235  16.180  16.808  0.1752  0.1296 -0.2348
 2569W        W22849  15.564   9.265  13.149 -0.0397  0.2268  0.2309
 2570W        W22850  15.159   3.751   2.042  0.0872 -0.1390 -0.1653
 2571W        W22851  12.327   7.768  15.501 -0.1514  0.0187  0.0795
 2572W        W22852   0.073   1.582   0.170 -0.0596  0.4046  0.0828
 2573W        W22853   4.661   1.483   4.955 -0.2473 -0.0934  0.1616
 2574W        W22854  17.327   4.493  16.600  0.0077 -0.2066 -0.0655
 2575W        W22855  14.700   2.280  15.639 -0.0250 -0.2372  0.0840
 2576W        W22856  12.142  13.011  16.340  0.0164 -0.0590  0.0961
 2577W        W22857   3.579  10.108  12.243 -0.2597  0.0780 -0.1861
 2578W        W22858  15.380  14.429  13.195  0.2436  0.3734  0.1118
 2579W        W22859   9.276   9.806  14.231 -0.2307 -0.1631  0.1619
 2580W        W22860   8.933   6.689  15.926 -0.2398  0.0287 -0.1003
 2581W        W22861   8.363   4.461   4.274  0.1104 -0.2724 -0.2490
 2582W        W22862   6.633  12.632  13.853  0.1026 -0.0065 -0.1134
 2583W        W22863   8.323   7.988   2.512 -0.1859 -0.2726  0.3351
 2584W        W22864  12.082  12.514   2.725  0.2360  0.2731  0.1055
 2585W        W22865   2.008  17.051   4.019  0.2719  0.3873 -0.1826
 2586W        W22866   9.438   3.073   2.561 -0.0924 -0.2652 -0.2221
 2587W        W22867   2.267  14.283   4.887 -0.3211  0.0065  0.0405
 2588W        W22868   5.763  14.154   0.700 -0.0849 -0.0508 -0.0376
 2589W        W22869   2.167   1.131   3.238 -0.0264  0.1242  0.1745
 2590W        W22870   6.654  11.504  13.539  0.0470 -0.0276  0.0556
 2591W        W22871   0.063  11.961  12.080  0.0853  0.2359 -0.2846
 2592W        W22872   0.176  16.345  15.779 -0.2193 -0.1267  0.0213
 2593W        W22873   4.862  13.223   2.352 -0.0952 -0.1348 -0.1057
 2594W        W22874  14.489  15.329  13.383  0.1205 -0.0539 -0.3509
 2595W        W22875  14.463  14.591  13.110  0.0296  0.0010 -0.1679
 2596W        W22876   7.578   1.958   0.247  0.0310  0.0551  0.0547
 2597W        W22877   8.768  16.403  13.073 -0.0912  0.1003 -0.2030
 2598W        W22878   5.127   9.799  14.211  0.0722  0.1551 -0.0448
 2599W        W22879  13.134  14.182  12.499 -0.0062  0.1853 -0.1096
 2600W        W22880   7.298   1.030  15.727  0.0360 -0.1256 -0.0788
 2601W        W22881  12.977  14.653  13.436  0.1211 -0.0739 -0.2392
 2602W        W22882   0.954  16.994  15.757 -0.0171  0.1597 -0.0490
 2603W        W22883  16.029   6.175   1.804  0.1109 -0.1430 -0.2356
 2604W        W22884   0.263  15.800   5.067 -0.2794 -0.0728 -0.1415
 2605W        W22885   0.093  10.984  13.442  0.3343  0.4305  0.1469
 2606W        W22886  16.926   9.786  17.002  0.5004  0.1609 -0.3366
 2607W        W22887  11.202  16.873  16.227  0.0987 -0.0476  0.6693
 2608W        W22888  12.408   8.725   3.567  0.1859 -0.2347 -0.0201
 2609W        W22889  16.980   8.946  15.655  0.0257 -0.1116  0.1789
 2610W        W22890  14.920  15.336   4.797 -0.0081  0.0525  0.0444
 2611W        W22891   8.019  11.134   0.590  0.0471 -0.3366 -0.3188
 2612W        W22892   3.260  14.142   1.818 -0.0334 -0.1080  0.3586
 2613W        W22893   9.645   0.277  12.277 -0.0108 -0.1478 -0.0800
 2614W        W22894  17.228  13.375   2.892 -0.0380  0.0327  0.2208
 2615W        W22895  17.392  12.665   4.991 -0.0821  0.0564  0.1383
 2616W        W22896  16.428   7.109  16.395 -0.1938  0.2289 -0.1346
 2617W        W22897   8.904   9.361  14.905  0.3484 -0.1234 -0.0507
 2618W        W22898  10.531   0.903  16.125 -0.0952 -0.1630 -0.0193
 2619W        W22899   3.365  13.809  13.728  0.0312 -0.0162  0.0240
 2620W        W22900  10.042  15.554  16.969  0.2245 -0.0130  0.0057
 2621W        W22901   7.680  16.300   3.830  0.1247 -0.1968  0.0336
 2622W        W22902  16.968  14.252   4.130  0.3999  0.1769 -0.2849
 2623W        W22903   0.681   8.903  12.728 -0.0012 -0.1818 -0.3095
 2624W        W22904  12.611  14.811  14.999  0.0350 -0.0753  0.2291
 2625W        W22905   1.188   5.208  15.829  0.0391 -0.0439  0.0475
 2626W        W22906   7.851  15.534   2.102 -0.4242 -0.0922  0.0163
 2627W        W22907  16.782  14.962  12.488  0.1935  0.3796 -0.0421
 2628W        W22908   5.821  10.370  16.348 -0.2341 -0.0803  0.0254
 2629W        W22909  17.239   3.487  16.315  0.0044  0.0039 -0.1240
 2630W        W22910  10.860   2.795   1.492 -0.0256  0.0294 -0.4301
 2631W        W22911   3.739   9.659   4.040 -0.1742  0.1038 -0.0882
 2632W        W22912   7.248   8.493  15.933  0.2488  0.1107 -0.2510
 2633W        W22913   2.617  11.269   1.638 -0.0332 -0.3211 -0.2619
 2634W        W22914  14.568  13.774  16.488 -0.0818 -0.0672 -0.3153
 2635W        W22915  12.882   2.552   1.075  0.1424 -0.0160 -0.0646
 2636W        W22916  11.867   7.513   4.126  0.2531  0.1145  0.1822
 2637W        W22917  12.397   1.192  15.335  0.0047 -0.0173 -0.1343
 2638W        W22918   3.669   8.267   4.941  0.0828 -0.1268  0.0330
 2639W        W22919  15.917   2.302  12.260  0.1287 -0.2614  0.5537
 2640W        W22920   6.724  16.086  13.278  0.2277 -0.0375  0.0261
 2641W        W22921  11.564  10.804  13.988 -0.0130  0.2126  0.1511
 2642W        W22922  13.059   8.284  12.580 -0.0528 -0.1526  0.0264
 2643W        W22923  12.239  15.494  16.335 -0.1691  0.0898 -0.0131
 2644W        W22924   1.766  12.093  16.768 -0.0884  0.2757 -0.0098
 2645W        W22925   0.633   9.665   3.240 -0.0191 -0.2146  0.0304
 2646W        W22926   5.688   3.697  12.810 -0.0831  0.3155  0.1363
 2647W        W22927  14.578   5.817  13.114 -0.7028 -0.2072  0.2223
 2648W        W22928  16.241   8.843  14.424 -0.0531 -0.1189  0.3345
 2649W        W22929   9.855   1.340  15.698 -0.1271 -0.0346  0.0804
 2650W        W22930   0.459   5.600   1.043 -0.0538  0.0030  0.0918
 2651W        W22931  13.607   4.786   1.094  0.2039  0.2510 -0.0074
 2652W        W22932   5.535   0.705   0.179 -0.1251 -0.1768  0.0914
 2653W        W22933   9.522  12.420   0.493 -0.1282 -0.0720  0.0546
 2654W        W22934  15.263  15.661   0.274  0.1397  0.2585 -0.1420
 2655W        W22935   8.418   0.519  15.485  0.0571 -0.2818 -0.1485
 2656W        W22936   9.922  10.804  16.690  0.2438 -0.0213 -0.2881
 2657W        W22937   9.684  11.165  14.713  0.0491 -0.0531 -0.1284
 2658W        W22938  11.389   3.670  12.337 -0.0225 -0.0379  0.0701
 2659W        W22939   7.047   6.335  12.757  0.0034  0.1961  0.3947
 2660W        W22940  12.026   7.136   2.117 -0.0711  0.1651  0.0217
 2661W        W22941   8.698   2.936   3.011  0.0098  0.0465  0.1813
 2662W        W22942   4.503  14.840   1.908  0.0221  0.0566  0.0417
 2663W        W22943  13.965  13.503   2.797 -0.1524  0.2905 -0.1303
 2664W        W22944   0.286  15.984   4.522 -0.0603  0.3346 -0.1153
 2665W        W22945   2.633  12.812   4.038  0.0262  0.2218  0.0239
 2666W        W22946  14.485   8.424  14.963  0.4098  0.2716 -0.0206
 2667W        W22947   9.051   0.019   2.154  0.1301  0.0693  0.1204
 2668W        W22948   7.292   9.055  16.777 -0.1634 -0.1814 -0.2632
 2669W        W22949  10.722  16.613   0.137  0.2028  0.1014 -0.2247
 2670W        W22950  15.993   1.989   5.065  0.1367  0.4388  0.2329
 2671W        W22951   6.198   4.013  13.930 -0.1740  0.2037 -0.0613
 2672W        W22952  16.365   1.230  13.779 -0.0902 -0.0079 -0.0136
 2673W        W22953  10.215   8.659  15.496 -0.1644 -0.4399 -0.4078
 2674W        W22954  12.103   0.260   3.015  0.0389  0.2164 -0.1642
 2675W        W22955  10.581  10.261  15.266 -0.5042 -0.1014  0.2802
 2676W        W22956  14.459   5.201   1.243  0.0152  0.1772 -0.0445
 2677W        W22957   4.923  14.719   0.261 -0.2736 -0.1904  0.3607
 2678W        W22958   8.658  16.919   4.902  0.3117 -0.2062 -0.1060
 2679W        W22959  17.641  13.456   1.495  0.0139  0.2392  0.1973
 2680W        W22960  10.641  17.323   3.652 -0.2271 -0.2888  0.2267
 2681W        W22961   4.159   1.324  13.391  0.0961 -0.0214  0.3253
 2682W        W22962   7.717   0.083   0.133  0.3972 -0.4165 -0.2828
 2683W        W22963  11.563   4.366   0.860  0.0092 -0.1876 -0.3001
 2684W        W22964  10.665   0.600  12.961  0.1601 -0.2121  0.0853
 2685W        W22965   8.594  14.666  16.179 -0.0680 -0.2588  0.1298
 2686W        W22966  13.086  10.578   3.338  0.1288 -0.2370 -0.7708
 2687W        W22967  15.551   1.516   0.680 -0.1366 -0.1097 -0.3426
 2688W        W22968   3.220   1.066  14.884 -0.2908 -0.1995  0.1595
 2689W        W22969   0.046  17.624   4.091 -0.0125 -0.1704 -0.1610
 2690W        W22970  12.459  17.640  13.228 -0.0235  0.0637 -0.1782
 2691W        W22971   4.298   2.823   1.134 -0.0127 -0.5145 -0.1986
 2692W        W22972   8.453  15.055   2.531  0.0948  0.3341 -0.0570
 2693W        W22973   1.278   6.159  14.749 -0.0683 -0.0418 -0.0620
 2694W        W22974   8.689  16.115   5.865 -0.0229  0.3104 -0.0037
 2695W        W22975   2.643   0.398   3.388 -0.0300 -0.1378  0.0360
 2696W        W22976   2.113  13.129  15.129  0.0772  0.0895  0.1948
 2697W        W22977   4.752   0.123  16.392 -0.3046 -0.1152 -0.1786
 2698W        W22978  17.560  12.496   0.504 -0.1452 -0.0936  0.1026
 2699W        W22979  15.721   7.435  15.911 -0.0588 -0.1664  0.1759
 2700W        W22980   8.407   1.736   0.216  0.0470  0.1163 -0.2256
 2701W        W22981   5.065   0.969   3.115 -0.0867  0.1205  0.1184
 2702W        W22982  11.224   9.684   4.246 -0.3165  0.1442 -0.0938
 2703W        W22983   1.627  17.126   0.289 -0.1518 -0.0491  0.0576
 2704W        W22984   5.349   0.308   1.873 -0.0360  0.0518 -0.1571
 2705W        W22985   8.476   3.527   4.440  0.0877  0.0317  0.3818
 2706W        W22986  16.613   6.101   1.787  0.2114 -0.0353 -0.1543
 2707W        W22987  12.019  13.218  13.488 -0.0228  0.1433 -0.0716
 2708W        W22988  12.325  11.838  14.385  0.1766  0.0346  0.2572
 2709W        W22989   1.317   9.703   2.416 -0.2917  0.3212 -0.0002
 2710W        W22990   6.688  15.715   0.220  0.3656 -0.0906  0.0876
 2711W        W22991   6.105   2.555  15.053  0.0258  0.2289  0.0056
 2712W        W22992   2.221   2.192   3.271 -0.4302  0.2290  0.0686
 2713W        W22993  11.751  13.768   2.229 -0.0674 -0.1662 -0.1153
 2714W        W22994   1.655   9.157  16.550 -0.1065 -0.0953 -0.2337
 2715W        W22995   9.902  11.508  15.114 -0.0268 -0.0964  0.0088
 2716W        W22996  17.684   9.247  14.424 -0.0237 -0.2174  0.2134
 2717W        W22997   9.432  12.635  16.615  0.0926  0.2085  0.3516
 2718W        W22998  16.245   0.229   4.165  0.0468 -0.0691 -0.1996
 2719W        W22999  14.551  14.540  14.289 -0.0602 -0.1584  0.0791
 2720W        W23000  14.648   9.992   2.070  0.1092 -0.1797  0.1766
 2721W        W23001   8.896  13.815   1.876 -0.0889 -0.0240 -0.0326
 2722W        W23002   4.640  10.836  12.849 -0.0311 -0.1235  0.2443
 2723W        W23003  11.783   6.234   4.801 -0.0440  0.0489 -0.1929
 2724W        W23004   8.644  13.112   2.428  0.2875  0.1763 -0.3775
 2725W        W23005  15.595   6.394  13.304  0.0436 -0.0914 -0.1467
 2726W        W23006  16.772   3.466  15.455  0.0185  0.1826 -0.3575
 2727W        W23007   5.159   2.967  15.977  0.4302  0.0456 -0.0633
 2728W        W23008  12.686   3.370  14.591 -0.4280 -0.1414 -0.2047
 2729W        W23009  13.205   6.251   3.613  0.0380  0.1758 -0.1137
 2730W        W23010   1.878   4.321   1.868  0.1440 -0.1556 -0.0089
 2731W        W23011   6.249  12.388  12.702 -0.0678  0.1910 -0.2964
 2732W        W23012  16.718   0.286  16.515  0.0317  0.3316 -0.0951
 2733W        W23013   3.256   5.238  13.024 -0.1820  0.1494  0.1235
 2734W        W23014   3.014   5.643  15.948  0.3690  0.1776  0.0952
 2735W        W23015  14.679   7.261  13.530 -0.4444 -0.0135 -0.1813
 2736W        W23016  17.169   2.804  12.087 -0.4021  0.2235 -0.1189
 2737W        W23017   0.421  11.217   3.054 -0.2353 -0.2080 -0.0283
 2738W        W23018  14.365  14.468  15.988  0.3782 -0.1666  0.0469
 2739W        W23019   7.575  15.026   2.101  0.0129  0.2150  0.0255
 2740W        W23020  15.021   8.385   4.790 -0.2132 -0.0299 -0.1191
 2741W        W23021   3.898   7.625   2.912 -0.1233 -0.1567 -0.0877
 2742W        W23022   4.743   9.076  12.655  0.2088 -0.0806 -0.1718
 2743W        W23023  11.067   1.047  13.744  0.0561 -0.0997  0.3255
 2744W        W23024  11.053  11.306   2.166  0.2242  0.1716  0.0261
 2745W        W23025  10.943  15.444  14.915 -0.2416  0.1958 -0.1146
 2746W        W23026   6.307   3.855  15.285 -0.1673 -0.1681  0.3188
 2747W        W23027  17.177  11.096   3.358  0.2327  0.0041  0.1751
 2748W        W23028  12.874  13.355   1.074  0.0392  0.0836  0.1110
 2749W        W23029   5.586  13.379   1.933 -0.0509 -0.0685 -0.0357
 2750W        W23030   8.716  14.734  14.164 -0.1498 -0.1741 -0.2145
 2751W        W23031   7.775  10.973  11.580  0.0658 -0.0876 -0.1306
 2752W        W23032  11.213  16.157  15.598  0.4613  0.1000 -0.0243
 2753W        W23033   1.010   9.839  15.024  0.2967 -0.1153  0.2074
 2754W        W23034   2.541  17.082   2.599  0.1611  0.2259  0.0427
 2755W        W23035   4.468  10.696   0.408 -0.0442 -0.1309  0.2380
 2756W        W23036  16.998   0.729   3.077 -0.1403 -0.1433 -0.2290
 2757W        W23037   9.519   8.268  15.055  0.0170  0.1878 -0.1310
 2758W        W23038   6.675  16.828   4.977  0.1067  0.1166 -0.0909
 2759W        W23039   8.159   7.816  11.810 -0.2879 -0.2582  0.3452
 2760W        W23040   6.073   5.647   2.242 -0.1487  0.0389 -0.0489
 2761W        W23041   4.130   5.546  13.269  0.1690 -0.2877  0.0208
 2762W        W23042   2.645   6.198  14.322  0.0913  0.0188 -0.2974
 2763W        W23043  12.242   2.550   3.720 -0.2456 -0.0888 -0.0160
 2764W        W23044  15.535   3.888   4.785 -0.1235 -0.1524  0.0639
 2765W        W23045  12.636  15.258  15.267  0.1826 -0.0233  0.0580
 2766W        W23046  13.823   1.952  16.882 -0.0837  0.6195 -0.1237
 2767W        W23047   7.667  17.118   3.983  0.1215 -0.0845  0.0307
 2768W        W23048   1.819  10.506   1.950  0.1470  0.1772 -0.0893
 2769W        W23049   4.253   3.593  14.681 -0.1374 -0.2863  0.1932
 2770W        W23050  10.709   7.409   2.737 -0.1979  0.2655  0.0542
 2771W        W23051   8.555   4.176  15.902  0.1560  0.0045 -0.0464
 2772W        W23052  13.186  14.779   3.189  0.2755  0.0247  0.2382
 2773W        W23053   1.149  14.614   3.335  0.0552 -0.0701  0.0492
 2774W        W23054   5.803   1.811   0.372  0.0888 -0.1687  0.3330
 2775W        W23055   0.694  10.110   3.582  0.1005 -0.2126 -0.1872
 2776W        W23056  17.711  13.790   5.175  0.1995 -0.3103 -0.1990
 2777W        W23057  10.686   6.134  13.400  0.0188  0.0008  0.2980
 2778W        W23058  10.536  17.268  13.119 -0.0338  0.1323 -0.4046
 2779W        W23059   5.105   3.995   4.153 -0.2127  0.1712 -0.3350
 2780W        W23060  15.301   0.772  16.930 -0.1358  0.3202  0.0579
 2781W        W23061   3.942  13.028   4.912  0.1009 -0.1460  0.0808
 2782W        W23062   8.225  10.912  12.393  0.0594 -0.0917  0.1217
 2783W        W23063   7.114   1.348  13.898  0.1921 -0.0458  0.3585
 2784W        W23064  14.803   8.332  15.394  0.1271 -0.0206 -0.1242
 2785W        W23065   8.829  17.620   5.945  0.0756 -0.1503 -0.0836
 2786W        W23066   6.374   2.024   4.860  0.0468  0.0894 -0.0961
 2787W        W23067   4.722   8.310   0.678 -0.0969  0.3039 -0.1604
 2788W        W23068   5.188  15.506  16.056  0.1173 -0.1307 -0.0679
 2789W        W23069   7.458  14.683  13.223  0.2003 -0.2035 -0.1341
 2790W        W23070   6.053  12.831  12.817  0.4510 -0.0251 -0.1013
 2791W        W23071  15.294  10.679   4.821 -0.1637  0.0318  0.1322
 2792W        W23072   6.015   0.184  14.944 -0.0144 -0.0867 -0.1887
 2793W        W23073  16.641   1.499   2.069 -0.0921  0.0479 -0.1050
 2794W        W23074   4.684   1.452   2.188 -0.1294  0.0084  0.0280
 2795W        W23075   6.362  10.027   1.577 -0.0497  0.1808 -0.2098
 2796W        W23076   3.954  13.060   4.190  0.2621 -0.2503 -0.0053
 2797W        W23077   6.141  14.265   4.746  0.1821  0.0254 -0.1581
 2798W        W23078   8.980  17.288   2.338 -0.0770  0.0524  0.0835
 2799W        W23079   4.360   7.107  16.979 -0.0844 -0.2352  0.0934
 2800W        W23080  16.376   5.108   1.887  0.1449  0.1769 -0.0386
 2801W        W23081   7.267  10.564  13.968 -0.0587  0.1621  0.0374
 2802W        W23082   1.360   4.752   4.923 -0.1167  0.4599  0.3007
 2803W        W23083   9.683   5.919  15.165 -0.1983 -0.1332  0.1780
 2804W        W23084   5.085  15.747  14.264 -0.1493 -0.1683  0.0754
 2805W        W23085  14.016   3.823   0.701 -0.2207  0.1880 -0.0211
 2806W        W23086   3.636   4.333   4.681  0.3064 -0.3430 -0.3260
 2807W        W23087   4.301  12.875  14.990  0.0700 -0.2042  0.0050
 2808W        W23088  11.426   9.926  14.671 -0.0691  0.2333 -0.1325
 2809W        W23089   7.998   9.054   2.612  0.2888  0.5118  0.1574
 2810W        W23090   3.948   9.784  13.081 -0.2812  0.3590 -0.1612
 2811W        W23091   4.156  13.165  16.128  0.0288  0.0662  0.3826
 2812W        W23092   6.226  14.116   2.543 -0.1190 -0.3747  0.3839
 2813W        W23093   3.053  11.672  15.468  0.0677 -0.2923 -0.0632
 2814W        W23094   1.287   9.824  12.823  0.2371  0.1449  0.1378
 2815W        W23095  12.519   4.864   2.768  0.0393 -0.2202  0.1341
 2816W        W23096  10.565   3.704   3.270 -0.0741 -0.0958  0.1823
 2817W        W23097   2.032  12.519   3.021 -0.2419 -0.4486  0.1773
 2818W        W23098  15.255   1.534  16.119 -0.0604  0.1185 -0.2140
 2819W        W23099   3.248  13.291  12.941 -0.2199  0.1091  0.0285
 2820W        W23100   3.577   9.541  13.352 -0.0753  0.0525  0.1286
 2821W        W23101   9.806  10.379   1.151 -0.1335 -0.2627  0.0410
 2822W        W23102   6.461  13.734   0.197  0.1323  0.0921  0.4960
 2823W        W23103   2.457   3.518  15.504  0.0972  0.3501  0.1035
 2824W        W23104  13.201   2.676   2.451 -0.1103 -0.2708  0.0796
 2825W        W23105   7.204  11.707   3.798 -0.0681 -0.1993  0.0586
 2826W        W23106   9.775  17.101   1.974 -0.2487 -0.2300  0.3025
 2827W        W23107   3.876  15.818   4.273 -0.1447 -0.0658  0.1329
 2828W        W23108  14.364   1.324  13.484  0.2450  0.1092  0.1310
 2829W        W23109   1.472  16.418   5.028 -0.2709 -0.1109 -0.1000
 2830W        W23110   8.974  14.103   0.169 -0.0301  0.0574  0.1892
 2831W        W23111   4.130   7.613  16.968 -0.0798 -0.0638  0.0917
 2832W        W23112  12.206  10.136  15.240 -0.0514  0.2896  0.1247
 2833W        W23113  11.841   1.222  15.479 -0.1649 -0.1992  0.2121
 2834W        W23114  14.332   9.753  12.664  0.0422  0.1046  0.0728
 2835W        W23115   3.316  10.281  16.452  0.4604  0.0513  0.0133
 2836W        W23116   1.528  12.822   0.821 -0.2375 -0.1621  0.2085
 2837W        W23117   5.405  15.865   2.810 -0.0043  0.2463  0.0325
 2838W        W23118  12.844  16.084  13.154 -0.1272 -0.0336  0.1192
 2839W        W23119   0.334  10.013  15.568 -0.0241  0.3381 -0.1456
 2840W        W23120   8.732   3.048   1.459 -0.1373 -0.1054 -0.0270
 2841W        W23121  15.317   6.969  15.291 -0.1342 -0.0986 -0.0361
 2842W        W23122  17.428   7.087  12.375 -0.3118  0.1808  0.1780
 2843W        W23123   0.648   1.451   3.566 -0.1802  0.0606 -0.1141
 2844W        W23124  15.638  12.895   4.086 -0.0602 -0.0706  0.1247
 2845W        W23125   1.182   9.444   1.535  0.0784  0.3044 -0.2216
 2846W        W23126  17.654  16.113  12.807  0.0799  0.1744  0.1418
 2847W        W23127  11.887   1.226   0.325 -0.1970  0.1241  0.0406
 2848W        W23128  14.455  16.694  16.980  0.2617  0.0717  0.0579
 2849W        W23129   4.969  10.886   2.818 -0.3090  0.0467  0.0122
 2850W        W23130  16.903  14.522   0.998 -0.0281  0.0160 -0.3024
 2851W        W23131  17.196  14.600   1.891 -0.3500 -0.4881 -0.1368
 2852W        W23132   2.776   3.298  16.979  0.3576 -0.0648  0.0015
 2853W        W23133   5.271   5.582   3.545  0.1332  0.0235  0.1183
 2854W        W23134   8.893  11.263   2.417  0.1450  0.4227  0.1863
 2855W        W23135   7.269  16.094   5.459  0.2639  0.0735 -0.0385
 2856W        W23136  11.480  15.161   3.956 -0.1258 -0.1298 -0.1577
 2857W        W23137   3.456   0.861   2.063  0.2755 -0.0488 -0.1240
 2858W        W23138   5.914  10.872  16.314 -0.2539  0.3514 -0.0820
 2859W        W23139   5.042  16.331  13.262 -0.0707 -0.2498  0.2674
 2860W        W23140  10.285  12.381  15.865  0.4376 -0.0994 -0.1859
 2861W        W23141   1.901  10.866  15.400  0.0322  0.0966 -0.0025
 2862W        W23142  14.765   6.423  12.304 -0.2276 -0.0377 -0.0099
 2863W        W23143   2.849   1.198  13.785  0.1409  0.1718  0.2160
 2864W        W23144   1.189  10.339   3.415  0.1757  0.1374  0.1573
 2865W        W23145  14.890   8.148  16.166  0.3496 -0.0251  0.0037
 2866W        W23146   9.782  16.149  15.097 -0.0286 -0.0301 -0.0201
 2867W        W23147   0.491  10.436   0.015 -0.2123  0.0338  0.1020
 2868W        W23148  14.107  14.971  15.183 -0.0965  0.0690 -0.1604
 2869W        W23149   0.916   0.240   2.406  0.0322  0.5704 -0.3297
 2870W        W23150   5.065   1.636  12.833  0.2685  0.0796 -0.1880
 2871W        W23151  15.800   3.458   3.849 -0.0256  0.2512 -0.0766
 2872W        W23152  15.076  13.003   2.230 -0.2187  0.0955 -0.0090
 2873W        W23153   3.629  12.492  13.873 -0.1407 -0.1817 -0.1408
 2874W        W23154   7.342   8.223  12.139 -0.0473  0.0460  0.1003
 2875W        W23155   6.865  15.393  14.740  0.1788 -0.0473  0.1325
 2876W        W23156   8.523  16.575  14.486  0.2635  0.0081 -0.1058
 2877W        W23157   4.990   4.376  14.971 -0.0751  0.2120  0.2153
 2878W        W23158  12.006  14.293  13.862 -0.3262  0.3765  0.2860
 2879W        W23159  16.514  12.819  14.051 -0.2535 -0.3914 -0.2392
 2880W        W23160  12.428   2.988   3.859  0.1239 -0.1673 -0.2346
 2881W        W23161   1.841   8.771   1.232 -0.2045 -0.1332 -0.0427
 2882W        W23162  17.619  12.509   1.371  0.2268 -0.0639 -0.0428
 2883W        W23163  15.724   1.067  14.496 -0.3259  0.1381  0.0569
 2884W        W23164  10.907   0.950  12.559 -0.0010  0.0735 -0.3424
 2885W        W23165  14.970  15.934  12.968  0.0336 -0.2394 -0.0224
 2886W        W23166   1.148   5.042   0.962 -0.0488 -0.1631  0.0513
 2887W        W23167  12.589   1.538  15.692 -0.0566 -0.2273  0.1743
 2888W        W23168  12.795   0.116   2.261 -0.0107  0.2680  0.3647
 2889W        W23169   2.119  13.486  14.234  0.1482  0.0971  0.1315
 2890W        W23170  15.987   3.978   1.759  0.0401 -0.2271  0.0945
 2891W        W23171   5.768  11.909  12.641 -0.2701  0.1910 -0.5471
 2892W        W23172  16.296  16.159   0.532  0.2161 -0.0254 -0.1719
 2893W        W23173   7.964   5.796   2.176 -0.2600  0.1826 -0.1287
 2894W        W23174  10.565  14.279  13.314  0.0151  0.0465 -0.1357
 2895W        W23175  14.517   7.800  15.866 -0.1839 -0.2072  0.2655
 2896W        W23176  14.389  16.458  13.467  0.1787 -0.1678 -0.1268
 2897W        W23177  15.665  16.558  16.350 -0.1185  0.2179 -0.2302
 2898W        W23178  15.754   4.151  16.086 -0.0506 -0.1423 -0.2300
 2899W        W23179   6.344  13.152   2.854 -0.0772 -0.0319  0.0210
 2900W        W23180   9.301   1.746  13.631 -0.1439  0.1684  0.2556
 2901W        W23181   1.880  14.636  16.641  0.0649  0.0390  0.0202
 2902W        W23182  11.646   6.622   3.853 -0.0691  0.3154  0.0862
 2903W        W23183   7.897  17.227   2.355 -0.2482  0.0026  0.2810
 2904W        W23184  11.182   7.619  14.942 -0.1659 -0.0906 -0.1373
 2905W        W23185  13.163  16.236   1.603 -0.3862  0.0335 -0.0176
 2906W        W23186   2.911  16.211  14.553 -0.0231 -0.0916  0.0512
 2907W        W23187   3.164  10.882  14.172  0.0888  0.0021  0.1388
 2908W        W23188  12.930  15.145   0.606 -0.2089 -0.0870  0.0899
 2909W        W23189   4.708  17.339   4.313 -0.2304  0.3878  0.3928
 2910W        W23190   8.679   1.658  12.068 -0.0413  0.2102  0.0219
 2911W        W23191  13.235   8.436  17.020  0.0542 -0.1745  0.2833
 2912W        W23192  12.430   8.870  16.822 -0.2107  0.0889  0.0700
 2913W        W23193  13.809   2.189  13.654  0.0343 -0.1719 -0.1174
 2914W        W23194   5.806  15.803  13.198  0.0294 -0.1804 -0.1542
 2915W        W23195   3.386  14.974   4.475 -0.2860 -0.2299 -0.2274
 2916W        W23196   3.135   2.926  15.388  0.0219 -0.1136  0.0194
 2917W        W23197  17.077  14.774  14.642 -0.2090 -0.2840  0.0910
 2918W        W23198  11.087  11.689  12.836 -0.0051 -0.1083  0.0934
 2919W        W23199   8.700   9.073  17.011 -0.0496 -0.2549 -0.0312
 2920W        W23200  16.756   0.137  12.020  0.0844 -0.2392  0.0612
 2921W        W23201   5.341  11.184  16.363  0.0245 -0.1528  0.0464
 2922W        W23202   4.443   9.045  13.076 -0.0170  0.0474 -0.0457
 2923W        W23203  14.898   9.707  12.568  0.0829  0.0111  0.1854
 2924W        W23204   6.095   4.324  13.420  0.2474 -0.0535 -0.2566
 2925W        W23205   3.850   1.613  16.951 -0.0128  0.1055  0.2259
 2926W        W23206  13.221   4.430  15.704 -0.0092  0.0625 -0.1385
 2927W        W23207   4.039  11.233  14.563  0.0603 -0.1923 -0.2020
 2928W        W23208  15.333  15.378   1.051  0.0121  0.2735  0.3849
 2929W        W23209   2.714   5.823   3.451  0.0059 -0.1518 -0.1985
 2930W        W23210   4.189   8.072  16.281 -0.0766 -0.1121 -0.0594
 2931W        W23211   9.780   3.397   2.455 -0.1182 -0.2037  0.0987
 2932W        W23212  12.253   0.221  16.288 -0.1715 -0.2599  0.0754
 2933W        W23213  15.391   6.187   4.288 -0.0217  0.2210  0.0744
 2934W        W23214   1.969   3.890  15.314 -0.0957 -0.0308  0.1242
 2935W        W23215   2.506  14.827  15.041  0.1412  0.2206 -0.0728
 2936W        W23216   2.710  15.325   3.358 -0.0368  0.2217  0.1026
 2937W        W23217   3.404  15.438   0.278 -0.4110 -0.0881 -0.0046
 2938W        W23218  14.819  16.105   1.626  0.4148 -0.1076  0.0110
 2939W        W23219  14.506   8.421  15.851 -0.1656  0.1959 -0.1669
 2940W        W23220  14.275   0.397   1.116  0.0473  0.1300 -0.2131
 2941W        W23221   9.454   6.762   4.124 -0.1783  0.0262 -0.1710
 2942W        W23222   4.449   5.054  15.044  0.1144 -0.0910 -0.1071
 2943W        W23223   6.389  16.754  15.434  0.0212 -0.0891  0.3074
 2944W        W23224  16.373  12.769   1.388 -0.1864  0.0177 -0.0130
 2945W        W23225  12.523   5.873   1.797  0.0177 -0.0601  0.0663
 2946W        W23226  15.650   0.983   0.693 -0.1688  0.1247 -0.3963
 2947W        W23227   3.515   6.713  13.112  0.2619  0.1345 -0.1275
 2948W        W23228   7.809  16.544   2.412 -0.0531 -0.0112 -0.3116
 2949W        W23229   0.335  15.817   3.643 -0.1343  0.1575 -0.2073
 2950W        W23230   6.645   3.508  13.626 -0.1686 -0.2115 -0.1381
 2951W        W23231  15.393  16.539   0.514  0.1270  0.1392 -0.0487
 2952W        W23232   4.148  12.813   2.255 -0.1335  0.0347 -0.0155
 2953W        W23233   9.578   8.920   1.595 -0.3722 -0.0040 -0.0892
 2954W        W23234  12.312  10.781  16.946 -0.0327  0.2483  0.1169
 2955W        W23235  11.799   0.065  16.556  0.2047 -0.2524 -0.0238
 2956W        W23236  13.399   4.502  14.326  0.1789 -0.1124  0.0274
 2957W        W23237   7.853  12.702   0.715 -0.2087 -0.0810 -0.0688
 2958W        W23238  13.074  10.351  13.238  0.0941 -0.2494 -0.0354
 2959W        W23239   2.416   0.289  14.639  0.2129 -0.0600 -0.0896
 2960W        W23240   8.564   9.290   3.589  0.4042 -0.0390 -0.3896
 2961W        W23241  13.341   8.895  16.858 -0.0900 -0.2270  0.0764
 2962W        W23242  12.520   4.700  14.019  0.0243  0.1950 -0.3524
 2963W        W23243   5.804  15.545  15.246  0.0271 -0.3370 -0.1547
 2964W        W23244   3.876  17.438   4.385  0.0693  0.0976 -0.0891
 2965W        W23245  15.814  14.327  17.004  0.0568  0.1102  0.1354
 2966W        W23246  14.746  12.432  14.040  0.0811 -0.2873  0.0512
 2967W        W23247  12.651   0.922   2.669 -0.0043 -0.0067  0.1904
 2968W        W23248   7.101   2.258  16.507  0.2070  0.0659 -0.1212
 2969W        W23249   0.992  12.240  14.186 -0.1961 -0.0138 -0.0674
 2970W        W23250   5.952  13.505   0.172 -0.5173 -0.0054  0.4675
 2971W        W23251   7.606  14.268   4.563 -0.0260  0.1759 -0.0636
 2972W        W23252   2.235  10.476  12.478  0.0270 -0.0313 -0.0311
 2973W        W23253  12.319  16.457  11.902 -0.2438 -0.0006 -0.2875
 2974W        W23254   0.991   4.802   3.371  0.0580  0.3757  0.1983
 2975W        W23255  16.584   7.250   0.709 -0.0951  0.4359 -0.1460
 2976W        W23256   1.274   6.853   3.993  0.1492 -0.2651  0.0355
 2977W        W23257  10.941  13.352   2.924 -0.1320 -0.0631 -0.0192
 2978W        W23258  11.092  13.084  13.017  0.1705  0.1735 -0.3168
 2979W        W23259  12.020   2.256  12.164 -0.2838 -0.0254 -0.2369
 2980W        W23260  10.360  12.857  15.820  0.1172 -0.3203 -0.0438
 2981W        W23261   4.384   3.148  14.792  0.0528  0.0241 -0.0810
 2982W        W23262   4.364   6.531   4.355 -0.0221 -0.1340  0.0608
 2983W        W23263   1.102  15.619  16.741 -0.0837 -0.0295 -0.1716
 2984W        W23264  14.068   9.240   2.370 -0.0131 -0.3828 -0.1232
 2985W        W23265   5.713   7.194  16.837 -0.0658  0.3379 -0.0654
 2986W        W23266   7.085  12.358  15.090  0.1282  0.0165 -0.2346
 2987W        W23267  15.437  12.877   0.069  0.0890 -0.3856  0.0020
 2988W        W23268  12.271   2.968  13.768 -0.4006 -0.1653  0.1780
 2989W        W23269  15.339  16.713  16.798 -0.0179  0.0330 -0.0404
 2990W        W23270  11.915   9.687  14.667 -0.1034  0.1194  0.2555
 2991W        W23271  15.169   4.698   2.632 -0.1440 -0.4199 -0.1881
 2992W        W23272  11.640   6.277  16.552 -0.0615  0.0547  0.0736
 2993W        W23273   4.745  10.199   2.095 -0.1076 -0.0123  0.0933
 2994W        W23274   3.518   3.214  12.775  0.0469 -0.1973  0.0385
 2995W        W23275  13.165   1.353   1.523  0.0689 -0.1313 -0.0972
 2996W        W23276  14.216   4.596   3.245  0.2177  0.0490  0.2342
 2997W        W23277  11.906  10.735   1.100 -0.2929 -0.1827  0.2023
 2998W        W23278   3.772   1.210   0.311  0.0796  0.2515 -0.1866
 2999W        W23279   5.476   5.938   1.348  0.6551 -0.0664  0.1401
 3000W        W23280   3.154  12.101  13.858  0.1723  0.0390 -0.1547
 3001W        W23281   8.112  17.308   4.251 -0.0373  0.0634 -0.2423
 3002W        W23282  10.703   5.858  12.508 -0.0713  0.0141 -0.1762
 3003W        W23283   1.406  13.327   4.022 -0.0699  0.2368  0.1023
 3004W        W23284   0.939  12.031   3.368 -0.2498 -0.0052 -0.0896
 3005W        W23285  11.333   1.930  13.400 -0.1576 -0.0190 -0.1061
 3006W        W23286  17.247   2.111   3.391 -0.3926  0.0823  0.1309
 3007W        W23287   0.409   7.857  13.426  0.2004 -0.4704 -0.1900
 3008W        W23288   2.331   1.961   0.893 -0.0380 -0.1114  0.0051
 3009W        W23289   1.009  12.710  15.539 -0.3269 -0.0742 -0.1395
 3010W        W23290  17.219   0.147   2.979 -0.0485  0.4697 -0.3034
 3011W        W23291   7.185  12.019   1.123  0.2154 -0.0394 -0.0603
 3012W        W23292   0.659   5.147   4.471  0.0254 -0.3155  0.0290
 3013W        W23293  10.475  14.506  15.292  0.1782 -0.2263 -0.3038
 3014W        W23294   9.144  14.705  12.219  0.1530  0.2216  0.1256
 3015W        W23295   8.306  15.706   0.076  0.0985 -0.0453  0.2240
 3016W        W23296   4.299   3.549   2.501  0.1305 -0.1237 -0.0407
 3017W        W23297  14.648   4.876   0.936  0.0062  0.0502  0.1591
 3018W        W23298   9.800   7.152   1.475 -0.2334 -0.0344 -0.1128
 3019W        W23299   4.497   9.805  15.443 -0.3466 -0.1068 -0.2286
 3020W        W23300  11.926   3.619   3.137 -0.1001 -0.0270  0.0797
 3021W        W23301   9.275  10.517   3.261 -0.5563 -0.1836  0.1032
 3022W        W23302   5.320   8.650   3.438 -0.1239 -0.0864  0.2867
 3023W        W23303   6.658  17.693   4.662 -0.1077 -0.2236 -0.1971
 3024W        W23304   0.633  14.591   4.411  0.0346 -0.1950  0.4188
 3025W        W23305   5.927  17.558  16.348 -0.1580 -0.4069  0.0465
 3026W        W23306   3.075  10.992   2.390 -0.3932 -0.0627  0.3319
 3027W        W23307  12.543   6.571  14.584 -0.2793 -0.0259  0.2789
 3028W        W23308   7.274  15.843   1.480 -0.2157  0.0608 -0.1360
 3029W        W23309   6.355   4.691   1.812  0.2054 -0.1614 -0.0563
 3030W        W23310   4.345  17.372  15.201  0.2250  0.2764  0.2236
 3031W        W23311   1.621  14.713   4.507 -0.0160 -0.0761  0.3794
 3032W        W23312  13.291   6.938   1.300  0.2668  0.0302 -0.1744
 3033W        W23313  14.961   8.163  14.841  0.2519  0.0922 -0.1592
 3034W        W23314   0.230  10.932  12.490 -0.2311 -0.2638 -0.1711
 3035W        W23315  10.357  13.282  16.481  0.0284  0.0280 -0.2273
 3036W        W23316  10.568   8.740   1.376 -0.0795 -0.0550  0.1441
 3037W        W23317   7.193   8.795   4.205 -0.0510 -0.0070 -0.1008
 3038W        W23318  15.551   5.720   4.274 -0.0171  0.2844 -0.1902
 3039W        W23319   3.905   6.337   2.178 -0.1431  0.1077  0.0413
 3040W        W23320   3.811  13.141   0.910  0.0420 -0.1770 -0.0388
 3041W        W23321  17.527   0.598  13.605 -0.0631 -0.3972  0.1756
 3042W        W23322  10.653   1.485   1.802  0.2079  0.0277  0.0746
 3043W        W23323   6.082   3.927  13.034  0.0810 -0.0359 -0.0969
 3044W        W23324  17.581  15.811   3.791  0.1209  0.0418  0.0800
 3045W        W23325   2.236  17.004   2.163  0.0687 -0.2193  0.2419
 3046W        W23326   4.722  10.463  13.226 -0.1980  0.0309  0.2002
 3047W        W23327  15.699   9.298   3.477  0.2599  0.1141 -0.0716
 3048W        W23328  16.309   5.368  16.776 -0.0865 -0.0274  0.2092
 3049W        W23329   1.465   7.925  13.090 -0.2362 -0.2673  0.0639
 3050W        W23330  12.384  12.596   0.021 -0.0133 -0.1939 -0.1070
 3051W        W23331   2.808   0.861   4.342 -0.0170 -0.1825  0.0331
 3052W        W23332   7.591   7.106  15.168 -0.3193 -0.3200 -0.0522
 3053W        W23333   9.400  17.649  13.784  0.1328  0.1591  0.4328
 3054W        W23334  17.584   1.040  15.239  0.2041  0.0489 -0.0920
 3055W        W23335  11.421   5.024   1.940 -0.0259  0.1197 -0.1644
 3056W        W23336   0.591  10.199  16.607  0.1127 -0.0459 -0.1884
 3057W        W23337   3.515   5.351  13.438  0.0257  0.1354 -0.3431
 3058W        W23338  13.123   4.085   0.820 -0.3780  0.3307 -0.1255
 3059W        W23339   1.787  14.164   0.988 -0.2474 -0.0816 -0.1223
 3060W        W23340  16.426   6.041   4.389  0.0389 -0.0943 -0.0013
 3061W        W23341  14.835   6.121  14.326  0.1470  0.1206 -0.1906
 3062W        W23342  12.938  16.767  16.801 -0.0167  0.2420 -0.1202
 3063W        W23343  15.476  14.005   2.515 -0.0487 -0.0485  0.3723
 3064W        W23344   5.169  10.891  13.214  0.1088  0.0682  0.0765
 3065W        W23345   4.639  13.334   0.595  0.1804  0.2797 -0.0684
 3066W        W23346  16.132   0.216   0.659  0.1264  0.1109 -0.2147
 3067W        W23347   0.576   5.518  15.231  0.0557 -0.1396 -0.1586
 3068W        W23348   8.789   8.617   4.933 -0.2065 -0.2740 -0.0027
 3069W        W23349   3.875   2.538   1.374  0.1318 -0.0263  0.0071
 3070W        W23350   9.737  15.816  13.380 -0.1629 -0.1900  0.2506
 3071W        W23351  14.358   8.444   0.586  0.1193  0.2489  0.0699
 3072W        W23352   0.076  14.479  15.302 -0.0175 -0.0717  0.0876
 3073W        W23353  17.491  17.223   3.295  0.1875  0.0850  0.2778
 3074W        W23354   3.814  15.508  13.899 -0.0454 -0.1418 -0.0168
 3075W        W23355   8.910  12.232   3.163  0.1237  0.0400 -0.0574
 3076W        W23356  16.128   4.689  14.664 -0.0319  0.0058 -0.3875
 3077W        W23357   9.316  14.770   4.192 -0.0842 -0.0704  0.1285
 3078W        W23358   5.458   5.767  12.935 -0.1074 -0.2844  0.1979
 3079W        W23359  14.600   6.979   4.586  0.4383  0.0040  0.1135
 3080W        W23360   5.217  13.110   1.670  0.0278  0.0868 -0.1248
 3081W        W23361   5.382  15.718   0.617  0.0866 -0.1581 -0.2013
 3082W        W23362   5.189   0.794   3.650  0.0119 -0.3277 -0.1270
 3083W        W23363   3.707   5.485   0.186 -0.0832  0.2292  0.3771
 3084W        W23364  14.622   9.258  14.338  0.0173  0.3354  0.1570
 3085W        W23365  11.693  13.999   1.009  0.1045 -0.0963  0.2829
 3086W        W23366   7.996  11.169   2.848  0.2270 -0.0190  0.2025
 3087W        W23367   1.548   3.141   2.565 -0.3279 -0.3053 -0.0022
 3088W        W23368   2.792   4.710   1.516 -0.2464 -0.0640 -0.1006
 3089W        W23369   6.667  10.249  14.711  0.0966 -0.2802 -0.0612
 3090W        W23370   8.139  15.563   0.852 -0.0750 -0.0684  0.2039
 3091W        W23371  10.265  12.728   4.204 -0.2934 -0.0123 -0.1878
 3092W        W23372  16.253  15.932   1.845  0.1646  0.1261  0.0636
 3093W        W23373   7.673   7.342  16.090  0.1187 -0.1154  0.0414
 3094W        W23374   6.414   3.935   4.788  0.2511  0.1268 -0.1064
 3095W        W23375  15.438  10.647   3.310 -0.0802  0.0047  0.0581
 3096W        W23376   1.197  16.530  15.338  0.0860  0.0041  0.1043
 3097W        W23377  16.974  14.600  13.082  0.0123 -0.1217  0.1183
 3098W        W23378  10.372   3.416   0.813  0.2196 -0.1329  0.0394
 3099W        W23379  10.186  13.438  14.980 -0.0889 -0.4549 -0.0856
 3100W        W23380   5.006  10.922  16.619  0.1423 -0.0075 -0.1231
 3101W        W23381   7.287  15.912  13.060  0.0007 -0.0489 -0.1330
 3102W        W23382   7.356   7.824  16.069  0.0967 -0.0936  0.1907
 3103W        W23383   5.945   1.790   0.904 -0.0671  0.3423  0.3868
 3104W        W23384  16.960  14.170  16.764 -0.2031 -0.1493 -0.3582
 3105W        W23385  12.194   6.233   0.400 -0.1301  0.2361  0.1644
 3106W        W23386   4.795  11.590  12.081  0.2017  0.1155 -0.0561
 3107W        W23387   0.180  17.265  16.013 -0.0658  0.1269  0.2810
 3108W        W23388  13.993   7.696   2.367  0.1738  0.1765  0.2168
 3109W        W23389  17.568   2.416  15.322  0.2680 -0.1015  0.2622
 3110W        W23390  14.817   1.412  13.118  0.0310  0.1273 -0.3709
 3111W        W23391  15.958   0.782   2.911 -0.0907  0.1755 -0.0960
 3112W        W23392  13.218   1.720   0.168 -0.0553  0.0599  0.4101
 3113W        W23393  17.384  10.646  15.906 -0.2335  0.3022  0.5536
 3114W        W23394   5.182   7.992   1.942 -0.0862  0.0889 -0.1169
 3115W        W23395   7.900   1.614   0.442  0.1288 -0.3206  0.3511
 3116W        W23396   7.870   2.772   3.809 -0.0063 -0.1593 -0.0935
 3117W        W23397   5.058   9.200  15.965  0.0331 -0.1525  0.2587
 3118W        W23398  13.460  16.210   2.182  0.2978 -0.1346  0.0176
 3119W        W23399  11.950  16.168  12.080  0.0188  0.2503  0.0237
 3120W        W23400   1.744   7.183  14.021 -0.1174 -0.1172  0.0124
 3121W        W23401   6.847  11.452  14.064 -0.1056  0.1093 -0.1812
 3122W        W23402   6.640   8.293  12.611  0.0043 -0.2783  0.0387
 3123W        W23403   7.637  14.481   3.634 -0.1125 -0.1385  0.1110
 3124W        W23404  12.491   1.930  14.245 -0.4059 -0.1386  0.1349
 3125W        W23405   4.514   4.274  15.672  0.3323  0.4311  0.1302
 3126W        W23406  17.609   9.684  15.660  0.1813 -0.3269 -0.0872
 3127W        W23407   8.788   4.987  14.751  0.0090 -0.0888 -0.0084
 3128W        W23408   7.909   7.532  12.753  0.2023 -0.0770  0.2444
 3129W        W23409   8.176   6.970  13.488 -0.1872 -0.0315 -0.2183
 3130W        W23410  16.407  10.777  14.213 -0.0375 -0.1478  0.1950
 3131W        W23411  13.917   2.664  15.545 -0.2665  0.0603  0.0813
 3132W        W23412   2.061  10.096  14.974  0.0371  0.0143  0.1669
 3133W        W23413   8.052  14.664   3.780 -0.5262  0.1257 -0.0229
 3134W        W23414  16.740  16.726  15.108  0.2644 -0.0937 -0.2894
 3135W        W23415   9.226  15.141   3.217 -0.2117 -0.0645  0.2118
 3136W        W23416   2.948  11.762  14.614 -0.1224  0.1642 -0.4316
 3137W        W23417  14.514   6.436  14.028 -0.2251  0.0385  0.1878
 3138W        W23418  13.999  14.341  14.763  0.1115 -0.1242 -0.1822
 3139W        W23419  14.349   2.997  14.198  0.1697 -0.0218  0.1550
 3140W        W23420  17.328   1.347   1.506 -0.2008 -0.0808 -0.1845
 3141W        W23421  11.400  15.689   4.597  0.1512  0.3492 -0.2227
 3142W        W23422   6.065   7.259  12.034 -0.0978 -0.1056 -0.0175
 3143W        W23423  13.352   8.349   3.603 -0.1561  0.0189  0.1950
 3144W        W23424  13.906  15.578   1.160  0.2076  0.0209 -0.2078
 3145W        W23425   0.505   2.519  14.467 -0.3026  0.1132 -0.0254
 3146W        W23426  15.983  12.466  14.891  0.1112  0.1722 -0.1597
 3147W        W23427   5.153  10.257   4.118  0.1354  0.0006  0.0142
 3148W        W23428   7.275   1.802   4.969 -0.0779 -0.2131 -0.1508
 3149W        W23429   9.919   6.954   4.086 -0.0130  0.0243  0.0971
 3150W        W23430   4.263   1.196   3.558 -0.1537 -0.1578  0.2088
 3151W        W23431  14.133   9.309   4.619  0.3311 -0.0094  0.1339
 3152W        W23432   5.978  14.698   3.151  0.0494  0.1632 -0.1359
 3153W        W23433   4.259   2.706   1.657 -0.0575  0.1820  0.3206
 3154W        W23434  17.439  12.747  15.986 -0.0053  0.1295  0.1695
 3155W        W23435   9.286  12.593  12.044 -0.2382  0.1229 -0.1970
 3156W        W23436  15.580   0.548   1.342 -0.0537 -0.1439  0.0307
 3157W        W23437   0.129   4.914  14.108 -0.0721 -0.1481  0.2938
 3158W        W23438   0.545   7.599   2.020  0.2542  0.1754 -0.1057
 3159W        W23439  11.712   1.638  13.606 -0.0723  0.1916  0.1446
 3160W        W23440  16.872   8.216  13.354 -0.0639  0.3060  0.0290
 3161W        W23441   2.632  13.773   2.262 -0.4200  0.1469 -0.0316
 3162W        W23442  15.716   3.497   1.023  0.0190  0.1811  0.0853
 3163W        W23443   1.480   0.938  15.348  0.4789  0.1300  0.0979
 3164W        W23444   1.264  11.600   3.867 -0.0168  0.0464 -0.1575
 3165W        W23445  16.277  16.712  13.442  0.2309 -0.1645 -0.1344
 3166W        W23446   6.654  10.392   2.551  0.3516  0.0451  0.0775
 3167W        W23447  10.545   5.662  13.497 -0.2408 -0.1879  0.0222
 3168W        W23448   9.085   2.566  14.046 -0.1655 -0.1378 -0.0977
 3169W        W23449  13.200   8.938  13.675  0.0069  0.0312  0.0347
 3170W        W23450   5.692  12.709  14.967 -0.2119 -0.0246  0.3057
 3171W        W23451   2.307   3.950  12.626 -0.0370 -0.2220 -0.3328
 3172W        W23452  13.479   5.338   1.315  0.0419  0.0554  0.1218
 3173W        W23453  10.534  17.107   0.094 -0.2232 -0.0995 -0.1278
 3174W        W23454  12.279   1.083  12.140  0.0395 -0.1033 -0.0290
 3175W        W23455   4.531   6.479   3.453  0.0474  0.1814 -0.1735
 3176W        W23456  13.132  17.342   1.430  0.4134 -0.3997  0.1642
 3177W        W23457   1.356   2.946   1.120 -0.0280 -0.0592  0.1929
 3178W        W23458  10.382  12.219  16.939  0.1207 -0.2974  0.0574
 3179W        W23459   4.922   5.312  15.770  0.0909 -0.0264 -0.0308
 3180W        W23460   7.975   7.118   0.850  0.2834 -0.0408 -0.0400
 3181W        W23461   3.441  17.608   4.296  0.1769 -0.3885 -0.2348
 3182W        W23462   0.124   2.977  12.908  0.1390  0.1877 -0.1643
 3183W        W23463  10.430  12.517  13.498 -0.1422 -0.0823 -0.0518
 3184W        W23464  16.763   0.142   4.765  0.1027  0.1415  0.0247
 3185W        W23465  11.134   6.006   2.511 -0.2851 -0.2563 -0.0067
 3186W        W23466   9.616  16.126  16.839  0.2780  0.1101  0.3201
 3187W        W23467   1.585  17.250  15.471  0.0968  0.4351  0.1504
 3188W        W23468  12.831   8.442   3.675 -0.1245 -0.1371  0.3415
 3189W        W23469   1.198   3.971  14.142 -0.4320 -0.0407 -0.1445
 3190W        W23470  13.304  12.290  11.820  0.0589  0.2567 -0.0471
 3191W        W23471   8.891  10.094  15.566  0.1972  0.1055 -0.2907
 3192W        W23472   6.334   4.697  13.209  0.2738 -0.1552  0.2902
 3193W        W23473   1.207  17.052  14.452  0.0207 -0.0505  0.1987
 3194W        W23474   1.732   9.821  12.550  0.0731  0.4266  0.2664
 3195W        W23475   4.469  14.789  14.914 -0.3761 -0.0972  0.0571
 3196W        W23476   9.151  16.730  15.389  0.3093 -0.2624 -0.2709
 3197W        W23477  15.745  16.272   1.315  0.2295 -0.0194  0.0878
 3198W        W23478  11.486   6.698  14.905 -0.1660 -0.0730  0.2906
 3199W        W23479   9.655   0.705  12.530 -0.1340 -0.3075  0.2424
 3200W        W23480   9.619  12.036   4.315  0.2475 -0.0066 -0.1014
 3201W        W23481   4.689  16.113   3.935  0.0534 -0.1674 -0.0963
 3202W        W23482   5.873   4.240   0.474 -0.4273  0.0641  0.2809
 3203W        W23483  17.559   2.831   1.188 -0.0754  0.0567  0.2937
 3204W        W23484  15.535   0.053   0.884 -0.1942  0.0651  0.1046
 3205W        W23485   4.786   3.136   2.293  0.1576 -0.0919 -0.0153
 3206W        W23486   3.261  11.366  12.765 -0.1160  0.0531  0.0288
 3207W        W23487  13.634   3.511  13.905  0.2706  0.0683 -0.1598
 3208W        W23488  13.555  17.189  13.569  0.0649 -0.2565  0.1690
 3209W        W23489  14.003  16.831   2.618  0.3345 -0.0942  0.0061
 3210W        W23490   4.640   6.200  13.447 -0.0470  0.1624 -0.1517
 3211W        W23491   0.638   3.609  16.792  0.2160  0.3695 -0.0296
 3212W        W23492   0.216   5.460  13.327 -0.0174  0.0428  0.1427
 3213W        W23493   6.213  11.262  16.195 -0.3112 -0.0739  0.3746
 3214W        W23494   9.907   2.968   4.145 -0.2790 -0.2928  0.2978
 3215W        W23495   2.183   1.759   1.293  0.0183  0.0964  0.1597
 3216W        W23496   0.094   5.996  13.253  0.1113 -0.2844  0.3538
 3217W        W23497  11.958   8.051   5.343  0.1622 -0.1545  0.1533
 3218W        W23498   0.275  16.356   3.121 -0.0779  0.0501  0.2574
 3219W        W23499  17.597   0.108  15.036 -0.1306 -0.0506 -0.5373
 3220W        W23500   0.798  17.126  12.730 -0.0483  0.1786  0.2020
 3221W        W23501  15.101   9.406  12.966  0.1230  0.1700  0.0686
 3222W        W23502   4.519  14.277   2.082 -0.4286 -0.4196  0.0293
 3223W        W23503  15.539  11.755   1.093 -0.0825  0.0306 -0.4089
 3224W        W23504  16.001   0.523  16.314 -0.0245 -0.0781 -0.3187
 3225W        W23505   0.002   3.839  12.485 -0.0090  0.0345 -0.2160
 3226W        W23506   1.716   8.157   2.216  0.1248  0.0451  0.2782
 3227W        W23507   3.674  17.460  13.929  0.0898 -0.0243 -0.0540
 3228W        W23508   8.868   0.050   0.627  0.0693  0.2848  0.1013
 3229W        W23509   8.182  14.596  16.542  0.0527  0.1563  0.1799
 3230W        W23510   4.746   9.560   4.967 -0.0077 -0.2527  0.0322
 3231W        W23511  11.353   5.978   0.589  0.4841  0.1032  0.1282
 3232W        W23512  15.639  17.046   3.813  0.0465 -0.2504 -0.0423
 3233W        W23513  11.756  12.735   4.865 -0.1111  0.2801 -0.2738
 3234W        W23514  10.116  12.239   1.553  0.3506  0.1268  0.2175
 3235W        W23515  15.138   1.161  12.817  0.3344 -0.0017 -0.2322
 3236W        W23516   2.743  15.356   1.399  0.0397 -0.1031  0.0126
 3237W        W23517   4.833  13.609  15.073  0.4665 -0.3035  0.0106
 3238W        W23518   8.493   9.331   1.020  0.1198  0.1269 -0.0646
 3239W        W23519   3.385  11.990  14.654  0.0163  0.1167  0.0738
 3240W        W23520  15.157   2.666   5.673 -0.0968 -0.0352  0.1383
 3241W        W23521  15.202   4.341   3.004  0.0106 -0.6059 -0.0059
 3242W        W23522   8.071   1.414  13.785  0.1721  0.0151  0.3293
 3243W        W23523  16.842   8.124   4.523  0.0634  0.1926 -0.0455
 3244W        W23524   9.505   8.461   2.348  0.2290  0.0728  0.1350
 3245W        W23525  14.862  11.674   4.877 -0.0345 -0.0693 -0.1402
 3246W        W23526   9.811   3.787   0.100 -0.0409  0.0334 -0.1202
 3247W        W23527   7.146  15.612   1.875  0.1290 -0.0811  0.2754
 3248W        W23528   3.831  11.724   3.739 -0.2600 -0.0371  0.0109
 3249W        W23529   9.583   0.555  15.104 -0.1582  0.1668 -0.1817
 3250W        W23530   1.035  10.821  12.466 -0.2695  0.1532  0.1725
 3251W        W23531  15.314  11.463  14.038  0.0681  0.2249  0.1284
 3252W        W23532   7.181   1.517   4.478 -0.3542 -0.1821 -0.0974
 3253W        W23533   7.499  15.829  15.335 -0.1990  0.2377 -0.2368
 3254W        W23534  17.387   9.924   2.162 -0.1389 -0.1435  0.1459
 3255W        W23535  14.648   8.916  14.865 -0.3651 -0.0282  0.1532
 3256W        W23536   4.592   4.906  15.559 -0.0170  0.0287 -0.0568
 3257W        W23537   0.450   9.419  13.411 -0.2147 -0.3286  0.2007
 3258W        W23538   1.501   0.367   4.907 -0.1425 -0.0471  0.1447
 3259W        W23539  13.572  16.143   3.776  0.2147 -0.1626  0.1271
 3260W        W23540   6.310   0.619   0.479 -0.1704  0.2176  0.1271
 3261W        W23541   2.638   4.825  13.584  0.1545 -0.0282  0.3264
 3262W        W23542  11.980   1.746   0.538  0.0182  0.0837 -0.2058
 3263W        W23543   1.321  10.271  16.726 -0.0602  0.2092  0.0990
 3264W        W23544  11.427   9.743   0.888  0.1172 -0.1470 -0.0896
 3265W        W23545   4.550  11.270   3.394 -0.4012  0.1696 -0.2286
 3266W        W23546   1.210   8.405   0.824  0.0685  0.1433  0.2126
 3267W        W23547   9.187   1.766   3.693 -0.1069 -0.2357 -0.1365
 3268W        W23548   4.046   0.224   3.490  0.0231  0.1510  0.2273
 3269W        W23549   6.691  10.023  12.361  0.0850 -0.2120  0.0343
 3270W        W23550   7.453   3.464  13.837 -0.1939 -0.2026 -0.1299
 3271W        W23551  14.217  12.628   2.305  0.0653  0.2794 -0.2090
 3272W        W23552   2.352   8.955   1.962 -0.1205  0.1933 -0.1417
 3273W        W23553  17.255   7.964   0.957  0.3029 -0.4553 -0.0699
 3274W        W23554   2.658   8.975  15.814 -0.3174 -0.0022  0.1513
 3275W        W23555   7.869   8.608   2.076 -0.3019  0.1939  0.1364
 3276W        W23556   1.128   0.673   0.946  0.2017  0.1407 -0.1821
 3277W        W23557  14.239   6.296  16.860  0.0282 -0.2367 -0.1894
 3278W        W23558  13.584   2.655   3.294 -0.0863  0.1599 -0.0543
 3279W        W23559   1.877  16.653  14.059  0.0783 -0.0534  0.4127
 3280W        W23560   1.443   6.854   0.074 -0.1057 -0.1988 -0.3465
 3281W        W23561  17.628  10.021   3.960 -0.3105 -0.3424  0.3026
 3282W        W23562   0.404  15.476   1.602 -0.1000 -0.1050 -0.2058
 3283W        W23563   1.158  11.775  14.399 -0.0749  0.1647 -0.5475
 3284W        W23564  15.552  13.475  13.413 -0.2625  0.0346 -0.2691
 3285W        W23565   4.336   4.290  16.807 -0.0240 -0.1840 -0.1730
 3286W        W23566   2.546  15.234   0.946 -0.0087  0.0982 -0.0790
 3287W        W23567  12.631  16.704   2.583  0.1248  0.0214 -0.0662
 3288W        W23568   2.255   3.355   0.103 -0.0251  0.0293 -0.0289
 3289W        W23569  15.915   6.491   2.177 -0.2350  0.1152  0.1090
 3290W        W23570   1.245  17.291   0.550 -0.1625 -0.0227 -0.1347
 3291W        W23571   6.486   5.955   2.200  0.0939  0.0366  0.0327
 3292W        W23572  16.437   3.055  15.259  0.1577 -0.2054  0.1270
 3293W        W23573   5.596   7.450  14.679 -0.1020  0.0097  0.1139
 3294W        W23574   7.784   8.030   2.208 -0.1665 -0.1708 -0.3924
 3295W        W23575   1.942   3.496   2.829 -0.0339  0.2726  0.0176
 3296W        W23576   5.661   3.278  16.740  0.1133 -0.0279  0.2647
 3297W        W23577  13.044  11.106  15.281  0.2616  0.1213 -0.1845
 3298W        W23578   9.982  12.338   4.505 -0.0675  0.0213  0.2680
 3299W        W23579   3.709   6.801   0.429  0.0043 -0.1453 -0.0464
 3300W        W23580  11.885   9.966  14.236 -0.1195 -0.0372  0.2558
 3301W        W23581  11.269  11.613   1.822  0.0506 -0.2302 -0.1408
 3302W        W23582   7.549   4.539  16.273  0.2918  0.3341 -0.1786
 3303W        W23583  13.241   6.427  14.543 -0.1572 -0.3465  0.4008
 3304W        W23584   9.373   8.297  15.829  0.0993 -0.2475  0.1982
 3305W        W23585   1.457  11.856   1.012  0.0790 -0.0615  0.3791
 3306W        W23586   0.993   5.672  16.799 -0.0951 -0.1851  0.4303
 3307W        W23587   1.384  16.056   2.243  0.0397  0.0284 -0.2648
 3308W        W23588   9.088   3.572   0.892 -0.0585  0.0399  0.0279
 3309W        W23589   3.623  10.288   0.816  0.2086 -0.4180  0.1501
 3310W        W23590   4.704   5.519   3.495 -0.1492  0.2170  0.0417
 3311W        W23591   7.253   3.114   1.165 -0.2057  0.0711 -0.0476
 3312W        W23592  15.945   0.050   3.315 -0.0589 -0.2027  0.0213
 3313W        W23593  15.480   8.564   4.860 -0.3164 -0.3012  0.3495
 3314W        W23594   7.899   3.596  13.470 -0.0422  0.2822 -0.1160
 3315W        W23595  12.560  13.659  15.971 -0.0431  0.1381  0.1422
 3316W        W23596   1.090  14.396   2.424  0.1946 -0.0510 -0.2319
 3317W        W23597  11.839  15.333   1.174  0.1126 -0.0396  0.1437
 3318W        W23598   3.963  13.773  16.333  0.0216 -0.2630 -0.4455
 3319W        W23599   4.912   6.071   0.359 -0.0912 -0.0931 -0.0438
 3320W        W23600   7.543   0.477  13.167 -0.0982  0.1203  0.4121
 3321W        W23601   8.926   3.783   0.466 -0.2142  0.0399  0.2309
 3322W        W23602   2.719   9.194   0.836  0.0658 -0.0724 -0.2415
 3323W        W23603  13.572  11.874  14.353 -0.5402 -0.3495 -0.0491
 3324W        W23604  14.952   6.511  15.123  0.2483 -0.2644  0.3010
 3325W        W23605   6.967   7.904   4.226 -0.1727  0.1651  0.0815
 3326W        W23606   1.581   4.658  13.269  0.0990 -0.0016  0.1363
 3327W        W23607   5.611  17.715   3.247  0.1543 -0.0371 -0.6584
 3328W        W23608  16.502   7.252  12.806 -0.0127  0.1355  0.0435
 3329W        W23609   9.554  15.515   0.167  0.0248  0.0874  0.2992
 3330W        W23610  14.941  11.642   0.197  0.2915  0.1347 -0.0388
 3331W        W23611  12.445   5.416   4.322 -0.3679 -0.0571 -0.0857
 3332W        W23612   8.043  12.474  12.071  0.0437 -0.0473  0.0577
 3333W        W23613   8.550  11.736   2.525  0.2067 -0.2894 -0.1012
 3334W        W23614   3.078   3.643  14.635  0.3193 -0.1384 -0.2848
 3335W        W23615  15.818   6.002   2.998  0.1145 -0.0437  0.1527
 3336W        W23616   9.816   6.851   2.736  0.1266 -0.2222 -0.1556
 3337W        W23617   2.269  10.811   0.264  0.0629  0.0423 -0.0158
 3338W        W23618   0.810   1.073   2.071 -0.1770 -0.1099 -0.0329
 3339W        W23619   7.886  12.731  13.856  0.1457 -0.1727  0.1979
 3340W        W23620  14.312   1.989   3.771 -0.1620 -0.2014 -0.0948
 3341W        W23621   6.946   0.947   2.581 -0.0618  0.2686  0.1588
 3342W        W23622   0.428   0.017   3.236  0.1103  0.0104  0.2174
 3343W        W23623  10.500   0.584  14.017 -0.0598  0.1165  0.2995
 3344W        W23624  13.835  14.218   4.995 -0.0009 -0.0780 -0.1432
 3345W        W23625  16.106  14.070   3.253  0.0638 -0.1816 -0.2661
 3346W        W23626   2.478   7.474   3.268  0.2711 -0.3288  0.1189
 3347W        W23627   5.610   2.941   4.086  0.0282  0.1367  0.3137
 3348W        W23628   3.241   9.961  14.583 -0.1826  0.0409 -0.1241
 3349W        W23629   7.791  14.719  16.211 -0.0909  0.0368 -0.2317
 3350W        W23630   9.153   3.510  16.240 -0.1468 -0.2319 -0.1722
 3351W        W23631   6.136  10.852  15.883 -0.2165  0.0307 -0.0416
 3352W        W23632   6.447  15.116   4.499 -0.0784  0.4430 -0.0049
 3353W        W23633   0.656  11.795  14.264  0.0259 -0.0653  0.1486
 3354W        W23634   9.152   5.368  14.391  0.1645  0.1827  0.0366
 3355W        W23635   8.509   6.845   4.320  0.0260  0.0858  0.0692
 3356W        W23636   4.775  12.117  13.985 -0.2534 -0.0679  0.0816
 3357W        W23637   5.663   4.273  13.916  0.1115 -0.1285 -0.0116
 3358W        W23638   8.552  16.000   1.450 -0.0434 -0.1311 -0.2495
 3359W        W23639   5.850  17.594  12.480  0.1541  0.0542  0.2564
 3360W        W23640   7.441   4.703   1.619  0.0462  0.0835  0.0616
 3361W        W23641   4.779  17.367   5.040 -0.0048 -0.0464  0.1936
 3362W        W23642   9.946   4.543  15.095 -0.0916 -0.0889  0.1551
 3363W        W23643   8.729   1.787   4.269 -0.0084 -0.1725 -0.4365
 3364W        W23644   7.759  11.448  14.529  0.0990  0.0464 -0.1999
 3365W        W23645  14.310  16.707   3.775  0.0614  0.1115 -0.2030
 3366W        W23646  13.162   2.565   3.435 -0.3288 -0.0732 -0.1757
 3367W        W23647   1.565   6.439   4.219  0.2504  0.0521  0.4683
 3368W        W23648   2.077   1.322   2.230 -0.2054  0.0540 -0.0352
 3369W        W23649   4.619   8.704   0.344 -0.0119  0.2189  0.3163
 3370W        W23650   0.835   0.971   3.516 -0.2298 -0.1908  0.0651
 3371W        W23651   3.063   4.386   4.750 -0.1769 -0.1019  0.1773
 3372W        W23652  12.777   8.626  15.638  0.1536  0.1171 -0.0867
 3373W        W23653  17.327  13.194   1.902  0.2859  0.1669  0.0928
 3374W        W23654   1.168   3.118   0.185 -0.0085  0.1515  0.0377
 3375W        W23655   4.561   7.494   3.382  0.0720 -0.1169  0.1125
 3376W        W23656   2.875  13.197  16.817  0.1457  0.0493  0.0232
 3377W        W23657  10.432   1.109  15.623  0.0841  0.0838 -0.1284
 3378W        W23658   3.869   2.918   2.685 -0.1512 -0.1628 -0.0019
 3379W        W23659   6.223   7.191   2.637  0.0654  0.1499 -0.1636
 3380W        W23660   4.542  12.542   0.728 -0.0140 -0.1567 -0.0293
 3381W        W23661   3.656   8.173  16.303 -0.1480  0.1529  0.4913
 3382W        W23662   3.907   6.330  15.261  0.3505 -0.2974 -0.1532
 3383W        W23663   6.349   7.785   0.314 -0.0003  0.1332 -0.2581
 3384W        W23664  13.505   5.833   2.588  0.0679 -0.1731  0.3267
 3385W        W23665   6.495  10.693   2.154  0.1895 -0.0329  0.2004
 3386W        W23666   2.423   3.443   4.516 -0.0086  0.0526  0.2100
 3387W        W23667   5.631  15.631  14.321  0.2472  0.2570  0.0276
 3388W        W23668  12.735  13.887  15.173 -0.3112  0.2244  0.3379
 3389W        W23669  16.542  11.508   1.878  0.1295  0.1497  0.0690
 3390W        W23670  10.387  14.690   1.527 -0.2477 -0.2011  0.1558
 3391W        W23671  15.872  14.726   4.649 -0.2384  0.0772 -0.0521
 3392W        W23672   7.156   5.849   4.708 -0.0345 -0.0659  0.1528
 3393W        W23673   9.895  11.425   3.426 -0.0403  0.1876 -0.2203
 3394W        W23674   6.195  15.126   2.819  0.0222  0.3021  0.0560
 3395W        W23675   2.693   9.703  15.171 -0.2383 -0.0482 -0.1930
 3396W        W23676  10.850   4.869  13.275 -0.1007 -0.4891 -0.0006
 3397W        W23677  14.252   5.145   3.370 -0.0499 -0.1233  0.2357
 3398W        W23678  16.705  12.301   0.483  0.1840 -0.3482 -0.3249
 3399W        W23679  12.030  15.340   0.663  0.1543  0.1174 -0.0871
 3400W        W23680   0.165   5.549   3.627  0.0707  0.3765  0.0870
 3401W        W23681   1.124  13.420   3.585 -0.1942 -0.4238 -0.1610
 3402W        W23682   5.212   8.321   1.491 -0.0957  0.0975  0.2128
 3403W        W23683  11.575  16.199   1.524  0.1129  0.2761  0.0809
 3404W        W23684   7.043   9.961   4.773 -0.1566  0.1191  0.1142
 3405W        W23685   5.176   4.201   2.294  0.3135  0.0358  0.1655
 3406W        W23686  12.369  17.642   2.003  0.0531  0.1918 -0.2672
 3407W        W23687   1.302  16.908  16.245 -0.0553  0.1185 -0.1324
 3408W        W23688  15.161   0.482  13.867 -0.0906 -0.3146  0.0168
 3409W        W23689  17.020  14.959   3.371  0.1722 -0.0780  0.1076
 3410W        W23690   3.459   2.446   5.856 -0.5099  0.1410 -0.3305
 3411W        W23691   3.818   2.272  13.177  0.2081 -0.2474 -0.2396
 3412W        W23692  12.843  13.816   1.976 -0.1959 -0.0213 -0.0500
 3413W        W23693   5.676   7.862   4.461  0.0432  0.1599 -0.2256
 3414W        W23694   5.952   7.838   0.643 -0.1279 -0.3181 -0.2297
 3415W        W23695  11.960   2.168  13.508  0.0990 -0.1417  0.0645
 3416W        W23696   1.700   0.017  16.754 -0.1508  0.4519 -0.0221
 3417W        W23697   5.415   4.961   1.636  0.0861  0.2153  0.1313
 3418W        W23698  15.549  16.527   2.960 -0.0565  0.0259  0.0636
 3419W        W23699   5.929   5.999   2.584  0.1688 -0.1384  0.2216
 3420W        W23700   2.731   0.810  16.869 -0.2239  0.2309 -0.0538
 3421W        W23701  14.224   7.642   1.229 -0.3325 -0.2768 -0.0946
 3422W        W23702   9.706   3.365  13.576 -0.0240  0.1284 -0.2822
 3423W        W23703   4.611  12.349   0.203  0.0881 -0.2281 -0.1417
 3424W        W23704  11.157   3.958  16.222  0.1165 -0.0693 -0.1954
 3425W        W23705   3.818   0.578  14.281  0.2056 -0.1021  0.0002
 3426W        W23706   6.472   7.089   4.954 -0.0378 -0.3575 -0.3331
 3427W        W23707   7.480  16.643   4.210 -0.0051 -0.2005  0.0758
 3428W        W23708   8.244  15.502   2.460 -0.1003  0.4246 -0.0890
 3429W        W23709   9.739  14.293   4.202  0.2398 -0.0464  0.0468
 3430W        W23710   3.311  10.340   2.267 -0.4519 -0.2200 -0.0388
 3431W        W23711   0.291   7.842  16.793  0.1455  0.0909 -0.4231
 3432W        W23712   7.614   6.198   4.639  0.1126 -0.0128 -0.0531
 3433W        W23713  14.388   1.784   1.506 -0.2270  0.0572 -0.0528
 3434W        W23714   1.433  16.800  15.677 -0.2174  0.1303  0.2550
 3435W        W23715  16.253  15.001   1.764 -0.3625  0.1436 -0.1763
 3436W        W23716   8.549   3.220  16.363  0.0942 -0.0569  0.1436
 3437W        W23717  15.962  10.257  12.184  0.1436  0.0608 -0.0418
 3438W        W23718  16.544   7.967  13.072  0.0552 -0.0826  0.0176
 3439W        W23719  11.317  13.635   2.660  0.0916  0.0327 -0.1202
 3440W        W23720   2.188  10.300  13.337 -0.0283 -0.0494 -0.2787
 3441W        W23721  16.860   5.300   1.876  0.1285  0.0937  0.3355
 3442W        W23722  14.793  11.005  15.655 -0.0885  0.1264 -0.0552
 3443W        W23723   9.144  15.256  16.306  0.0991 -0.2405  0.1692
 3444W        W23724   3.899   1.941   1.451 -0.1949  0.1585 -0.0328
 3445W        W23725   6.893   0.888  12.650  0.1275  0.1085 -0.0211
 3446W        W23726  15.746  15.179   3.834 -0.0986 -0.2765  0.1220
 3447W        W23727   1.369   4.344  16.799 -0.2702 -0.2784  0.0137
 3448W        W23728  11.830  12.607  12.752 -0.0879  0.0901 -0.0966
 3449W        W23729  11.270   2.250  14.857  0.1049  0.0247  0.0262
 3450W        W23730  10.152  16.677   2.650 -0.2350  0.1471 -0.0689
 3451W        W23731   3.427  17.317   0.773 -0.2466  0.2944  0.1143
 3452W        W23732   5.610  14.848   0.122  0.2600  0.0474 -0.1567
 3453W        W23733   8.501  10.430  16.293  0.0666 -0.0313 -0.1120
 3454W        W23734  17.174   0.451   5.049 -0.1367 -0.0031 -0.0708
 3455W        W23735   5.856  12.227  13.570 -0.0732  0.1677 -0.1566
 3456W        W23736  12.655  15.860  16.902 -0.0438  0.1408 -0.0047
 3457W        W23737  17.231   6.416   1.646 -0.2105 -0.0747 -0.0854
 3458W        W23738  14.959   8.742   0.034  0.0592 -0.1387 -0.1781
 3459W        W23739  13.706   6.635  15.941  0.0080 -0.0127  0.0908
 3460W        W23740  13.087   7.624   4.814  0.0513  0.2494  0.0369
 3461W        W23741   0.616  10.166   4.914 -0.0937  0.5370  0.2039
 3462W        W23742   8.360  17.718  16.614  0.1345 -0.1372  0.1717
 3463W        W23743   4.456   8.136   1.552 -0.2793  0.2078 -0.1895
 3464W        W23744  16.803   6.572   1.879  0.1470  0.1472  0.1434
 3465W        W23745  17.533  14.669   0.351  0.0095  0.2234  0.0043
 3466W        W23746  16.698  16.997   3.808 -0.3489 -0.0563 -0.0738
 3467W        W23747  13.559  12.564   4.786 -0.0075 -0.2937  0.0284
 3468W        W23748   8.457  14.085   4.523 -0.2272  0.3159  0.2498
 3469W        W23749   8.668   1.654   3.802 -0.0087  0.0698  0.1605
 3470W        W23750   3.414  13.778   5.151 -0.1882 -0.0286 -0.1104
 3471W        W23751   5.012  16.757  14.765 -0.0250  0.0184 -0.2931
 3472W        W23752   2.253  15.968  16.248 -0.3060 -0.1589  0.0971
 3473W        W23753   3.887   0.849   4.523 -0.0416  0.1567 -0.0213
 3474W        W23754  15.073   2.651  13.140  0.0578 -0.0984  0.0191
 3475W        W23755   6.165  12.562   0.526 -0.1127 -0.1320 -0.0585
 3476W        W23756   1.657   6.101   2.620  0.0920 -0.0301 -0.3530
 3477W        W23757  15.563  15.462  14.086 -0.0393 -0.0057  0.1047
 3478W        W23758   1.915   1.596  14.313 -0.0469 -0.0476 -0.0304
 3479W        W23759   0.495   0.103   0.212  0.0768  0.2055  0.0914
 3480W        W23760   2.862   6.739   2.839 -0.2707 -0.0385 -0.1041
 3481W        W23761   4.940   5.472   4.375 -0.1279 -0.1586 -0.0904
 3482W        W23762  15.352   8.218  16.909  0.1954  0.0917  0.1072
 3483W        W23763   1.217   5.562  15.361  0.1631  0.1470 -0.0921
 3484W        W23764   5.761   8.504   0.871  0.0590  0.3358 -0.0857
 3485W        W23765   2.570   7.165   3.639 -0.0357 -0.0938 -0.1857
 3486W        W23766  11.191  12.294  16.703 -0.1550  0.1977  0.0565
 3487W        W23767  10.259   8.352  16.403  0.1275  0.0540 -0.0169
 3488W        W23768   3.048   3.335  12.645 -0.0640 -0.2180  0.1579
 3489W        W23769   9.233   7.822  14.385 -0.0920  0.0878  0.0496
 3490W        W23770   1.014  13.660   0.633 -0.0571 -0.0601 -0.0024
 3491W        W23771   9.695   6.112   1.324 -0.1356  0.0214  0.0345
 3492W        W23772  14.745   1.910   1.905  0.2564  0.0987  0.2823
 3493W        W23773   9.539   5.431   3.853 -0.1961  0.1500  0.1642
 3494W        W23774  13.612   6.531   6.051  0.3705  0.1891 -0.0100
 3495W        W23775   8.573  13.696  12.287 -0.0150 -0.1145  0.0845
 3496W        W23776  11.847   1.097  16.737 -0.2076  0.0591  0.0477
 3497W        W23777   7.569   1.384  15.412  0.0399 -0.0051 -0.0912
 3498W        W23778  14.156   9.684  12.144 -0.0875  0.2524  0.0984
 3499W        W23779  14.642   7.249   4.124 -0.0577  0.5644  0.2333
 3500W        W23780  13.622   0.157   0.281  0.0242  0.2038  0.0458
 3501W        W23781   5.760  14.359  15.430 -0.0254  0.0756  0.0478
 3502W        W23782   0.280   6.585  15.257  0.3035  0.5116  0.0613
 3503W        W23783   9.112   7.049  14.975 -0.2990 -0.2508  0.1167
 3504W        W23784   2.516   9.502  12.684  0.0996 -0.1481  0.0652
 3505W        W23785   5.879  12.404   2.318 -0.2804 -0.3235  0.0577
 3506W        W23786  15.684  16.362  14.094 -0.2503 -0.0059 -0.0460
 3507W        W23787   2.209   8.649   3.846 -0.2692 -0.4600  0.3875
 3508W        W23788   5.931  12.157   1.269 -0.0931  0.0715 -0.1244
 3509W        W23789   8.496   0.433   0.848 -0.0038 -0.2877  0.0548
 3510W        W23790  17.496  14.910   3.682 -0.2122 -0.0838  0.2238
 3511W        W23791   8.660  10.665   4.142  0.1375 -0.1374  0.1130
 3512W        W23792  12.271  11.086   3.001 -0.0828  0.0140  0.0208
 3513W        W23793   3.029   4.713   1.988 -0.2387 -0.1197  0.0575
 3514W        W23794   5.233   7.809  16.317  0.0366 -0.0677  0.2147
 3515W        W23795  10.881  11.412  14.798 -0.2231 -0.1172 -0.0712
 3516W        W23796   0.404  14.324   4.823  0.1541 -0.1379  0.1103
 3517W        W23797  17.137   7.762   3.804  0.0045  0.1332  0.0443
 3518W        W23798  12.431   1.308  13.167  0.1081  0.1070  0.0465
 3519W        W23799   6.315  11.498  13.891 -0.0387  0.2089 -0.0485
 3520W        W23800  16.847  13.319   0.129  0.3203 -0.1984  0.0726
 3521W        W23801   9.218   5.026   4.753 -0.1459  0.2141  0.1390
 3522W        W23802  11.558   7.966  14.792 -0.0816 -0.0390 -0.0241
 3523W        W23803   6.570   0.919   1.224 -0.1449  0.1103 -0.2133
 3524W        W23804   7.243   4.517  14.439 -0.0132 -0.1896 -0.3444
 3525W        W23805   5.424   7.362   2.183 -0.1235 -0.2116  0.4169
 3526W        W23806   3.439  12.256   2.772 -0.0586  0.3985 -0.0796
 3527W        W23807   4.388  13.088  14.046 -0.1747  0.0068  0.0710
 3528W        W23808  10.257  14.678  13.220 -0.1737 -0.1658  0.1776
 3529W        W23809  11.778  11.189   2.779  0.1252 -0.0709  0.0579
 3530W        W23810   1.947  11.728  12.372 -0.1314 -0.2831 -0.0299
 3531W        W23811   5.596   5.705   0.236 -0.0098  0.0930 -0.0103
 3532W        W23812  13.913   5.755  16.396 -0.1048  0.1090 -0.0362
 3533W        W23813  10.926   9.277  12.191  0.2095  0.0259  0.2855
 3534W        W23814  10.045   3.966   3.269  0.3790 -0.1805 -0.0832
 3535W        W23815   5.391   9.987  15.620  0.2294  0.1459 -0.1394
 3536W        W23816   4.611   2.585  14.907 -0.1337  0.1857  0.1590
 3537W        W23817  13.544  13.804   0.711  0.0720  0.1517 -0.2292
 3538W        W23818   2.039  17.095  13.020 -0.0476 -0.2423  0.2003
 3539W        W23819   9.497  12.085  16.485 -0.0984  0.1375 -0.1340
 3540W        W23820   1.471  16.897   4.066 -0.1267  0.0655 -0.1862
 3541W        W23821   2.378   3.284   3.086 -0.0048 -0.3055  0.3202
 3542W        W23822   0.601   8.814   2.761  0.1377 -0.2769 -0.2346
 3543W        W23823  13.319   8.107   4.860  0.1535 -0.0134  0.0174
 3544W        W23824   4.926   3.849   3.546  0.0776  0.4387 -0.2515
 3545W        W23825   4.116   6.124   0.720  0.0474 -0.2564 -0.0163
 3546W        W23826   5.073  14.264   0.276 -0.0976 -0.0353 -0.0393
 3547W        W23827  17.662   3.380   4.607  0.2346  0.3284 -0.1791
 3548W        W23828   2.354  11.888   0.316 -0.1116  0.0579 -0.1473
 3549W        W23829   8.819  10.107   1.774  0.1985 -0.2721 -0.3567
 3550W        W23830   5.533  15.910  16.213  0.1442  0.1342  0.1660
 3551W        W23831  11.011  17.673   2.290 -0.0089 -0.1712  0.1096
 3552W        W23832   2.743   9.691   3.897 -0.3231 -0.1265 -0.0362
 3553W        W23833  17.249   2.386   2.109  0.1955  0.1873  0.0798
 3554W        W23834  10.952   5.345  13.258  0.3043 -0.1848 -0.1968
 3555W        W23835   6.140  11.233  13.426  0.2145 -0.3943 -0.3748
 3556W        W23836  11.742  15.919  15.558  0.1046  0.1617  0.2378
 3557W        W23837  11.431  13.480  11.685 -0.2079  0.1384  0.1657
 3558W        W23838   7.573   5.809   4.067 -0.2037  0.2936 -0.2352
 3559W        W23839   4.266   1.377   1.007  0.1070 -0.0750  0.1640
 3560W        W23840  16.080   7.605   2.369 -0.0582  0.0958  0.1230
 3561W        W23841  10.613  10.028  14.675  0.2438 -0.3567 -0.1602
 3562W        W23842  11.144  13.025   1.805  0.3148  0.1250 -0.1060
 3563W        W23843   1.038   1.610   3.311 -0.0472 -0.2384  0.3132
 3564W        W23844  13.746   3.063  12.556 -0.2383 -0.1070  0.1391
 3565W        W23845   5.203  14.980   2.191 -0.2848 -0.0630  0.0124
 3566W        W23846  14.167   6.054  13.225  0.0438 -0.0188 -0.1321
 3567W        W23847  16.105   3.448   4.362  0.1610  0.0241  0.1434
 3568W        W23848   7.127  16.399  13.304  0.2843 -0.0856  0.5528
 3569W        W23849  16.362   4.728  12.903 -0.0084 -0.0216  0.2325
 3570W        W23850   7.910  13.232   2.631  0.1200 -0.2806 -0.0983
 3571W        W23851  16.217  15.413   4.444 -0.0719 -0.0884 -0.4727
 3572W        W23852   3.303   2.115  15.808  0.3433 -0.0322  0.2447
 3573W        W23853  13.107   0.065   1.791  0.1631  0.1214  0.2018
 3574W        W23854  14.770  15.299   2.071 -0.3966  0.2235  0.1304
 3575W        W23855  15.602   8.985   2.131  0.1026  0.0720 -0.1643
 3576W        W23856   4.332   1.141  13.888  0.1204  0.1123 -0.1554
 3577W        W23857   8.965  10.427   4.401 -0.0330  0.0261  0.1166
 3578W        W23858  15.090   0.310   3.136  0.2429  0.4184 -0.2337
 3579W        W23859  11.924   8.809   2.435 -0.1114  0.0718  0.1582
 3580W        W23860   7.552  10.641   3.745  0.0842  0.0004 -0.1002
 3581W        W23861   9.322  12.171   4.721  0.4070  0.4316 -0.2354
 3582W        W23862   8.970   9.843   0.343 -0.0370 -0.2499  0.0242
 3583W        W23863   4.676   8.095   3.376 -0.0446  0.1415 -0.0489
 3584W        W23864   7.106   1.001  13.533 -0.2742 -0.3240 -0.0456
 3585W        W23865  15.264   1.140   2.968  0.2011 -0.3248 -0.0883
 3586W        W23866   1.901   4.477  15.358  0.0962 -0.1480  0.0327
 3587W        W23867  13.304   3.279   2.557 -0.0675  0.2311 -0.0213
 3588W        W23868  14.805   3.076   4.089 -0.0255  0.2538  0.2588
 3589W        W23869   4.078   9.761  15.664  0.0197  0.0575  0.3491
 3590W        W23870  12.218  17.531   4.187 -0.1744  0.1573 -0.0755
 3591W        W23871   7.902   2.226  14.564 -0.0407 -0.3979 -0.0943
 3592W        W23872   6.266  15.135  15.520 -0.1230  0.2123 -0.0511
 3593W        W23873   3.799   0.447   2.274 -0.0426 -0.1797  0.0061
 3594W        W23874   0.026  16.908   2.292 -0.1671  0.0675 -0.0383
 3595W        W23875   3.956   4.392   2.885  0.0470 -0.2447  0.0231
 3596W        W23876  11.857  14.135   3.099 -0.1146  0.2180  0.0905
 3597W        W23877   4.889   2.208   3.712 -0.1827 -0.1812 -0.0845
 3598W        W23878   7.717  11.682  15.012 -0.1589  0.1078 -0.1540
 3599W        W23879   9.733   0.578   3.578 -0.1135  0.0917 -0.3311
 3600W        W23880   1.276  12.530   3.575 -0.0174  0.3599  0.0444
 3601W        W23881   2.449  16.322  14.633 -0.1943 -0.1924 -0.1508
 3602W        W23882   6.899   5.079   2.757 -0.0899 -0.0351 -0.1575
 3603W        W23883  14.866  16.425  13.256 -0.1585 -0.0286 -0.3800
 3604W        W23884  17.545  10.484  14.958  0.3320 -0.0007 -0.1079
 3605W        W23885   9.946   4.213   2.020  0.2372  0.2098 -0.1042
 3606W        W23886   1.279   3.961  12.621 -0.0018  0.0876 -0.0282
 3607W        W23887   4.651   7.142   4.074  0.2428 -0.2000  0.0747
 3608W        W23888  17.681   8.570   4.787  0.3173 -0.0548  0.0472
 3609W        W23889   9.119  15.860   2.071  0.3335  0.0578  0.1890
 3610W        W23890   0.494  14.685  12.667  0.1267 -0.3060  0.3032
 3611W        W23891  15.309   4.638   4.738  0.3355 -0.0590 -0.0021
 3612W        W23892   0.563  17.454  14.677 -0.1173 -0.1308  0.4192
 3613W        W23893  12.637   3.483   4.085  0.0672  0.0381 -0.0431
 3614W        W23894  11.426   2.041  16.607 -0.0662 -0.1021  0.1301
 3615W        W23895  13.881   0.043   2.855  0.0616  0.0400  0.0147
 3616W        W23896   2.804  10.155  14.304 -0.2084 -0.1202 -0.0717
 3617W        W23897  14.837   6.225   0.703  0.3397  0.4047 -0.1338
 3618W        W23898   4.101   0.798   0.242  0.1862 -0.2926  0.5289
 3619W        W23899  11.155   4.017   2.028  0.0271  0.2273 -0.0412
 3620W        W23900  16.812   4.751   5.015 -0.1089  0.0150 -0.2554
 3621W        W23901   8.291  16.048  16.639  0.0561 -0.0594  0.1574
 3622W        W23902   8.118   5.391   2.942  0.1677 -0.1525  0.0336
 3623W        W23903   0.544  11.494   2.036  0.3485 -0.0699  0.1247
 3624W        W23904   9.946   9.433   0.934 -0.0281 -0.4105 -0.2609
 3625W        W23905   7.079  12.601   2.710  0.2840  0.3148 -0.2159
 3626W        W23906  10.390  12.860   1.193  0.2283  0.5103  0.1992
 3627W        W23907  12.288   0.864  13.008 -0.1064 -0.1701  0.2166
 3628W        W23908   8.521   1.259  16.452  0.1712  0.0255  0.0494
 3629W        W23909  10.297   6.716  16.047  0.2765  0.2179  0.0796
 3630W        W23910   1.624   8.735  14.748 -0.0316 -0.1592  0.0191
 3631W        W23911  11.891  10.154  14.839 -0.2709  0.0004 -0.2764
 3632W        W23912   7.999  13.719  13.870 -0.2357 -0.1819  0.2316
 3633W        W23913  11.772   1.937  14.751  0.0697  0.2667 -0.1569
 3634W        W23914   4.508   5.613   1.436  0.1368  0.2713 -0.1850
 3635W        W23915   9.513  17.551  11.123  0.0530  0.0364 -0.1041
 3636W        W23916  13.555   0.225  13.369 -0.2278  0.0079 -0.0023
 3637W        W23917  17.024   7.720   4.308  0.2265  0.2883  0.0353
 3638W        W23918   4.040   0.694   1.897  0.2857  0.1426 -0.0486
 3639W        W23919   5.446   5.923  15.646 -0.2701  0.0479  0.1371
 3640W        W23920  12.021   8.185  16.885 -0.0462 -0.0922 -0.2983
 3641W        W23921  11.724  16.611   4.353 -0.0250  0.0462  0.0034
 3642W        W23922  15.965   7.337   3.337  0.0084 -0.1443  0.1731
 3643W        W23923   3.748   2.796  13.161  0.0705  0.0012 -0.4445
 3644W        W23924   7.948  12.860  12.359  0.1201 -0.1877 -0.1765
 3645W        W23925   4.424  15.331  15.355 -0.0412 -0.2359  0.1538
 3646W        W23926  15.599  17.492   4.065  0.0615  0.0940 -0.0889
 3647W        W23927   2.749  10.718  16.067  0.1531 -0.2947 -0.0333
 3648W        W23928  10.391   7.710   2.937 -0.1405 -0.4533  0.2267
 3649W        W23929   1.230  10.540  14.210  0.0651 -0.0616  0.0822
 3650W        W23930   5.207  13.294  13.050  0.2420  0.0238  0.2423
 3651W        W23931  11.491  16.597  16.579 -0.0239  0.3150 -0.1349
 3652W        W23932   1.305  17.701  13.449 -0.1382  0.1160 -0.1258
 3653W        W23933   9.287   4.384  12.082  0.2400 -0.0585  0.0978
 3654W        W23934   1.111  12.753   0.079  0.0800 -0.1208 -0.2203
 3655W        W23935  16.398   9.029  12.823 -0.2391 -0.0991  0.1657
 3656W        W23936  14.636   5.631  15.601  0.0166  0.3229  0.0902
 3657W        W23937   0.067   4.285   2.545 -0.1708  0.0636  0.0095
 3658W        W23938   3.630   9.787   2.733 -0.0237  0.0897  0.1408
 3659W        W23939   8.504   0.901   2.146 -0.3771  0.0405  0.2271
 3660W        W23940   9.938   2.408   0.713  0.0897 -0.0552 -0.0913
 3661W        W23941   0.183  10.836   0.310  0.0750  0.2896  0.0231
 3662W        W23942  13.643   2.125  15.589 -0.1366 -0.0839  0.0839
 3663W        W23943   9.297   4.471  15.542  0.2608  0.0318 -0.2165
 3664W        W23944  14.384  16.307  15.695 -0.1029 -0.1458  0.1911
 3665W        W23945   1.429   2.735  16.193 -0.1683  0.2465 -0.2700
 3666W        W23946  16.349  14.710   4.537  0.5938 -0.2406  0.0877
 3667W        W23947  11.642   1.337   3.592  0.2486  0.0076  0.3066
 3668W        W23948  14.451   7.492   4.584 -0.3056 -0.1551  0.3641
 3669W        W23949   0.120  14.743   6.047 -0.0285  0.0134 -0.0750
 3670W        W23950  15.734   1.016  12.205  0.1941  0.2165 -0.0077
 3671W        W23951  13.080   1.130   1.060 -0.0469  0.1916  0.0948
 3672W        W23952   6.769   7.232  15.660  0.2288  0.1857  0.1034
 3673W        W23953  16.646   9.908  15.227 -0.1767  0.0827 -0.0786
 3674W        W23954  17.131  16.302   5.004 -0.0893 -0.1085  0.0428
 3675W        W23955  15.998  13.929   2.576  0.0580 -0.3153 -0.1938
 3676W        W23956  16.909  14.250  15.765 -0.2444 -0.1226  0.1327
 3677W        W23957   9.248   2.153  14.391  0.0967  0.1023  0.0336
 3678W        W23958   7.603   8.979   5.132  0.0705 -0.1621 -0.0644
 3679W        W23959  16.505  13.281   0.796 -0.1762 -0.2491  0.0887
 3680W        W23960  10.449   0.328  15.566  0.1017 -0.0914  0.0220
 3681W        W23961   2.969   7.706   3.070  0.2792  0.0594  0.2716
 3682W        W23962   0.195   3.808   4.551  0.1472  0.1169 -0.2967
 3683W        W23963   2.756  15.008  16.502 -0.1429  0.0840  0.3990
 3684W        W23964   7.842  16.855  12.831 -0.2836 -0.2140  0.0455
 3685W        W23965   3.427   2.180   3.243 -0.0914 -0.0410  0.0578
 3686W        W23966   2.340   7.146  13.846 -0.1716 -0.0060  0.1181
 3687W        W23967   6.858   0.418   4.942 -0.1287  0.0039  0.0423
 3688W        W23968   4.728   0.263   4.289  0.3373 -0.0719 -0.2508
 3689W        W23969  10.655   2.841  15.832 -0.3609  0.1288 -0.2080
 3690W        W23970  16.799   4.798   1.676 -0.0532 -0.3329  0.3088
 3691W        W23971   7.401  10.864  13.616 -0.0022 -0.0038  0.0699
 3692W        W23972  15.352   3.841  13.761 -0.0362  0.0844 -0.1710
 3693W        W23973  13.538  16.505  14.168 -0.0206  0.0412 -0.2372
 3694W        W23974  11.748   3.958   4.201  0.0451 -0.1151  0.2647
 3695W        W23975   3.122   6.852   1.480 -0.2556  0.0916 -0.0519
 3696W        W23976  17.225   3.746  13.230  0.0814 -0.0840 -0.0996
 3697W        W23977   9.887   5.135  13.761 -0.2912  0.1427 -0.1812
 3698W        W23978  15.237   1.024   0.364  0.0266  0.0714 -0.2327
 3699W        W23979  10.370  11.305  13.070  0.0822  0.1442  0.0477
 3700W        W23980   7.742  14.376   0.448 -0.2469 -0.2745  0.1207
 3701W        W23981  13.393  17.691  14.772 -0.2125 -0.1881 -0.3098
 3702W        W23982  16.405  16.407   2.728 -0.1928  0.0309  0.2559
 3703W        W23983   5.827  13.080   2.781 -0.1309 -0.0236  0.0578
 3704W        W23984   5.380   9.828   4.319 -0.1459  0.1796  0.2526
 3705W        W23985  16.063  13.916   0.544  0.1452  0.5416  0.2533
 3706W        W23986  16.316  17.246  14.263  0.2799 -0.1427 -0.0736
 3707W        W23987   6.835  13.771   3.441  0.0326  0.0282  0.1356
 3708W        W23988   8.953  10.874  13.447 -0.1536 -0.2215  0.1931
 3709W        W23989   6.804   1.307   0.031 -0.0671  0.1682 -0.0365
 3710W        W23990   5.177  13.396  14.215  0.0133  0.1669  0.0315
 3711W        W23991   2.700  11.836  15.047 -0.0442 -0.2721 -0.0351
 3712W        W23992   7.803   3.464   1.873  0.0992  0.4294 -0.2441
 3713W        W23993   3.673   2.497  12.162 -0.2612  0.3074  0.0352
 3714W        W23994  13.943  10.058  14.875 -0.3806 -0.3144 -0.2774
 3715W        W23995  13.984  14.220  12.186  0.1747  0.1258  0.1190
 3716W        W23996   4.595   8.420  13.824 -0.4251 -0.0301 -0.0282
 3717W        W23997   4.788  10.473  16.571 -0.0422  0.3514  0.2658
 3718W        W23998   3.744  14.542   4.628 -0.4029 -0.1907 -0.2103
 3719W        W23999  12.459   2.931  14.688  0.1498  0.2130  0.3048
 3720W        W24000   9.096  15.856   3.769 -0.0739  0.1704 -0.1506
 3721W        W24001   3.197   3.519   2.634  0.3704 -0.2986  0.0694
 3722W        W24002   0.406   7.966   1.079  0.0250 -0.0056  0.2016
 3723W        W24003  10.782   6.969   0.700  0.1328  0.0485  0.2181
 3724W        W24004   4.015   3.527  13.780 -0.1414  0.2323  0.4922
 3725W        W24005   8.799   2.828   2.547  0.0656  0.1961  0.1359
 3726W        W24006   3.353  12.733   2.906 -0.1489 -0.2731  0.0011
 3727W        W24007   2.627   3.366  14.743 -0.3389 -0.0037 -0.2773
 3728W        W24008   8.045  12.103   1.375 -0.0645  0.2252  0.1268
 3729W        W24009   2.317  11.294   4.636  0.1805 -0.0008  0.1056
 3730W        W24010   0.986  17.218   1.825  0.3092 -0.0206  0.0648
 3731W        W24011   4.307  14.338  12.762  0.1852  0.0847 -0.1803
 3732W        W24012  13.695  17.066  13.085 -0.3172 -0.1796  0.1906
 3733W        W24013   1.984   7.470  15.884  0.3792 -0.0132 -0.3225
 3734W        W24014  11.487  11.719  15.513  0.0381 -0.1602 -0.0325
 3735W        W24015   2.637  15.429  13.185 -0.0601 -0.3499 -0.0563
 3736W        W24016   0.896  16.665   3.891  0.0982  0.2251 -0.0005
 3737W        W24017  10.263  12.806  14.967 -0.1856 -0.1694  0.3271
 3738W        W24018  10.999   5.831  14.409 -0.2513 -0.0544  0.5113
 3739W        W24019  11.272  13.152   3.432 -0.0812  0.2460  0.2190
 3740W        W24020   5.763   7.484  15.442 -0.1642 -0.1312 -0.0161
 3741W        W24021   2.115   8.296   1.349 -0.0900 -0.1873  0.1662
 3742W        W24022  11.907  14.981   0.401  0.0320 -0.2357 -0.0613
 3743W        W24023   2.612   2.772   1.041 -0.1410  0.2606  0.3123
 3744W        W24024   8.246   2.390  16.497  0.0921 -0.0199 -0.1376
 3745W        W24025  17.272   5.741   0.885  0.1118  0.2083  0.2769
 3746W        W24026   4.945   0.209  13.783  0.2057 -0.1436  0.4094
 3747W        W24027   7.055   6.284  15.203  0.1748  0.2451 -0.0657
 3748W        W24028  11.538   0.627   1.325  0.1627 -0.1109  0.1648
 3749W        W24029  12.146   2.621   4.770  0.0684 -0.1381  0.2546
 3750W        W24030   5.599  12.855   3.300 -0.2685  0.3844 -0.2040
 3751W        W24031   3.446   3.455  15.931 -0.0665  0.1616  0.1303
 3752W        W24032  13.656   9.487  14.406  0.1368 -0.0356  0.1320
 3753W        W24033  17.565   5.179   3.527  0.3068  0.1869  0.0111
 3754W        W24034   2.852  15.749   3.551 -0.0188 -0.3095  0.1428
 3755W        W24035   0.407   6.932  14.298  0.1652  0.0497 -0.2420
 3756W        W24036  14.215   7.837   2.783 -0.4055 -0.0676  0.0150
 3757W        W24037   4.715   1.401   1.653  0.1009 -0.1705  0.2089
 3758W        W24038   8.992   8.273   2.351 -0.3282  0.1040 -0.0308
 3759W        W24039  15.416   0.533  16.388  0.1211 -0.0110  0.1356
 3760W        W24040  14.712   4.781  12.872 -0.2034  0.1775  0.0379
 3761W        W24041  14.001  12.450  14.903 -0.2597 -0.0381 -0.0769
 3762W        W24042   1.108   9.421   3.355 -0.1810 -0.2311  0.0206
 3763W        W24043  16.449   9.054  15.678  0.2375 -0.5628  0.2872
 3764W        W24044  13.834   0.745   0.432  0.1648  0.3188 -0.0613
 3765W        W24045  17.561  14.865  16.530 -0.0955  0.2792 -0.0309
 3766W        W24046  17.421  10.629  16.655 -0.1106  0.0753  0.0251
 3767W        W24047  10.149  17.048   2.288  0.0517  0.1467  0.3720
 3768W        W24048  11.435  10.133  15.332  0.2495 -0.0695 -0.1208
 3769W        W24049   3.163   6.599   1.061  0.1465  0.0381  0.1098
 3770W        W24050  13.475   7.670   4.186  0.0025 -0.0946 -0.0658
 3771W        W24051  12.181  10.660   0.550 -0.0156  0.1150  0.0334
 3772W        W24052   8.557   7.874  13.448 -0.2132  0.3376  0.0328
 3773W        W24053   7.013   6.124   2.124  0.0587  0.1839  0.1001
 3774W        W24054  14.343  15.143   1.846  0.0433  0.1649 -0.1265
 3775W        W24055  13.660   6.205   2.863 -0.1358  0.0738  0.0066
 3776W        W24056   2.135   0.383  16.343  0.0733 -0.0424  0.0679
 3777W        W24057   6.455  16.772  14.535 -0.2146  0.0126  0.0121
 3778W        W24058   1.403   3.123   0.670 -0.0288  0.0339 -0.0775
 3779W        W24059  10.081  14.789  16.298  0.0463 -0.0545  0.2170
 3780W        W24060   3.902   0.092   1.959 -0.0043  0.1175 -0.0049
 3781W        W24061   1.345   8.223   0.364 -0.3138  0.3838 -0.0197
 3782W        W24062   6.464  13.900  13.684 -0.1492  0.0192  0.0490
 3783W        W24063   5.281  16.669   0.175 -0.2917  0.1753  0.2015
 3784W        W24064  17.542   3.640   0.784 -0.0901  0.0017  0.0235
 3785W        W24065   4.862  16.267   2.252  0.3414  0.1301  0.2385
 3786W        W24066  10.090   1.712   4.276 -0.0752 -0.2583  0.2515
 3787W        W24067   0.896   5.415  12.215  0.1746  0.1942  0.0635
 3788W        W24068  17.583   5.102   2.186  0.4533 -0.0429  0.1420
 3789W        W24069   0.582  17.008   2.634 -0.0735  0.0079 -0.3550
 3790W        W24070  15.976  14.209  14.001 -0.0333 -0.0823 -0.1775
 3791W        W24071   0.042   4.792   2.583  0.0419  0.0791  0.0397
 3792W        W24072  10.238   0.691  15.836  0.0806  0.0950 -0.0681
 3793W        W24073  10.398  10.895   2.180 -0.0257 -0.0400 -0.1800
 3794W        W24074  16.411   6.668  14.484  0.1178  0.1562  0.0083
 3795W        W24075  13.363   0.052   2.278 -0.0009 -0.3613  0.2627
 3796W        W24076   7.895   0.445   0.442  0.1726  0.2323 -0.4763
 3797W        W24077   4.210  13.045   1.848 -0.0551 -0.0601  0.1090
 3798W        W24078  10.513   0.857   3.045  0.0287 -0.0303 -0.0180
 3799W        W24079  11.907  10.205   0.753  0.1907  0.1332 -0.1867
 3800W        W24080  14.443  15.645   3.104 -0.2492 -0.0371 -0.1060
 3801W        W24081   1.055   0.897  15.659 -0.1703 -0.2083  0.3759
 3802W        W24082  13.850   1.864   3.630  0.0854  0.1149  0.0756
 3803W        W24083  13.556  15.334  13.620  0.0501 -0.3459 -0.0944
 3804W        W24084  12.526   6.334   1.652  0.0996  0.0382  0.1169
 3805W        W24085   2.159  14.039  13.215 -0.0239 -0.2471  0.0134
 3806W        W24086   5.310   5.689  14.562 -0.0384 -0.2193 -0.1974
 3807W        W24087  14.850  10.709   3.280 -0.0125 -0.0246 -0.0933
 3808W        W24088   5.654  12.282  12.181 -0.1014 -0.1168  0.3041
 3809W        W24089   5.963  17.467   1.539  0.1280 -0.0687 -0.2162
 3810W        W24090   5.027   9.848  14.899 -0.1011  0.0829  0.1299
 3811W        W24091   1.109   7.163   4.426  0.0288  0.2107 -0.1051
 3812W        W24092   5.106  17.237   1.486  0.0887 -0.0573  0.1781
 3813W        W24093   6.461   9.614   1.321  0.0966 -0.0091 -0.0839
 3814W        W24094   5.224  17.171   5.098  0.0503  0.0246  0.1231
 3815W        W24095  12.026   4.125  15.958 -0.4325 -0.0531  0.3716
 3816W        W24096   6.840  10.520   3.444  0.3394 -0.0405 -0.1134
 3817W        W24097  11.008   0.536   0.098 -0.2062 -0.0331  0.2160
 3818W        W24098   9.843  11.778  15.510 -0.1935 -0.0126  0.0009
 3819W        W24099   8.958   8.117   4.119  0.2347  0.2155 -0.1039
 3820W        W24100   4.298  11.997  14.079 -0.0483  0.1577  0.4895
 3821W        W24101  17.258  11.361   2.266  0.3581  0.0049  0.1807
 3822W        W24102   1.263  17.335  16.018 -0.3412  0.3050  0.2260
 3823W        W24103  11.075   0.799   1.967  0.3269  0.0179  0.1063
 3824W        W24104  10.894  11.629   1.456 -0.1583 -0.2777 -0.2216
 3825W        W24105  10.172   2.930  16.986  0.0399 -0.0031 -0.0002
 3826W        W24106  10.946   1.109  15.995  0.1844 -0.0818  0.0725
 3827W        W24107   6.391   7.559  16.383  0.0415 -0.1518  0.2198
 3828W        W24108  10.664   6.747  15.573  0.0380 -0.0674  0.1276
 3829W        W24109  11.490   6.821  16.029 -0.0598  0.0537 -0.1376
 3830W        W24110   7.580  11.058   1.846  0.0002  0.1493 -0.0512
 3831W        W24111  11.419  12.350  12.104  0.0278 -0.0983 -0.1144
 3832W        W24112  11.921  13.658   3.328  0.0675  0.0547 -0.0530
 3833W        W24113   0.248   7.746  13.938  0.0972 -0.0685  0.0845
 3834W        W24114   3.291   8.524  16.535 -0.1295 -0.2214  0.1039
 3835W        W24115   8.590   2.304   3.462 -0.0032  0.0512 -0.0012
 3836W        W24116   1.847   8.101   0.413  0.0530  0.2604 -0.0657
 3837W        W24117  14.487   6.603   4.995 -0.2068  0.0383 -0.1121
 3838W        W24118   9.788  12.064   4.924 -0.1841 -0.1427 -0.0487
 3839W        W24119   3.507   4.887   0.811 -0.0948 -0.4054  0.1829
 3840W        W24120  17.420  14.931  16.990 -0.2334 -0.1297 -0.1273
 3841W        W24121   0.272  11.690  13.755 -0.0651  0.0177  0.2721
 3842W        W24122   2.271   0.495   0.141  0.1787 -0.0483 -0.0202
 3843W        W24123  10.952   4.948   2.163  0.1868  0.2898  0.2297
 3844W        W24124  10.336   5.965  13.774  0.0875 -0.1323 -0.1647
 3845W        W24125   1.978  12.217  16.255 -0.0538  0.0538  0.4669
 3846W        W24126   1.047   0.166   1.000  0.0098  0.3589 -0.0227
 3847W        W24127   0.793   1.091  15.314  0.1400  0.0114 -0.1737
 3848W        W24128   2.352   2.675  12.539  0.0427  0.0652 -0.0516
 3849W        W24129   5.045  16.939  13.565  0.4811  0.1570 -0.0421
 3850W        W24130  11.672   7.806  13.010 -0.0828 -0.1896 -0.1944
 3851W        W24131  15.921  12.891  12.727 -0.1026 -0.0632  0.1276
 3852W        W24132   5.227   4.758   5.343  0.0295 -0.1366 -0.1300
 3853W        W24133   6.487   1.746   5.257  0.1212 -0.1152 -0.2430
 3854W        W24134  12.375  13.291   0.832  0.1793 -0.3497 -0.3193
 3855W        W24135   6.798  15.102   1.040 -0.0134  0.2443 -0.2978
 3856W        W24136  11.113   8.049   2.111 -0.0530  0.0502  0.2639
 3857W        W24137  10.325  11.989   4.717 -0.1269 -0.0961 -0.0655
 3858W        W24138  11.557  14.476  13.530  0.1156  0.2567  0.0244
 3859W        W24139  13.285   6.526   0.527  0.0883 -0.0247  0.1391
 3860W        W24140  16.735   4.453  15.245  0.0088 -0.3234 -0.0051
 3861W        W24141   9.242   0.028   3.055 -0.0388 -0.0776  0.3099
 3862W        W24142   0.009   3.384   3.478 -0.2436 -0.3140  0.1133
 3863W        W24143   0.067   6.532   0.934  0.0433  0.0015  0.2022
 3864W        W24144  16.684  13.840  15.482 -0.0448 -0.1287  0.1663
 3865W        W24145  10.498  17.413  12.503 -0.0763  0.0649 -0.1645
 3866W        W24146   1.039  10.394   4.660  0.0931  0.0005 -0.3216
 3867W        W24147   1.280  14.931   1.741  0.0256 -0.2146  0.1336
 3868W        W24148  10.443  13.381  12.417 -0.3894  0.2684  0.4328
 3869W        W24149  13.660  10.044  15.985  0.2570  0.1223  0.0596
 3870W        W24150   6.050  12.231   3.288 -0.0152 -0.0229 -0.1213
 3871W        W24151  17.105   5.251  16.172 -0.1057 -0.0791  0.0281
 3872W        W24152  16.539   6.032  16.854  0.0040  0.0218 -0.5096
 3873W        W24153   4.733  13.085  15.009  0.3257  0.0922 -0.1029
 3874W        W24154  13.539  14.859  13.419 -0.2290  0.0925 -0.1371
 3875W        W24155   1.620  10.794   0.419  0.2346  0.1473 -0.1167
 3876W        W24156  13.515   8.137  14.899 -0.0073 -0.0305  0.2752
 3877W        W24157   4.717   1.607   1.022  0.1666 -0.2419 -0.2397
 3878W        W24158  13.258   6.655  15.080  0.2557 -0.0591 -0.2111
 3879W        W24159   8.448   9.471  15.313  0.2578 -0.1589  0.0725
 3880W        W24160   6.083   8.335   1.668 -0.1351  0.1018  0.0858
 3881W        W24161   8.524   3.910   1.749  0.1543  0.1155  0.1405
 3882W        W24162  16.826  12.520  14.376 -0.2446  0.1272  0.0458
 3883W        W24163   2.882   1.752  12.324  0.2177  0.1790 -0.0298
 3884W        W24164   8.847   8.922   0.421 -0.2248  0.3392  0.0211
 3885W        W24165   8.583   7.063  12.792  0.0147 -0.2429 -0.0486
 3886W        W24166  11.662  10.135  12.722  0.0330 -0.1060  0.0838
 3887W        W24167   3.011   1.961  13.173 -0.3901  0.2151 -0.0264
 3888W        W24168  15.450  12.192  14.734  0.6015  0.0977  0.0539
 3889W        W24169  14.283  10.995   3.425 -0.0351 -0.1052  0.0443
 3890W        W24170  14.511   5.258  14.426  0.1801  0.0321  0.1235
 3891W        W24171   5.567  12.065  13.919  0.4663 -0.1887  0.0434
 3892W        W24172   6.103   4.917  14.259  0.1661 -0.1592 -0.2990
 3893W        W24173   6.304  16.198   0.237 -0.2608 -0.1253  0.2162
 3894W        W24174   7.575  12.974  16.629 -0.0071 -0.1073 -0.0020
 3895W        W24175  17.097  10.147   1.707  0.3617 -0.2182  0.1287
 3896W        W24176   4.490  12.989   4.172  0.0977  0.0316  0.0747
 3897W        W24177   9.406   4.255  12.621 -0.0279  0.1477  0.3222
 3898W        W24178   5.921   7.769   3.052 -0.2128  0.1957  0.2001
 3899W        W24179  15.425  17.560   5.105  0.4195 -0.0521  0.1475
 3900W        W24180  15.245  10.968  16.248  0.4195 -0.1566  0.0537
 3901W        W24181   0.479  11.262  14.055  0.0070 -0.1086  0.3135
 3902W        W24182  12.443   5.009  14.939 -0.2000 -0.3548  0.0748
 3903W        W24183  10.173   1.284  16.077 -0.0051 -0.0571 -0.1250
 3904W        W24184   2.327   6.837  13.161 -0.1236  0.0891  0.0297
 3905W        W24185   0.730   5.125   1.199 -0.3380  0.0680 -0.2167
 3906W        W24186  11.338  17.057  12.814 -0.0215 -0.1540 -0.1262
 3907W        W24187   9.390  17.096  15.667  0.2596 -0.0088 -0.1266
 3908W        W24188   7.568  14.215   2.603  0.0975 -0.0059  0.2048
 3909W        W24189   1.295  17.654   2.594  0.0844  0.1922 -0.2347
 3910W        W24190   1.341   9.843  14.098  0.2039  0.2154  0.0117
 3911W        W24191   2.577   0.891   4.820 -0.1011  0.2543  0.2344
 3912W        W24192  14.097  10.650   2.586  0.0796  0.1858  0.2749
 3913W        W24193   9.473   7.436   4.568 -0.1256 -0.0161 -0.0740
 3914W        W24194  16.732   9.986  12.351  0.0899 -0.1915  0.2322
 3915W        W24195   1.242   4.279   0.386  0.1533 -0.0256 -0.0459
 3916W        W24196  16.710  15.383   1.662 -0.1561 -0.1296  0.0347
 3917W        W24197   8.695   5.493  14.264  0.0866  0.0655 -0.1994
 3918W        W24198  16.496  13.231   4.255 -0.2548 -0.0273  0.0916
 3919W        W24199  13.857  11.704   4.524  0.2521 -0.3438 -0.1438
 3920W        W24200   6.704  15.802   1.854  0.1737 -0.0162  0.1009
 3921W        W24201  15.696  12.831  14.633 -0.4123 -0.0875 -0.1428
 3922W        W24202  12.789   5.566  14.327 -0.0299 -0.0182 -0.1591
 3923W        W24203  16.305   2.206   0.905 -0.0686 -0.2615  0.0233
 3924W        W24204  16.728  17.189  11.973  0.2178 -0.1702  0.2855
 3925W        W24205  12.916  13.423  14.734 -0.1833  0.0920  0.3527
 3926W        W24206   2.527   3.741  16.945  0.1382  0.1745 -0.4646
 3927W        W24207  15.211   8.651  14.183  0.2028 -0.1239 -0.0500
 3928W        W24208   2.193   7.490  14.284  0.1952 -0.0417  0.1371
 3929W        W24209   0.624   2.926   2.239  0.1200 -0.0992  0.1039
 3930W        W24210   6.295   8.671   3.015 -0.0655 -0.1968  0.3437
 3931W        W24211  13.117  10.974  13.775 -0.1616 -0.0391 -0.3532
 3932W        W24212   1.417  10.568  16.199  0.1763  0.1796  0.0140
 3933W        W24213  12.354  12.397   3.115  0.2285 -0.0008 -0.0699
 3934W        W24214   1.620  10.781  12.333  0.4020  0.3403 -0.1642
 3935W        W24215   3.947   3.791   1.710  0.0117 -0.1356 -0.0427
 3936W        W24216  13.003  11.440   4.591  0.0886 -0.1195  0.0348
 3937W        W24217  12.247   7.994  12.363 -0.2970 -0.0303 -0.0807
 3938W        W24218  14.852   9.517   1.338 -0.0222  0.0369 -0.0214
 3939W        W24219   4.530  10.864  14.711  0.0976 -0.0324  0.0304
 3940W        W24220   3.496   1.557  13.461  0.0633 -0.1915  0.1746
 3941W        W24221   3.611  12.740  15.637 -0.2201  0.1467 -0.0065
 3942W        W24222  11.029  16.058  16.096 -0.2793  0.3001  0.0914
 3943W        W24223   3.842  14.253  16.620 -0.1272  0.2414  0.0982
 3944W        W24224  12.904   2.679  12.767  0.1595 -0.1441 -0.5027
 3945W        W24225  14.869   8.422  12.451 -0.2288 -0.2163  0.0609
 3946W        W24226   6.934   8.487   1.767  0.3363  0.1441 -0.0884
 3947W        W24227   6.590   5.073   3.229 -0.0574 -0.0323 -0.0989
 3948W        W24228   2.092  10.503   4.412  0.1234  0.2192 -0.0465
 3949W        W24229  14.395   2.254  14.831  0.3274  0.2157  0.0092
 3950W        W24230  16.439  10.793   5.009  0.2610  0.0496 -0.0506
 3951W        W24231   1.062   1.289   1.452  0.0106 -0.1520 -0.0933
 3952W        W24232   7.333  16.300  16.315  0.0539 -0.2732  0.0901
 3953W        W24233  12.000  14.097   0.317  0.1269  0.1807  0.1666
 3954W        W24234  13.005   7.023   2.289  0.2813  0.2122  0.0217
 3955W        W24235  17.082  10.073   0.334 -0.0190  0.0907  0.1098
 3956W        W24236  13.419  14.268   0.494 -0.0590 -0.2417  0.1516
 3957W        W24237  12.713   3.899   3.007  0.0650 -0.0884 -0.1578
 3958W        W24238   5.899   7.233  14.098  0.2257 -0.0642  0.3590
 3959W        W24239   4.554   4.468   4.934 -0.0683  0.2564  0.2001
 3960W        W24240   7.747  11.716  12.188 -0.0706 -0.1764 -0.0878
 3961W        W24241  15.950   1.650  12.950  0.2476  0.1081  0.1200
 3962W        W24242  11.732   0.383  16.101  0.2164 -0.0278  0.0192
 3963W        W24243   9.515   8.720  16.069 -0.2149 -0.1494 -0.1548
 3964W        W24244  11.391   0.372  16.451 -0.0547  0.0596  0.0539
 3965W        W24245   4.711   9.091   1.670 -0.0809  0.1191  0.2227
 3966W        W24246  10.067  10.383  12.179 -0.0812  0.2816  0.0303
 3967W        W24247   1.110  15.310   0.118 -0.1135  0.1682  0.2914
 3968W        W24248  13.277  13.077  13.671 -0.0381 -0.2644  0.3797
 3969W        W24249   1.312  15.637   2.487  0.1526  0.1627  0.3492
 3970W        W24250   4.704   4.142   4.488  0.2432 -0.1189  0.0912
 3971W        W24251   8.664   5.493  13.140  0.0253  0.0284 -0.0914
 3972W        W24252   1.349   1.679  16.014  0.1200 -0.2227 -0.0821
 3973W        W24253  17.056   0.140   0.635  0.0276  0.0099 -0.0664
 3974W        W24254   4.694  14.375   4.721  0.0636  0.3999 -0.2619
 3975W        W24255  14.024   8.417   4.143  0.1603  0.1533  0.1099
 3976W        W24256   3.314  11.888   0.606  0.0742  0.4025 -0.2097
 3977W        W24257  13.888   3.679  16.463  0.1011  0.1237 -0.1560
 3978W        W24258   9.430  11.257  13.464  0.0662 -0.0495  0.1416
 3979W        W24259   4.400  16.403  14.921 -0.4323 -0.1272 -0.0402
 3980W        W24260  12.752  15.861  14.854  0.0354 -0.1571 -0.2633
 3981W        W24261   6.673  14.806  15.537 -0.1261  0.0231  0.3178
 3982W        W24262  17.056  14.775   4.207  0.0289  0.1110  0.0534
 3983W        W24263   6.740   2.160  13.871  0.0483 -0.1913 -0.0138
 3984W        W24264  10.390   1.394   2.635  0.0452  0.0433  0.0737
 3985W        W24265   5.645   2.382   3.589  0.0562  0.2337  0.1022
 3986W        W24266  15.721  11.883   2.007 -0.0423 -0.2164  0.1153
 3987W        W24267  15.960  10.641   3.969  0.0824  0.0416  0.0635
 3988W        W24268   6.556   3.694  16.768 -0.2255  0.2074 -0.2043
 3989W        W24269   9.013   4.498  16.064  0.0443 -0.0285  0.1001
 3990W        W24270   8.300  14.659  14.378 -0.0967  0.0281 -0.5264
 3991W        W24271   9.617   0.459  15.606  0.1760 -0.0117  0.2435
 3992W        W24272   9.916  13.877   0.619  0.1039 -0.0055 -0.2109
 3993W        W24273  15.900   8.277   1.627 -0.0698  0.1299  0.0925
 3994W        W24274   6.381  15.777  16.877 -0.1452  0.3061  0.0838
 3995W        W24275  13.034  12.300   2.504  0.0304  0.0656  0.0497
 3996W        W24276   2.282  16.876  13.909  0.0115 -0.0268  0.1729
 3997W        W24277  15.088  16.343   4.791 -0.1396 -0.1654 -0.0626
 3998W        W24278  12.717   0.727  13.354  0.2407  0.1369  0.2051
 3999W        W24279  12.890  11.342   2.361 -0.1140  0.1697  0.0261
 4000W        W24280   7.627  16.582  14.546  0.1613  0.2572 -0.0554
 4001W        W24281   6.469  11.032   4.885 -0.1058 -0.4231 -0.0669
 4002W        W24282   4.301  14.408   2.826  0.2167 -0.1404 -0.0772
 4003W        W24283   9.289   6.321   3.344  0.3347  0.2054 -0.1814
 4004W        W24284  10.077   9.393  16.466  0.2595 -0.1428 -0.1469
 4005W        W24285   0.043  12.571  14.120 -0.0153 -0.0470 -0.0181
 4006W        W24286   8.477   2.152   0.889  0.1164  0.0072  0.2488
 4007W        W24287   9.009   9.143   4.621  0.2948 -0.0803 -0.0020
 4008W        W24288   8.450   1.749  16.625 -0.3416 -0.2678  0.1407
 4009W        W24289   5.870   9.952   1.755  0.2954 -0.0215 -0.0083
 4010W        W24290  14.643   6.336  13.244  0.1967 -0.1258  0.1697
 4011W        W24291   7.795   8.414  13.322 -0.1188  0.1953  0.0699
 4012W        W24292  13.982  10.478  15.755 -0.0247 -0.1610  0.3852
 4013W        W24293   8.114  10.887  14.878 -0.2028 -0.3026 -0.0724
 4014W        W24294  14.277   7.802  16.740 -0.1181 -0.2290  0.1138
 4015W        W24295  15.825  11.625  12.680  0.0691  0.0253  0.0857
 4016W        W24296  14.567  10.237   0.722  0.0737  0.2678 -0.0921
 4017W        W24297  17.438   6.368   0.216 -0.0406 -0.2660  0.0084
 4018W        W24298   3.770   5.532  12.458 -0.1161 -0.1555 -0.2346
 4019W        W24299   9.412  15.649  14.225 -0.0350 -0.0434 -0.3758
 4020W        W24300   7.125  15.264   2.331  0.1490 -0.4284  0.3850
 4021W        W24301  11.457  12.318  12.708  0.0030 -0.1512 -0.0721
 4022W        W24302  13.977  11.851  14.052  0.2617  0.1107 -0.0070
 4023W        W24303  13.460  12.606   3.353 -0.0412  0.1134  0.1921
 4024W        W24304   3.488   2.223   1.135 -0.0065 -0.0548  0.2461
 4025W        W24305   3.365   4.799   3.397  0.0943 -0.1558  0.0897
 4026W        W24306   1.722   5.662  12.312 -0.1708  0.0367 -0.0070
 4027W        W24307   0.780   8.416  12.545 -0.3953  0.0596  0.3679
 4028W        W24308   6.688  13.547   6.171  0.0269  0.2254  0.0943
 4029W        W24309   9.397   8.149   1.218  0.2869  0.0287 -0.0536
 4030W        W24310  16.434   7.542  16.100  0.0376 -0.0811 -0.0123
 4031W        W24311  11.631  15.674  13.372  0.0648 -0.0897  0.2523
 4032W        W24312  14.090  17.580  15.035 -0.0315 -0.0696  0.1850
 4033W        W24313   5.173  17.021  16.887 -0.1355 -0.1813 -0.1489
 4034W        W24314   4.949  13.308   2.867  0.1718 -0.1413  0.0439
 4035W        W24315  16.518   3.488   2.158 -0.2054 -0.0555  0.1996
 4036W        W24316  14.177  14.958  16.226 -0.1104  0.0067 -0.1255
 4037W        W24317   1.701   7.006   2.459 -0.0762  0.0494 -0.1315
 4038W        W24318  10.642  17.139   4.148  0.0890  0.1171  0.0664
 4039W        W24319  15.872   4.232   0.506 -0.2282 -0.1467  0.1552
 4040W        W24320  10.738   2.208  15.190  0.0467  0.2535  0.0536
 4041W        W24321   6.702  10.643  11.680  0.0566 -0.3728  0.1291
 4042W        W24322   1.463   1.705  16.950 -0.0282  0.0686  0.0198
 4043W        W24323  13.604   4.819   4.224 -0.1965  0.2194 -0.0610
 4044W        W24324   0.832  15.313  12.986 -0.1076  0.1196 -0.1736
 4045W        W24325  16.782   0.071  15.398  0.2464  0.0247  0.4223
 4046W        W24326   8.336   6.333  13.721 -0.2423 -0.0158  0.0792
 4047W        W24327  16.646   4.448  17.008 -0.0434  0.1130  0.1515
 4048W        W24328  16.502   6.862   3.982  0.6078 -0.0114  0.0962
 4049W        W24329   3.877  12.774  12.545  0.1756  0.0505 -0.1387
 4050W        W24330   3.427  11.735   3.488  0.1760  0.0079 -0.0997
 4051W        W24331  11.830   1.478  14.587  0.1747 -0.0613  0.2689
 4052W        W24332   8.050   0.406  16.700 -0.1002  0.0139 -0.2129
 4053W        W24333  10.129   1.848   1.027  0.2800  0.1977 -0.1187
 4054W        W24334   1.399  10.379   1.251  0.0290 -0.0497  0.1551
 4055W        W24335   0.381   5.166   2.295 -0.3554 -0.2650 -0.2332
 4056W        W24336   9.434  13.607  12.525  0.2717  0.1075 -0.1422
 4057W        W24337   9.284   9.413   4.198 -0.0135 -0.1874  0.0753
 4058W        W24338  11.426   2.314   2.740  0.3499 -0.0732  0.0203
 4059W        W24339   4.789   6.553  12.640 -0.0574  0.0315  0.1481
 4060W        W24340   7.299   8.174   5.469 -0.0178 -0.2168  0.2212
 4061W        W24341   2.979  11.383  14.139 -0.2966 -0.0495  0.0725
 4062W        W24342   6.572  13.586  14.599 -0.3709 -0.0200 -0.0722
 4063W        W24343   9.240  13.313  15.123  0.0338 -0.1208  0.0422
 4064W        W24344  10.136   1.757   1.842  0.1609  0.0858 -0.1051
 4065W        W24345  11.714   9.489   4.346  0.3438  0.0583  0.3604
 4066W        W24346   8.122  12.180  16.131 -0.2316  0.1334 -0.1929
 4067W        W24347  16.256  10.261  15.417  0.0341  0.0993 -0.0251
 4068W        W24348   5.848  13.101  13.510  0.5283  0.3557 -0.0420
 4069W        W24349   3.710   7.506  13.106 -0.0030 -0.0408  0.2368
 4070W        W24350  13.878  15.286   3.654 -0.1239  0.2557  0.1666
 4071W        W24351   8.718  13.846  15.404 -0.2144  0.1621  0.1022
 4072W        W24352  13.102   7.810   1.315  0.1103 -0.0040 -0.2122
 4073W        W24353  12.595   2.827   3.407  0.0477 -0.0502 -0.3317
 4074W        W24354   1.011   0.037   5.009 -0.1445  0.2575 -0.3371
 4075W        W24355   8.308   2.094  16.906  0.0687 -0.2279 -0.3048
 4076W        W24356   0.490  10.670  14.772  0.4386  0.0699 -0.2667
 4077W        W24357  13.965  10.605  13.540  0.0072  0.3057 -0.0135
 4078W        W24358   2.749   1.878   4.418 -0.0881 -0.0277 -0.2466
 4079W        W24359   8.999   1.714  15.331 -0.0361  0.3366 -0.0617
 4080W        W24360   4.403  17.009  14.464 -0.0251  0.0666  0.0151
 4081W        W24361   9.985  17.653  14.100  0.4317  0.1257  0.0254
 4082W        W24362   5.264   8.113  13.322  0.0197 -0.0650 -0.2057
 4083W        W24363  16.053  14.825  12.868 -0.3408  0.3346 -0.0933
 4084W        W24364  12.089   0.994  14.031 -0.0436  0.1002  0.0044
 4085W        W24365   4.933   6.627   3.223  0.2517 -0.1720  0.0638
 4086W        W24366  10.461  11.981   2.415 -0.0300  0.1415  0.0048
 4087W        W24367   3.569   2.275  12.667  0.0351 -0.2290 -0.0110
 4088W        W24368   6.612  15.317   3.296 -0.3972 -0.1952 -0.0241
 4089W        W24369   9.980  15.636   4.087 -0.1925  0.2254 -0.0537
 4090W        W24370  16.196   0.961   0.753 -0.1952 -0.0064  0.0720
 4091W        W24371   1.055   4.289   2.643  0.0263  0.0925  0.0826
 4092W        W24372  16.386  14.724  12.299  0.2626  0.2941  0.2185
 4093W        W24373   4.342  16.453   4.025  0.1344  0.2958 -0.3543
 4094W        W24374   6.363   6.012  16.533  0.0680 -0.5647  0.0277
 4095W        W24375   5.956   8.970   0.779  0.0604  0.1002  0.0147
 4096W        W24376   1.324   1.581  13.650  0.0413 -0.0129  0.0938
 4097W        W24377  14.708   1.966  16.389 -0.0063 -0.0839  0.1793
 4098W        W24378   6.862   9.679  13.752 -0.0316  0.1025 -0.0280
 4099W        W24379   9.254   1.919  16.603  0.2885 -0.0503  0.0386
 4100W        W24380  17.295   0.042  12.423 -0.1959  0.1391 -0.1518
 4101W        W24381   4.459   0.756  12.191  0.0975 -0.1408 -0.2282
 4102W        W24382   9.254   1.584  16.212 -0.1940  0.0464  0.2434
 4103W        W24383   4.816  10.235   0.390  0.0403 -0.0537  0.0622
 4104W        W24384   0.949  14.159   0.601  0.1172  0.1257  0.1014
 4105W        W24385   0.688  15.653  12.557  0.3425  0.1184  0.1393
 4106W        W24386  15.671   0.893  16.613 -0.1861  0.0129  0.0812
 4107W        W24387  13.199   0.599   1.075  0.2450  0.2280  0.0306
 4108W        W24388   1.472  14.680  15.704 -0.1240  0.0297  0.1521
 4109W        W24389   7.561   5.240  12.522  0.2940  0.1106  0.2998
 4110W        W24390   5.327  17.491  12.637  0.2515  0.0930 -0.0855
 4111W        W24391  15.849   2.958   1.197 -0.0562 -0.2004  0.0334
 4112W        W24392  10.759  15.569  12.609 -0.0681  0.2265 -0.0559
 4113W        W24393  13.838   8.828   5.037 -0.0929 -0.3168 -0.5781
 4114W        W24394  16.660   8.020  14.655 -0.1984  0.0334 -0.0590
 4115W        W24395   9.064  16.431  14.546 -0.0839  0.1326 -0.0361
 4116W        W24396   9.511  12.665  11.273 -0.1202  0.1398  0.1883
 4117W        W24397   9.007   8.315  14.504 -0.0656 -0.4603 -0.2944
 4118W        W24398  14.306   6.233   1.456 -0.1749  0.1274 -0.1265
 4119W        W24399  13.535  10.689   2.625 -0.2577 -0.0670  0.1397
 4120W        W24400   5.360  13.759  14.687  0.1896  0.1938 -0.1151
 4121W        W24401   6.836  14.266  13.740  0.0637 -0.0892 -0.2288
 4122W        W24402   3.602   9.007   0.809  0.1022  0.4333  0.4330
 4123W        W24403   7.464  14.038  15.601 -0.3166 -0.0251  0.2189
 4124W        W24404   9.272   3.798  12.652  0.2633 -0.1321  0.1947
 4125W        W24405   9.915   2.122   3.830  0.1629 -0.0444 -0.0067
 4126W        W24406  10.362   5.318  16.446  0.0291 -0.0081 -0.0192
 4127W        W24407   6.505   2.778   4.267  0.1299 -0.2573 -0.0553
 4128W        W24408   0.045   1.495   1.327  0.0706  0.1492  0.0440
 4129W        W24409   4.664   7.527  16.743 -0.1670 -0.1857  0.0186
 4130W        W24410   9.878  14.746  16.788  0.2312  0.1865  0.3045
 4131W        W24411   6.859   4.366  14.147 -0.1343 -0.0083  0.1459
 4132W        W24412  16.626   0.619  16.897 -0.2016  0.2976 -0.1647
 4133W        W24413  16.254   8.313   4.075  0.0631 -0.0352 -0.1707
 4134W        W24414   3.070  17.589  12.792 -0.1185  0.2411 -0.2166
 4135W        W24415  13.543  10.208  16.466 -0.2170 -0.2261  0.2970
 4136W        W24416  14.010  10.579   3.273 -0.0212  0.2883  0.1983
 4137W        W24417  13.013  16.548  11.157 -0.1595 -0.1404  0.0492
 4138W        W24418   6.124  15.782   1.832 -0.1854  0.1501  0.0879
 4139W        W24419  17.576   4.659  15.682 -0.1973  0.1719 -0.1450
 4140W        W24420   7.033  13.814   2.020  0.3088  0.0518 -0.5142
 4141W        W24421   1.395   8.069  15.826 -0.2682 -0.1641 -0.1164
 4142W        W24422   8.922   5.622   4.407  0.2940  0.0040 -0.2794
 4143W        W24423   5.232   2.609   4.384 -0.0184 -0.0983 -0.1339
 4144W        W24424   7.845  11.111   2.312 -0.0186  0.1503 -0.0296
 4145W        W24425  17.467  12.386  12.053 -0.1403 -0.1443  0.3704
 4146W        W24426  14.429  16.403  12.943  0.0459 -0.0236  0.4122
 4147W        W24427  16.305  10.132   0.776  0.0563  0.0058 -0.2295
 4148W        W24428  12.244  11.044   2.507 -0.2062 -0.1372 -0.2307
 4149W        W24429   4.494  10.873   4.686 -0.0774  0.3552  0.0162
 4150W        W24430   1.725   1.440   3.696  0.1543 -0.0963  0.0031
 4151W        W24431   9.119   0.384  15.431  0.1263  0.5004  0.1559
 4152W        W24432  13.207   3.445   3.846 -0.0050  0.0951  0.0278
 4153W        W24433   6.373   1.772  12.202 -0.2417 -0.0818 -0.0977
 4154W        W24434   0.550   9.476   0.269  0.0749  0.0321  0.3431
 4155W        W24435   5.746  12.349   3.912  0.0191  0.2687 -0.3934
 4156W        W24436  17.180  14.167   3.155 -0.1121  0.1023 -0.1333
 4157W        W24437   0.480   6.421  16.508 -0.1597 -0.0127 -0.1185
 4158W        W24438   5.105  14.459  12.237 -0.2698  0.1478 -0.4386
 4159W        W24439   2.150   4.495   2.606 -0.1187 -0.1369  0.1092
 4160W        W24440   2.864  13.509  13.416  0.1368 -0.0170 -0.0015
 4161W        W24441   5.258  13.381  13.680 -0.2058 -0.1314  0.1243
 4162W        W24442   1.017  11.398   1.973 -0.0632  0.0175 -0.2656
 4163W        W24443   6.556  14.693  13.234  0.2513  0.0003  0.3550
 4164W        W24444  16.200  17.081   3.842  0.1565  0.0239 -0.3431
 4165W        W24445  11.965   6.058  15.067  0.1616 -0.0566 -0.0217
 4166W        W24446  17.008   6.983   3.678  0.2721  0.1560  0.0144
 4167W        W24447  11.950   7.568  13.902  0.1218 -0.0177  0.0600
 4168W        W24448  14.521   4.399  14.840 -0.0417 -0.1308 -0.1815
 4169W        W24449   4.492   6.264  14.571  0.2489 -0.0104 -0.2513
 4170W        W24450   0.444   6.286  12.526 -0.2228 -0.1073 -0.0342
 4171W        W24451   3.520  14.575  15.317 -0.2934  0.0870  0.0981
 4172W        W24452  15.806   5.952  14.247 -0.2476  0.2581 -0.0188
 4173W        W24453  10.089   5.872  14.186 -0.1064  0.4868 -0.2657
 4174W        W24454   5.130  15.846   3.762  0.0701  0.0616 -0.0786
 4175W        W24455  10.125   7.993   4.929 -0.0639  0.0817 -0.0826
 4176W        W24456   9.930   4.279  16.481  0.0316  0.0326  0.2474
 4177W        W24457  10.296  11.763  11.964 -0.3021 -0.1353 -0.0026
 4178W        W24458   9.593  11.937  12.066  0.3143  0.0516 -0.0834
 4179W        W24459  16.460  12.215  14.531  0.0097 -0.2178  0.1324
 4180W        W24460  17.414   2.550   4.128  0.5119 -0.0009  0.0991
 4181W        W24461  13.843   8.007  16.411 -0.1363  0.1537 -0.0299
 4182W        W24462   9.991  13.949   4.558  0.0240 -0.1885  0.1767
 4183W        W24463   3.296  12.197  16.322  0.2174  0.1031  0.1642
 4184W        W24464   7.413  13.162   4.478  0.3165  0.0385  0.1092
 4185W        W24465   8.099   7.976  15.543 -0.2073  0.0355 -0.2912
 4186W        W24466   8.414  16.422   2.298 -0.4921  0.0985 -0.2632
 4187W        W24467   1.739  11.361  15.040 -0.1030  0.0893 -0.0884
 4188W        W24468   1.210   3.108  13.882  0.0388 -0.1094  0.0655
 4189W        W24469   8.538  12.092  12.059  0.0293 -0.0494 -0.3788
 4190W        W24470  16.129  16.498   5.373 -0.2957 -0.1360  0.3888
 4191W        W24471  15.130  15.218  15.622 -0.2290 -0.1119 -0.0108
 4192W        W24472   6.566   2.743  16.329 -0.2826  0.0680  0.1673
 4193W        W24473  14.668  12.105   0.079 -0.4371 -0.3881  0.2326
 4194W        W24474  13.003   1.174  14.857  0.2183 -0.4364  0.0171
 4195W        W24475   9.540   7.987  12.498  0.1208  0.1302  0.3468
 4196W        W24476  16.832  12.352  16.987 -0.0354 -0.1749 -0.0593
 4197W        W24477   6.131  17.122   4.225  0.0512 -0.1674  0.2624
 4198W        W24478   0.329   4.231  12.149 -0.3313  0.2216 -0.2258
 4199W        W24479   6.110  10.835  14.153 -0.0209  0.3229  0.0666
 4200W        W24480   4.834   8.017   2.893  0.0341 -0.1887 -0.5305
 4201W        W24481  15.593  13.929  13.687  0.1462  0.0949  0.2028
 4202W        W24482   9.359  17.048   2.291  0.0334 -0.0245 -0.1861
 4203W        W24483   7.313  12.226   0.181  0.1593 -0.3128 -0.0493
 4204W        W24484  15.475   2.867   1.876  0.0633 -0.0405  0.0470
 4205W        W24485   1.951   5.116   0.787 -0.1583  0.0520  0.0478
 4206W        W24486  17.275   2.164   0.047  0.0090 -0.1105  0.1947
 4207W        W24487  14.000  15.768   3.870 -0.0160  0.1726 -0.0561
 4208W        W24488   1.390   7.250  16.504  0.2560 -0.0452  0.1324
 4209W        W24489   4.260  14.380  14.767  0.0822 -0.0776 -0.1987
 4210W        W24490  14.229   9.455  13.023 -0.1344 -0.0915 -0.0294
 4211W        W24491   9.426  10.988  15.788 -0.0984 -0.0451  0.0543
 4212W        W24492   7.198   3.473   4.848  0.1430 -0.2094 -0.2286
 4213W        W24493  11.372   0.028  16.056  0.1142  0.1312  0.0045
 4214W        W24494  15.991   5.198   1.562  0.0655  0.1455 -0.1443
 4215W        W24495   2.140   0.834  15.315  0.0767  0.0581 -0.4009
 4216W        W24496  15.836   8.605  15.242  0.4137 -0.0632  0.1484
 4217W        W24497   8.149   3.920  15.810  0.0727 -0.0213 -0.0926
 4218W        W24498   9.586  11.360   1.091  0.2960  0.1068  0.2327
 4219W        W24499   0.107  16.365  14.007 -0.1148  0.1956  0.2261
 4220W        W24500  14.904  11.468  12.214  0.0703  0.0951 -0.0192
 4221W        W24501   3.160  11.292   3.706  0.2341  0.0458  0.0400
 4222W        W24502   0.247  10.472  12.679  0.1060 -0.0211 -0.0791
 4223W        W24503  14.280   2.358  12.853  0.0275  0.3428  0.1808
 4224W        W24504   8.608   2.684  15.526  0.4508 -0.2966 -0.0131
 4225W        W24505  12.441  14.936  12.528  0.1304  0.1296  0.0290
 4226W        W24506   8.174   3.534   0.989  0.1713  0.0451  0.0500
 4227W        W24507  11.433  13.686   4.130  0.3688 -0.2717  0.2517
 4228W        W24508  15.841   9.272   0.357 -0.2587 -0.0932  0.0969
 4229W        W24509   2.634   0.128  12.923 -0.0971  0.1523  0.1677
 4230W        W24510   2.089  12.868  15.547  0.0689 -0.0912  0.0909
 4231W        W24511  15.214  10.359   1.925  0.2240 -0.0287 -0.1366
 4232W        W24512   1.158  17.181   3.719 -0.1933  0.1210  0.2364
 4233W        W24513   3.421   3.970   3.906 -0.2182  0.0119 -0.0777
 4234W        W24514   8.790  16.267  16.599 -0.0185 -0.1253 -0.0389
 4235W        W24515  12.117   0.120  12.932  0.0178  0.0132 -0.1041
 4236W        W24516   5.004   9.488  13.313  0.0432  0.0949 -0.2036
 4237W        W24517   9.158   1.272   3.730 -0.3538 -0.0568  0.2264
 4238W        W24518   7.555  10.278  12.733  0.3296 -0.3476 -0.0824
 4239W        W24519   4.013   6.111   4.608  0.1473 -0.1698  0.0186
 4240W        W24520   1.057  13.452   2.536  0.1987  0.4499  0.1228
 4241W        W24521  16.648   4.387  15.882  0.0621 -0.4627  0.1090
 4242W        W24522  11.732  17.546  15.541  0.1288  0.0192  0.3439
 4243W        W24523   9.528  12.250  14.726  0.2091 -0.0529  0.0108
 4244W        W24524  16.001  14.371  15.409 -0.0198 -0.0473 -0.1704
 4245W        W24525  13.027  10.528  15.592  0.3919  0.2014  0.3204
 4246W        W24526   2.594  13.062   0.223  0.0603  0.1136 -0.1265
 4247W        W24527   3.108  16.898   3.827 -0.2701  0.2491 -0.0422
 4248W        W24528   2.417   9.912   1.530  0.0421  0.2026  0.0017
 4249W        W24529  17.176  11.834   4.001 -0.1331  0.1520 -0.1403
 4250W        W24530   8.711  10.776   4.673 -0.1143 -0.1912 -0.2023
 4251W        W24531   5.608   7.948  13.668  0.1695 -0.1136 -0.0653
 4252W        W24532   1.484   5.900  15.164 -0.0037 -0.0779  0.0714
 4253W        W24533   6.598  10.402  13.015  0.0377  0.4788 -0.0668
 4254W        W24534   9.081  11.877  12.050  0.1990  0.1948 -0.0411
 4255W        W24535   3.014   5.491  16.500  0.0366 -0.0996  0.1427
 4256W        W24536  15.782   1.830   3.662  0.0237  0.1891 -0.2525
 4257W        W24537   2.012   6.074   1.228  0.2673  0.1896  0.4181
 4258W        W24538   4.668  14.414  15.171  0.1645  0.3438 -0.0165
 4259W        W24539   9.189  12.829  15.229  0.0317 -0.0954 -0.1193
 4260W        W24540  12.298   7.444  15.880 -0.1253 -0.0100  0.1356
 4261W        W24541  14.506   6.095   2.022  0.2530 -0.1898  0.2778
 4262W        W24542   7.928   7.633   0.312 -0.2513 -0.1054  0.0811
 4263W        W24543   2.822  11.926   2.141 -0.0998  0.0890  0.1615
 4264W        W24544   2.720   3.976   1.385 -0.0355  0.0543 -0.3987
 4265W        W24545  10.587   6.079  14.822  0.1086 -0.1208  0.1510
 4266W        W24546   2.887  17.474  15.145  0.2124 -0.1742  0.0407
 4267W        W24547   6.707   7.513  15.190  0.0332 -0.1837  0.2591
 4268W        W24548  15.318   6.085   2.341 -0.1045  0.1979  0.0079
 4269W        W24549   4.271  12.316  16.818 -0.0705  0.1536 -0.2009
 4270W        W24550   6.966   4.775   1.899 -0.0859  0.1403  0.0486
 4271W        W24551  16.197   0.067  15.464  0.1419  0.0819  0.1079
 4272W        W24552   7.233  13.902   0.249 -0.3725  0.0632 -0.0484
 4273W        W24553  13.242   5.970  15.420 -0.0089 -0.1902  0.2360
 4274W        W24554  10.419  10.943   3.962 -0.3474 -0.0122 -0.4437
 4275W        W24555   8.269  10.877   1.874 -0.1942 -0.2363  0.0324
 4276W        W24556  16.819  16.045   2.775 -0.1809  0.2315  0.1034
 4277W        W24557   4.164  11.434   0.120  0.0576 -0.2856  0.0310
 4278W        W24558   7.840   2.943  12.714 -0.0712  0.0535  0.0313
 4279W        W24559   1.675  10.564   0.870 -0.0363  0.0783 -0.4596
 4280W        W24560   9.797   0.981   1.987 -0.0915 -0.2427 -0.1458
 4281W        W24561   9.933   8.620   4.189 -0.0604  0.0387 -0.1055
 4282W        W24562  14.915  12.227   3.883 -0.0068 -0.1863  0.2360
 4283W        W24563   5.167  17.715   1.445 -0.3044  0.1931 -0.1360
 4284W        W24564   2.435  15.204  12.309  0.1604 -0.0652  0.2617
 4285W        W24565   8.454   4.687   0.425  0.0666 -0.2829  0.4802
 4286W        W24566  14.147   2.786  12.492  0.3732  0.2818  0.4181
 4287W        W24567   8.331  16.038   2.595  0.0841  0.0232 -0.2876
 4288W        W24568  15.242   6.191  16.821 -0.2314 -0.1034 -0.0827
 4289W        W24569  16.658  15.969   4.899 -0.1317  0.0132  0.1786
 4290W        W24570  17.701  12.474  16.345  0.1163 -0.1355 -0.3087
 4291W        W24571   9.195  16.905  14.881 -0.1067 -0.1083 -0.0576
 4292W        W24572   5.704  16.137   2.336  0.1679 -0.1528  0.1423
 4293W        W24573   1.168   3.138   4.648 -0.0559 -0.1275  0.1081
 4294W        W24574   2.314   5.147   1.455  0.0737 -0.0227 -0.3291
 4295W        W24575  17.488   9.637  16.715 -0.0152  0.1452 -0.3304
 4296W        W24576   4.904   2.699   0.942  0.1122  0.0290  0.2162
 4297W        W24577   3.096  11.960  12.497 -0.1633 -0.1519  0.0172
 4298W        W24578  12.056   5.201  16.558  0.1688 -0.0581  0.1551
 4299W        W24579  11.334   9.307   1.720 -0.2090 -0.4969  0.0434
 4300W        W24580  16.414   3.617  15.129 -0.0481  0.3241 -0.0306
 4301W        W24581   4.650   1.642  11.875  0.0407  0.1557  0.2190
 4302W        W24582   1.564   9.788  15.901  0.2187  0.0041 -0.1892
 4303W        W24583   9.692   1.595   1.815 -0.0660  0.6346  0.2321
 4304W        W24584  11.136  11.318  15.748  0.0675  0.1719  0.2491
 4305W        W24585  11.172  16.579  11.890 -0.0725  0.0109  0.0630
 4306W        W24586  10.342   3.931  14.130 -0.0718  0.0991 -0.1039
 4307W        W24587   7.817   8.701  15.586 -0.1433  0.0541  0.0834
 4308W        W24588   2.831   5.904   4.757  0.0264  0.1052  0.1821
 4309W        W24589   8.771  10.771   5.175 -0.0731 -0.2246  0.1672
 4310W        W24590  11.071   8.944   3.912 -0.3453 -0.0564  0.0996
 4311W        W24591   0.782   6.318  13.902  0.3811  0.6764 -0.0461
 4312W        W24592   1.314   4.847  13.661  0.1711 -0.1922  0.0917
 4313W        W24593   3.934   2.619   2.028  0.0769  0.1041  0.5051
 4314W        W24594   2.223   4.934   2.350 -0.0917  0.2294  0.2906
 4315W        W24595  13.315  14.328   5.756 -0.2332 -0.1192 -0.0452
 4316W        W24596   2.482   4.139  14.125  0.3167 -0.0395  0.1298
 4317W        W24597   7.670  14.394  16.576 -0.0225 -0.2522  0.1518
 4318W        W24598  16.957   5.686  15.138 -0.0225  0.0558  0.1316
 4319W        W24599  11.800  15.734   0.052 -0.2407 -0.3620 -0.0812
 4320W        W24600   6.652   4.485   3.213  0.2566  0.0864  0.0266
 4321W        W24601  11.912   9.260   4.774  0.4056  0.1174 -0.4520
 4322W        W24602   3.289  15.960   1.211  0.1327 -0.1059 -0.2660
 4323W        W24603   5.320   4.700   3.375 -0.1070 -0.0852 -0.2032
 4324W        W24604  10.886  10.778  12.589  0.0616 -0.1732 -0.1046
 4325W        W24605  17.228   5.298  15.251 -0.1640 -0.0499  0.0891
 4326W        W24606  10.665   1.873  12.884  0.0405  0.1650 -0.1066
 4327W        W24607   2.740  13.819  14.959 -0.0686  0.0505 -0.3253
 4328W        W24608   1.467   2.646   2.412 -0.3565 -0.1744  0.0065
 4329W        W24609  13.334   8.919  13.195  0.0597 -0.3075  0.0545
 4330W        W24610   4.978  12.371   0.601  0.4214  0.2474 -0.0587
 4331W        W24611  16.854  14.972  14.229  0.3723 -0.1633  0.3299
 4332W        W24612   7.023   0.317   5.848 -0.0630 -0.0343 -0.2773
 4333W        W24613   3.329   3.168  14.393  0.2438 -0.1158 -0.1918
 4334W        W24614  16.933  12.891   4.893  0.2195 -0.1140  0.1882
 4335W        W24615   9.966   7.935   3.704  0.1138 -0.0205  0.1686
 4336W        W24616   7.535   6.048   3.275  0.0795  0.0798  0.0170
 4337W        W24617  16.807   6.255  12.999  0.0975  0.1575 -0.0616
 4338W        W24618  15.877  11.804   3.488  0.0933 -0.0773  0.0271
 4339W        W24619   4.028  14.421   2.233 -0.1658 -0.0475  0.0522
 4340W        W24620   2.228   2.352  13.464 -0.0213 -0.0672 -0.1625
 4341W        W24621  12.491   1.442  14.933 -0.0981  0.5519 -0.1826
 4342W        W24622   8.377   8.235   4.313 -0.1270 -0.1406  0.2162
 4343W        W24623   5.514   1.693  13.311  0.1839 -0.0688  0.0263
 4344W        W24624  17.527  10.537   1.590 -0.0267  0.4045  0.0339
 4345W        W24625   7.575  11.283   0.385  0.2708 -0.0148  0.1418
 4346W        W24626   9.898   6.937  15.017  0.1188 -0.2811  0.1583
 4347W        W24627   5.319   7.154  15.145  0.1988  0.1014 -0.0911
 4348W        W24628   0.218  13.726   3.271 -0.0888  0.4465 -0.2610
 4349W        W24629   7.135  16.845   3.124 -0.0743  0.1147  0.2160
 4350W        W24630   6.220   1.408  15.942 -0.2089  0.1338 -0.2628
 4351W        W24631   8.878  10.480  16.563 -0.0669 -0.0035 -0.0500
 4352W        W24632  17.489   5.791  16.096 -0.4095  0.1676  0.3471
 4353W        W24633  17.036  11.607  14.208  0.0902  0.1672 -0.1139
 4354W        W24634   6.245  13.149  13.189  0.1900 -0.4529 -0.1046
 4355W        W24635  17.252  12.263  14.149  0.5401  0.0491  0.1030
 4356W        W24636  16.755   0.090   4.151 -0.0741 -0.2754  0.0554
 4357W        W24637  15.740  16.762   0.198  0.0168 -0.1669 -0.0388
 4358W        W24638   7.269  13.426   0.640 -0.2537 -0.0679 -0.1087
 4359W        W24639   8.409   4.939   3.427 -0.0723  0.4993 -0.2145
 4360W        W24640   4.388   9.689   4.624  0.1557 -0.4471 -0.0466
 4361W        W24641  12.331   1.881   0.088  0.1891  0.0086 -0.0419
 4362W        W24642   7.520   3.238   2.269  0.2638 -0.1221  0.3666
 4363W        W24643   6.844   5.087   4.252  0.1195 -0.4076 -0.3241
 4364W        W24644  10.776  10.824   1.863  0.1080 -0.1743  0.2078
 4365W        W24645   5.488  11.108  12.916 -0.2020  0.3233 -0.1658
 4366W        W24646   3.091  11.710  13.326 -0.0152 -0.2019  0.0237
 4367W        W24647   7.066   6.162   2.626 -0.0736 -0.3585  0.0489
 4368W        W24648   3.535  11.882  15.608  0.0144 -0.1424  0.2486
 4369W        W24649   6.201  11.718  16.488  0.0376 -0.0108  0.4375
 4370W        W24650  15.421   9.829   0.985  0.1789  0.2410 -0.1115
 4371W        W24651  12.593  12.988   1.362 -0.3668  0.1222  0.0212
 4372W        W24652   8.765   8.310  13.203  0.0319 -0.0114 -0.0260
 4373W        W24653  16.691  16.216  14.895  0.0710  0.1968  0.1270
 4374W        W24654   9.732   1.913  15.534 -0.3103 -0.0646  0.1748
 4375W        W24655  17.090  10.493   5.349 -0.0446 -0.1291 -0.2297
 4376W        W24656   4.913   6.546   0.229 -0.3577 -0.1934 -0.1887
 4377W        W24657  10.877   0.465   2.336  0.0790  0.0816  0.1573
 4378W        W24658   3.484  11.767  16.328 -0.3195 -0.2174 -0.3167
 4379W        W24659  15.871   8.367  12.326  0.1119  0.1175 -0.0053
 4380W        W24660   3.258  17.195  12.267  0.0969 -0.1712  0.0645
 4381W        W24661  10.239  10.858  12.159 -0.1644 -0.2710 -0.0456
 4382W        W24662   6.947  17.339  14.697  0.0752 -0.1983 -0.0575
 4383W        W24663  13.047  15.675  15.989  0.0683  0.0590 -0.3568
 4384W        W24664  15.064  15.054  16.622 -0.2811 -0.0858 -0.1878
 4385W        W24665   8.674  15.317  16.314  0.0312 -0.0609  0.2941
 4386W        W24666  15.506   8.897  15.058  0.3404  0.0600 -0.3770
 4387W        W24667   2.402  10.597  12.925  0.0283 -0.2467  0.0599
 4388W        W24668  11.328   7.576  12.622  0.1352 -0.0460  0.0258
 4389W        W24669   3.042   2.349   0.427 -0.2040  0.1387 -0.0192
 4390W        W24670  11.785   7.393   1.216 -0.1328 -0.0747  0.0187
 4391W        W24671  14.500   4.009   4.724 -0.1639 -0.1417  0.1521
 4392W        W24672   6.012   2.568  12.216 -0.0931 -0.0579  0.0089
 4393W        W24673   0.482   0.663  16.384  0.0519 -0.0734 -0.0361
 4394W        W24674   3.509   0.147   3.923 -0.1342  0.0999 -0.1309
 4395W        W24675  11.453   8.851  12.880 -0.2501  0.2297  0.5964
 4396W        W24676  14.736   9.872  14.433  0.3078 -0.1194 -0.0271
 4397W        W24677  12.423  14.346  16.983 -0.0348 -0.0176 -0.1347
 4398W        W24678   6.869  15.189  13.688  0.1493  0.0813  0.1348
 4399W        W24679  16.261   2.149   3.587 -0.1740 -0.2398 -0.2133
 4400W        W24680   6.496  15.692  12.393 -0.0490 -0.1115  0.0380
 4401W        W24681   7.024  16.062   4.921 -0.1932  0.0525  0.3856
 4402W        W24682  10.492   3.303  12.362  0.0670 -0.1324 -0.0111
 4403W        W24683   7.845   3.590  12.115 -0.4180  0.1266  0.0826
 4404W        W24684   8.272   8.003  12.551 -0.1070  0.0299  0.0225
 4405W        W24685   1.219  15.420   3.834 -0.2423  0.0961  0.2124
 4406W        W24686  17.428   7.227   0.396 -0.0383 -0.0529 -0.0009
 4407W        W24687   3.068   8.818  13.960  0.1795  0.1078  0.0820
 4408W        W24688   6.993   0.700   6.477  0.0653 -0.3454 -0.1787
 4409W        W24689  12.344   3.417  15.843  0.2680  0.1573  0.0134
 4410W        W24690   5.663  13.779   2.327 -0.2719  0.4171  0.3995
 4411W        W24691   0.042   0.393   3.998 -0.0379 -0.1237  0.1546
 4412W        W24692   0.481   6.532   0.012 -0.1020 -0.2883 -0.1512
 4413W        W24693  11.774   8.066  13.875  0.0587  0.1072 -0.1642
 4414W        W24694   1.309   5.206   3.493 -0.1085 -0.0284  0.3988
 4415W        W24695   3.131   5.246   0.822  0.2005  0.1662 -0.0015
 4416W        W24696  10.116   6.643  14.667  0.2774  0.0218 -0.1568
 4417W        W24697   4.370  14.750   2.357  0.1375 -0.2306  0.2964
 4418W        W24698  15.067  10.292   3.166 -0.2263  0.0131 -0.0775
 4419W        W24699  12.434   3.469   3.166 -0.2226  0.1956  0.0328
 4420W        W24700  15.167  13.158   4.126  0.2312 -0.2089 -0.2283
 4421W        W24701   1.768  15.197   2.945 -0.0218 -0.3378 -0.2513
 4422W        W24702   0.504  14.825   4.862 -0.1209 -0.2361 -0.0035
 4423W        W24703  17.037  15.967  12.425 -0.1611  0.1490 -0.0459
 4424W        W24704   2.680   6.567  13.472 -0.0212 -0.2015  0.1377
 4425W        W24705  11.268  12.189   4.260 -0.5216  0.3246  0.2692
 4426W        W24706   4.202   9.729   2.978 -0.0283 -0.1800  0.2447
 4427W        W24707  13.500   5.161  12.320 -0.0150  0.1007  0.4596
 4428W        W24708   4.961   4.899  15.133 -0.0179  0.0718 -0.0349
 4429W        W24709  12.131  13.757   1.167 -0.0039 -0.2335  0.0539
 4430W        W24710  15.601   8.120   4.723  0.0487 -0.0943 -0.0195
 4431W        W24711   3.692   9.281   2.009 -0.1305 -0.0578 -0.1132
 4432W        W24712  17.144  16.923  13.031  0.0030  0.0231  0.1529
 4433W        W24713   0.495  12.734   2.300  0.4296  0.0412 -0.0539
 4434W        W24714  10.654   4.896   3.612  0.1272 -0.1296  0.0349
 4435W        W24715  13.587   7.088  16.689 -0.0790  0.0859 -0.0551
 4436W        W24716   3.122  14.285   4.487  0.0030 -0.0465  0.1041
 4437W        W24717   4.312  14.051  12.150  0.0569 -0.0654  0.0146
 4438W        W24718   1.336   9.756   3.986 -0.0193 -0.3712 -0.3568
 4439W        W24719   0.694   9.482  16.817  0.3692  0.1435  0.1357
 4440W        W24720   7.524   1.738  12.559 -0.0666 -0.1314 -0.2921
 4441W        W24721  12.592  11.780   3.032  0.0629 -0.0981  0.1601
 4442W        W24722  12.148  16.732  13.144 -0.2032  0.0405  0.2495
 4443W        W24723   8.515   4.588   2.887  0.1943 -0.0914  0.0844
 4444W        W24724   7.811  16.529  15.205 -0.0060  0.3058 -0.0324
 4445W        W24725   3.113   4.363   1.461  0.1682  0.1265  0.2530
 4446W        W24726  10.934  10.142   3.015  0.0384 -0.1302 -0.0498
 4447W        W24727  15.956  11.034  14.476  0.1852  0.0100  0.1882
 4448W        W24728   2.736   1.995   0.047  0.0421 -0.1045  0.1366
 4449W        W24729  11.368  15.255   1.272  0.2627 -0.2399 -0.3753
 4450W        W24730   3.411   5.647   1.129  0.2245  0.1117  0.0192
 4451W        W24731   3.205   9.504   1.035 -0.0473 -0.1912  0.1031
 4452W        W24732   1.325   0.794  14.108  0.1047 -0.0049  0.3433
 4453W        W24733   7.346  17.199  12.702  0.3307  0.1837 -0.0744
 4454W        W24734   5.026  14.825  13.159  0.0224 -0.1041  0.1325
 4455W        W24735   9.546   2.878  13.908  0.0398 -0.1069  0.0893
 4456W        W24736  15.800  17.723   5.800 -0.1800  0.1585  0.1445
 4457W        W24737  13.599  13.530  13.460  0.0232 -0.1784  0.0611
 4458W        W24738   3.732   2.085   0.055 -0.2679  0.4181 -0.0099
 4459W        W24739   0.412   4.043  16.633 -0.2682 -0.2293 -0.0104
 4460W        W24740   7.871  15.138   2.491  0.0964  0.2783  0.2590
 4461W        W24741  16.229   4.281  12.331  0.1852 -0.0671 -0.4588
 4462W        W24742  13.103   5.655   3.698 -0.3753  0.1535  0.3188
 4463W        W24743  12.376   8.974   1.354 -0.3096 -0.2001  0.2340
 4464W        W24744  14.898  10.417  16.461  0.2219  0.0062 -0.1274
 4465W        W24745   9.659  10.917  14.219 -0.1457 -0.1823 -0.0777
 4466W        W24746  12.536   3.526  16.263 -0.1748  0.1099  0.0515
 4467W        W24747  13.363   3.939   1.238 -0.2033 -0.2148  0.0326
 4468W        W24748   1.195  15.696  12.327 -0.0475  0.1605 -0.1051
 4469W        W24749   7.839  10.622  12.584 -0.2671 -0.1243 -0.0713
 4470W        W24750   3.774   7.269   0.134  0.0041  0.0407 -0.0324
 4471W        W24751   3.418  16.218   2.929  0.0380 -0.0777  0.0544
 4472W        W24752   9.185   0.480  12.402  0.1638  0.0193 -0.3719
 4473W        W24753  15.824   5.548   3.789 -0.1768  0.3088 -0.3063
 4474W        W24754  17.478  14.266  15.754 -0.3351 -0.2386 -0.2272
 4475W        W24755   9.942   0.802   3.016 -0.0130  0.0101  0.3862
 4476W        W24756  17.272  14.866   0.829 -0.2832 -0.0795  0.1616
 4477W        W24757  17.250  12.639  14.509 -0.2124 -0.1006 -0.1894
 4478W        W24758   7.704   7.715   1.479  0.3152 -0.0496  0.0628
 4479W        W24759   3.570   7.955   0.126 -0.0610  0.0450 -0.0305
 4480W        W24760   6.546  16.288  16.555 -0.0652  0.2042  0.0315
 4481W        W24761  14.343   5.299   4.473  0.1283  0.1261 -0.1484
 4482W        W24762  13.588  17.342  14.065 -0.5964  0.1858 -0.0929
 4483W        W24763   7.098  16.984   4.087 -0.0650  0.0712 -0.0985
 4484W        W24764  16.562   7.905  15.133  0.2823 -0.4399 -0.1287
 4485W        W24765  14.599  12.972   1.787 -0.2543 -0.1838  0.0185
 4486W        W24766   4.816   2.096   1.084 -0.1280 -0.0002 -0.1258
 4487W        W24767   3.206  16.400   3.824  0.0933 -0.1626 -0.1437
 4488W        W24768   0.099   0.011  16.987  0.2583  0.2064  0.0380
 4489W        W24769   1.837  13.830  16.180 -0.0257 -0.0722 -0.1593
 4490W        W24770  11.891  17.001   0.628 -0.0312  0.3171  0.0991
 4491W        W24771  13.792   7.448  13.696  0.0829  0.2974  0.0675
 4492W        W24772  15.652  16.223   3.418 -0.0924 -0.3795  0.0860
 4493W        W24773   7.382   6.676   4.266 -0.0491  0.1473 -0.0188
 4494W        W24774   8.477   8.248   5.224  0.1366  0.0309  0.1652
 4495W        W24775  13.693   1.229   0.593  0.2563 -0.2804  0.1087
 4496W        W24776   4.706  12.120   2.993  0.1262  0.0121  0.0855
 4497W        W24777  13.967   5.112  15.849  0.1711  0.2676  0.1730
 4498W        W24778   6.458   7.623   3.248  0.0157 -0.3157 -0.0877
 4499W        W24779   7.702  14.990   3.015 -0.2080  0.6118  0.0906
 4500W        W24780   6.305   9.447   0.889  0.1420  0.1159  0.0645
 4501W        W24781  10.128   0.232   3.045 -0.1077  0.1537 -0.2514
 4502W        W24782  17.535   4.187   1.167 -0.1436  0.0358 -0.0699
 4503W        W24783   4.646  16.408  12.855 -0.0696  0.1637 -0.1112
 4504W        W24784   6.254   8.300   0.547 -0.0078  0.1132  0.1799
 4505W        W24785   6.578  12.872  16.673  0.2476  0.1399  0.1010
 4506W        W24786   6.324   7.855  14.321 -0.0299  0.0254 -0.2497
 4507W        W24787  12.226   2.666  16.394  0.2955  0.0461 -0.1889
 4508W        W24788  10.908  12.527   4.266 -0.0597  0.2294  0.1920
 4509W        W24789   8.994   3.434   0.022 -0.0542 -0.0805 -0.5294
 4510W        W24790  16.282  16.902   4.310  0.2316  0.0943 -0.0605
 4511W        W24791   1.558   4.315  12.892 -0.2186  0.0176  0.1502
 4512W        W24792   4.243  15.991   3.714 -0.3243 -0.0845  0.1888
 4513W        W24793   8.152   0.738  15.141  0.0402 -0.1121  0.2821
 4514W        W24794   3.096  10.623  13.403 -0.2239  0.5373 -0.0783
 4515W        W24795  13.180  12.790  15.848  0.0016  0.0619  0.1242
 4516W        W24796  13.348  10.942   0.930 -0.0913 -0.1369  0.1295
 4517W        W24797  14.538  12.931  14.023 -0.1140  0.1129 -0.1221
 4518W        W24798   8.369  11.657   1.539 -0.3226  0.1734 -0.1871
 4519W        W24799   8.866  15.364  13.406 -0.2058  0.3677 -0.3158
 4520W        W24800   1.820   5.247   3.818  0.0323 -0.1874 -0.0783
 4521W        W24801  14.187   2.274  15.647 -0.0833  0.2210  0.0501
 4522W        W24802   4.977  17.502  16.138 -0.1192 -0.0534  0.0070
 4523W        W24803  17.658   4.038   3.821  0.1660  0.0944  0.3171
 4524W        W24804  16.148  16.150   5.015 -0.1646 -0.1483  0.2452
 4525W        W24805   8.750   6.424   4.102  0.1339  0.0431 -0.0176
 4526W        W24806  11.474   5.517   1.715  0.1428 -0.3119  0.1137
 4527W        W24807   0.659  16.473   3.516 -0.3182  0.1078 -0.0781
 4528W        W24808  12.438  16.965   4.426 -0.0389  0.4882  0.1223
 4529W        W24809   9.922   4.328  13.211  0.0806  0.0530 -0.0673
 4530W        W24810   6.411  15.857  16.337 -0.1030 -0.0697 -0.1909
 4531W        W24811   2.569   7.558  15.004 -0.0498  0.3080 -0.2213
 4532W        W24812  13.463   1.482   1.896  0.2344  0.0760 -0.1618
 4533W        W24813   2.659   2.019  14.527  0.0365 -0.0053 -0.0130
 4534W        W24814   1.182  11.857   0.571 -0.0893  0.0265  0.0263
 4535W        W24815  16.822  11.154  16.031  0.1158  0.1252 -0.0314
 4536W        W24816   4.935  13.955   4.817  0.0588 -0.0357 -0.0387
 4537W        W24817  16.300  12.440   2.432 -0.1765  0.1940 -0.0507
 4538W        W24818   8.902   0.805  15.638  0.1309  0.1121  0.3429
 4539W        W24819   8.603   5.375   2.114  0.0347  0.0674 -0.2486
 4540W        W24820   5.079   5.935  13.240 -0.0263 -0.2464 -0.2511
 4541W        W24821   3.915   7.705  15.405 -0.1050 -0.0145 -0.0415
 4542W        W24822   4.907  16.166  15.975  0.1970 -0.0333 -0.2273
 4543W        W24823  14.271   4.391  12.991  0.1292  0.0067 -0.0459
 4544W        W24824   4.191   9.212  15.594  0.0348  0.1016 -0.0984
 4545W        W24825   1.831   9.113  13.933  0.1645 -0.3155  0.0818
 4546W        W24826  11.012  10.636   3.865 -0.2387  0.2393 -0.1098
 4547W        W24827   6.411   2.714  16.874 -0.0132 -0.0637 -0.0290
 4548W        W24828  11.877  15.961   1.879  0.1878 -0.0825 -0.2406
 4549W        W24829   9.491  15.988   0.352 -0.2655  0.2344  0.0300
 4550W        W24830   1.457   7.108   3.032 -0.2213 -0.1612  0.0878
 4551W        W24831  14.973  12.052  14.507  0.0159 -0.0160 -0.1361
 4552W        W24832   9.766   8.916  15.713  0.0630  0.2593  0.2642
 4553W        W24833   1.329  13.910   2.453 -0.0881 -0.1413 -0.2486
 4554W        W24834  13.217  11.427   5.670  0.2533 -0.0007  0.0610
 4555W        W24835   5.803  13.962  12.713 -0.1199  0.0230  0.1578
 4556W        W24836  11.428   2.578  14.051  0.2664  0.0335  0.1440
 4557W        W24837  10.521  12.460  14.474 -0.0391 -0.0566  0.2592
 4558W        W24838  16.929   4.192   0.388  0.0464  0.4229  0.1192
 4559W        W24839  11.353   4.241  16.599 -0.2144  0.0067 -0.1259
 4560W        W24840  16.463  12.505  13.487  0.0606 -0.2849 -0.2011
 4561W        W24841  11.750  13.137  15.995 -0.2007 -0.0559 -0.0382
 4562W        W24842  15.558  13.275   4.422  0.0584  0.3464 -0.0611
 4563W        W24843  10.569  17.717  16.486  0.3272 -0.0453 -0.1813
 4564W        W24844   7.912  11.439   4.208  0.0217  0.1108 -0.1225
 4565W        W24845   5.723   2.194   0.717  0.0463 -0.0080 -0.1445
 4566W        W24846   4.062  10.815  13.769 -0.0153 -0.3278  0.0602
 4567W        W24847  13.277   1.787   4.488  0.0396  0.0968  0.0816
 4568W        W24848   0.186  15.652  13.483 -0.0457 -0.0178  0.3827
 4569W        W24849  14.674   0.588  13.799  0.3958  0.1083  0.0737
 4570W        W24850  13.658   4.476  15.343  0.0150 -0.1340  0.1516
 4571W        W24851  11.282   9.178  15.489  0.0661  0.2250  0.0952
 4572W        W24852   5.101   4.481   4.457  0.1932 -0.4101  0.1248
 4573W        W24853   3.489   0.810  16.193  0.1372  0.0953 -0.1081
 4574W        W24854  13.683  10.991  17.011  0.5564  0.2668  0.2552
 4575W        W24855   7.749  15.704  12.866 -0.1463 -0.3534  0.0819
 4576W        W24856   6.648  10.537  12.174 -0.0844 -0.2600  0.1428
 4577W        W24857   4.145   4.808  13.685 -0.0479 -0.1212 -0.1124
 4578W        W24858   4.388   3.907  16.140  0.1559  0.0483 -0.0052
 4579W        W24859   9.367  12.488   4.317  0.3617  0.1090  0.2581
 4580W        W24860  12.859   9.896  13.042  0.0462  0.0273  0.1670
 4581W        W24861   6.114   1.392   1.661  0.0881 -0.0990  0.0716
 4582W        W24862   8.940  15.856  15.595  0.1606 -0.0580  0.1895
 4583W        W24863  11.683   3.066   3.045  0.4709 -0.0812 -0.1130
 4584W        W24864  15.894  15.881  15.932  0.1991  0.0169 -0.1851
 4585W        W24865  16.346   8.157   0.859 -0.1298 -0.0131 -0.1933
 4586W        W24866   8.371  12.440  13.282 -0.4170  0.0322  0.1325
 4587W        W24867   5.420  10.649  16.498 -0.1599 -0.0540 -0.0764
 4588W        W24868  11.557   7.143   3.977  0.0789  0.2973  0.0552
 4589W        W24869   5.234  12.482   2.420  0.0690 -0.0441  0.1651
 4590W        W24870   2.014   7.795  12.697  0.3812 -0.0888 -0.0349
 4591W        W24871  15.994   9.756   3.198 -0.0861  0.1099 -0.1394
 4592W        W24872   7.219  12.412  14.595  0.0281  0.0480 -0.0571
 4593W        W24873   5.613  17.123   1.646  0.2862  0.1819  0.2565
 4594W        W24874  11.105  16.177  14.477 -0.2483  0.2165 -0.1245
 4595W        W24875   6.288   5.963  12.715  0.2723  0.1711  0.0464
 4596W        W24876   2.795   8.898   1.760 -0.2496 -0.1792  0.0682
 4597W        W24877  10.522   5.755  16.218 -0.2195  0.2938  0.1650
 4598W        W24878  10.199  12.319  14.133  0.2161  0.0782  0.1973
 4599W        W24879  13.304  12.332   4.006 -0.2063  0.0569  0.2763
 4600W        W24880  16.207   4.430  15.062 -0.3201 -0.2967  0.0096
 4601W        W24881  17.228  12.118   3.342 -0.1495 -0.0987  0.1230
 4602W        W24882   7.697  13.535  15.871  0.0491  0.1723 -0.0247
 4603W        W24883  13.184  11.084   2.850  0.0590 -0.0198 -0.1359
 4604W        W24884  17.260   8.770   5.005 -0.1825  0.2478 -0.0487
 4605W        W24885  16.734   8.881  14.333  0.0999  0.1719 -0.1689
 4606W        W24886   1.544   7.366  11.396  0.0468  0.0461 -0.0091
 4607W        W24887   5.895   7.015  14.532  0.1674  0.2939  0.2081
 4608W        W24888   2.448   0.344  15.953 -0.2109 -0.3043 -0.0735
 4609W        W24889   5.017   9.792   1.280 -0.1985 -0.2165  0.0505
 4610W        W24890   7.045   5.457   0.272  0.2205  0.1066  0.0017
 4611W        W24891  17.416   1.633  14.568 -0.2846 -0.0742 -0.0441
 4612W        W24892   7.223  14.860   4.100 -0.0593  0.1560 -0.1537
 4613W        W24893   5.412   7.891  15.259  0.0131 -0.1564  0.2195
 4614W        W24894  14.933   4.184   5.896  0.1021 -0.0116  0.1681
 4615W        W24895   2.311   9.958   4.747  0.0542 -0.1669 -0.0063
 4616W        W24896   0.720   0.935   0.689 -0.1754  0.2085  0.3357
 4617W        W24897   2.495   7.910   1.971  0.0237 -0.0998  0.1529
 4618W        W24898   0.952  11.520   4.287  0.1745  0.0125 -0.0479
 4619W        W24899   6.374   9.696  15.679  0.1873  0.1706 -0.0998
 4620W        W24900  11.930  15.240   2.945 -0.2388  0.2915  0.0585
 4621W        W24901  11.952  13.116   2.928  0.0149  0.2913  0.2982
 4622W        W24902  15.137  13.463   4.698 -0.0595  0.1245 -0.1325
 4623W        W24903   7.311   9.073   2.711  0.0583 -0.1728  0.0618
 4624W        W24904  11.233   3.553   0.140  0.2193  0.0674  0.1709
 4625W        W24905  16.145   3.064  16.925  0.2523  0.0159  0.2837
 4626W        W24906  12.141  17.244   2.889 -0.0911 -0.2732 -0.2408
 4627W        W24907  15.759  15.903  14.282  0.4924 -0.0273  0.0584
 4628W        W24908   0.052  17.486  14.717  0.1642 -0.0975  0.2018
 4629W        W24909   0.469   3.949  12.854  0.1355 -0.0330 -0.1375
 4630W        W24910  14.186  14.968   2.290 -0.0585 -0.0147 -0.1744
 4631W        W24911   4.799  11.365  15.482 -0.0243  0.2454 -0.1432
 4632W        W24912  14.803   6.994   1.052  0.0190  0.0097 -0.1545
 4633W        W24913   8.146   2.332   3.790  0.0067  0.1295  0.0128
 4634W        W24914   2.935  10.415  13.873 -0.1632  0.1419  0.0594
 4635W        W24915  17.108   1.651   4.565 -0.0360  0.2194 -0.0026
 4636W        W24916   2.713  11.101   3.875  0.3872 -0.0795  0.0820
 4637W        W24917   2.240   6.662  13.670  0.0085 -0.2860 -0.0146
 4638W        W24918  14.839   9.730   4.307  0.1124 -0.0665  0.2513
 4639W        W24919   8.825  10.232  13.405 -0.1446 -0.0345  0.2722
 4640W        W24920  15.105  11.009  13.966 -0.0012 -0.0584  0.1841
 4641W        W24921   9.186   2.245   1.172  0.2322 -0.3279 -0.0787
 4642W        W24922  10.816   5.288  14.281  0.0139  0.1130 -0.0597
 4643W        W24923   6.690   6.450   2.545 -0.1471  0.0683  0.2102
 4644W        W24924   0.787  15.050  15.761 -0.2001 -0.0287  0.2928
 4645W        W24925   3.490  13.706   2.186  0.1282  0.4202 -0.1023
 4646W        W24926   4.680   6.141   0.877 -0.0771 -0.0624 -0.2304
 4647W        W24927   9.899   0.373   3.987  0.2213  0.0283  0.0798
 4648W        W24928   0.857   7.061   1.056  0.0103 -0.2400  0.0835
 4649W        W24929   4.638   8.692   4.726 -0.2335  0.1712 -0.1105
 4650W        W24930   9.286   5.032  16.431 -0.0529 -0.2061 -0.0444
 4651W        W24931   1.699   6.545  15.896  0.0199  0.1892  0.0721
 4652W        W24932  13.540   4.838  13.119  0.1470 -0.2151  0.0430
 4653W        W24933   3.117  10.131  12.032 -0.1377  0.3081 -0.1926
 4654W        W24934  13.507  11.801  13.372  0.0808  0.0148  0.0352
 4655W        W24935   7.516  10.937  14.131 -0.2109  0.0599 -0.3110
 4656W        W24936  12.143   5.783  12.992 -0.0572 -0.0875  0.0372
 4657W        W24937   8.290   6.238   2.314 -0.1900 -0.1292  0.2664
 4658W        W24938   5.680  12.751   4.796  0.2218 -0.0234 -0.1045
 4659W        W24939  13.481   3.765   0.114  0.2977 -0.2691  0.2372
 4660W        W24940   5.647  10.428   4.888 -0.1647  0.3186 -0.1887
 4661W        W24941  14.100  13.416  12.486  0.0757 -0.1409 -0.0503
 4662W        W24942   7.938  10.255   1.825 -0.0687  0.1149  0.0803
 4663W        W24943  12.158   2.685   4.241  0.3212 -0.1646 -0.1457
 4664W        W24944  16.006   2.468   1.232  0.3073  0.0287 -0.0720
 4665W        W24945   9.788  12.031   3.652 -0.0727  0.1858 -0.1934
 4666W        W24946   2.452   5.574   3.808 -0.0101 -0.1330 -0.2205
 4667W        W24947   8.341   5.917   1.374  0.0441  0.1668  0.0989
 4668W        W24948   2.073  15.503  12.454 -0.0750  0.0366  0.4034
 4669W        W24949   1.991  10.741  16.145 -0.1717 -0.3805  0.2505
 4670W        W24950   1.230  11.180   1.572  0.0299  0.1330 -0.3794
 4671W        W24951   4.987  10.755   0.501 -0.0745  0.0060  0.1477
 4672W        W24952   9.266  12.088  15.584 -0.3646 -0.4263  0.1507
 4673W        W24953  16.644  13.015  16.233  0.0912  0.2753  0.0073
 4674W        W24954   0.769  14.560   3.708 -0.1615 -0.1213  0.0903
 4675W        W24955   7.814   4.980   2.456 -0.4199  0.2896 -0.2119
 4676W        W24956  11.105   0.866   1.408 -0.2830  0.3071  0.0939
 4677W        W24957  16.052   2.218  16.027 -0.1085  0.0895 -0.0901
 4678W        W24958  11.820  11.065   0.423 -0.0978  0.1030 -0.2363
 4679W        W24959   9.568   8.812  15.183  0.0315 -0.0088 -0.0096
 4680W        W24960   1.192  15.774   4.321  0.0169 -0.0312 -0.0323
 4681W        W24961  17.016  17.381   2.396  0.0595  0.1584 -0.1044
 4682W        W24962   8.381   0.975   1.026 -0.1623 -0.0464 -0.1131
 4683W        W24963  16.426   1.794  12.896 -0.1110 -0.2235 -0.0488
 4684W        W24964  13.019  11.763   2.668  0.2482 -0.3255 -0.3677
 4685W        W24965   3.577  17.263   1.707  0.0474 -0.0669  0.0997
 4686W        W24966   3.840   1.937   2.585 -0.2898  0.2934  0.0189
 4687W        W24967  10.729   6.015   3.399 -0.0588 -0.0796 -0.3600
 4688W        W24968  12.282   7.543   3.723  0.0441 -0.0448  0.1009
 4689W        W24969  14.622   4.994   2.431  0.1760  0.0333  0.1652
 4690W        W24970   6.927  17.660  16.883 -0.1581 -0.0396 -0.0537
 4691W        W24971   4.878   6.014   4.358  0.2461 -0.5510  0.1812
 4692W        W24972  10.739  13.053   1.470 -0.0660 -0.1963  0.1421
 4693W        W24973   9.150  13.002  15.712 -0.2923 -0.2401 -0.2194
 4694W        W24974  15.294   3.060   3.247 -0.0404  0.3458 -0.0656
 4695W        W24975   0.511   5.776   0.508  0.0181 -0.0063 -0.0026
 4696W        W24976   1.773   0.147  13.652  0.0294  0.0659 -0.1338
 4697W        W24977   6.253   3.503   0.968 -0.3057 -0.0222 -0.1670
 4698W        W24978   6.505   7.900  12.959 -0.0314  0.1626  0.0982
 4699W        W24979  12.117   1.616  15.454  0.0320  0.0356  0.1144
 4700W        W24980  13.277  14.150   1.946 -0.0566  0.0886 -0.2055
 4701W        W24981   4.311   8.651  14.199 -0.3188  0.3168  0.0964
 4702W        W24982   2.903  12.362   2.633  0.0184 -0.1803  0.2355
 4703W        W24983  16.408   5.318   0.620 -0.0048 -0.2803 -0.0348
 4704W        W24984  15.604   8.151   0.724  0.2066  0.1899  0.1606
 4705W        W24985  15.082   7.827   1.532  0.2587 -0.0238 -0.0952
 4706W        W24986  17.254   9.343  15.509  0.1070 -0.0586  0.1835
 4707W        W24987   3.802   8.627  12.328  0.1506 -0.2619 -0.1875
 4708W        W24988  17.043  10.313   0.757  0.0835 -0.0864 -0.0508
 4709W        W24989   5.610   8.532  12.851 -0.0153 -0.3111 -0.3653
 4710W        W24990   4.048   2.864  15.938 -0.0348 -0.1399  0.0801
 4711W        W24991   7.948   1.732  14.259 -0.2006 -0.2190  0.2977
 4712W        W24992  10.755   2.229   0.790  0.1241  0.0837  0.0614
 4713W        W24993  13.649   9.879  13.588  0.2332  0.0120  0.3081
 4714W        W24994   1.418   0.801  13.176  0.1670 -0.1194  0.0325
 4715W        W24995   1.125   0.207   4.537  0.2569 -0.1016 -0.2546
 4716W        W24996  10.310   2.302   0.972  0.5240 -0.3823 -0.1292
 4717W        W24997  15.552  12.082   3.824 -0.0319 -0.1618 -0.1209
 4718W        W24998   5.381   6.114  14.302 -0.0570  0.0561  0.1803
 4719W        W24999  16.649  13.821  15.008  0.1743  0.0688 -0.0834
 4720W        W25000  13.905  15.089  12.478 -0.2506  0.3304  0.3681
 4721W        W25001   0.640   4.066   4.805 -0.2727 -0.0476 -0.1324
 4722W        W25002  16.638  16.494  16.715 -0.3187  0.1440  0.0707
 4723W        W25003  14.902   3.837   4.540 -0.0144 -0.1274  0.4695
 4724W        W25004   1.074   3.753   2.690  0.0355 -0.0234 -0.1334
 4725W        W25005   4.210  17.589   0.623  0.4123  0.3592 -0.2845
 4726W        W25006   5.976   2.667   0.512  0.0678  0.1226  0.0908
 4727W        W25007  13.176   8.030   4.408 -0.3265 -0.2576 -0.0005
 4728W        W25008  10.193  11.825  13.870  0.0549 -0.1143  0.3530
 4729W        W25009  11.422  12.829  12.630  0.0027 -0.2156 -0.1882
 4730W        W25010   5.067   3.709   0.786  0.0239 -0.0538 -0.1429
 4731W        W25011   2.749  13.551   0.215  0.1617 -0.0639  0.2400
 4732W        W25012  14.516  12.221   4.233  0.0951 -0.0200  0.0583
 4733W        W25013   6.206  10.076   2.608 -0.2365  0.0204  0.2473
 4734W        W25014  10.068  11.957   4.119 -0.3177 -0.1561  0.0944
 4735W        W25015   0.674   3.495   3.859 -0.0350  0.2060  0.2506
 4736W        W25016  15.867   1.844  12.472  0.1025 -0.2733 -0.1888
 4737W        W25017  14.675   2.762   1.489 -0.3602  0.4871  0.2320
 4738W        W25018   6.683  15.270   0.527  0.0739 -0.0849  0.1070
 4739W        W25019   9.043   6.843  13.995 -0.2364 -0.1780  0.0171
 4740W        W25020   3.457  15.276  14.199  0.0203  0.2220 -0.1702
 4741W        W25021   7.269   0.088  14.188  0.0780  0.2550  0.0718
 4742W        W25022   4.164  10.661  12.747  0.1869 -0.0360 -0.0391
 4743W        W25023   6.978   4.859  13.383  0.1694 -0.4349 -0.3782
 4744W        W25024  13.971   1.743   2.866  0.0251 -0.0915 -0.0503
 4745W        W25025   4.703   7.501  12.304  0.2481 -0.1914 -0.0333
 4746W        W25026   4.969   6.540   0.766  0.3199  0.0198  0.1254
 4747W        W25027   1.433  12.713   3.154  0.4420  0.0328  0.2187
 4748W        W25028  10.467  14.341   1.064  0.0555  0.0534 -0.1201
 4749W        W25029  15.179   7.622   2.522  0.2090  0.0049  0.0639
 4750W        W25030  11.942  17.239  14.664  0.0100  0.1569  0.3918
 4751W        W25031  15.051  15.728  15.482  0.1498  0.1419  0.1411
 4752W        W25032   5.906  12.086   0.471  0.1952  0.1536  0.0412
 4753W        W25033   2.178  17.144  14.692  0.1552 -0.2611  0.3182
 4754W        W25034  12.528   9.441   1.163  0.1135  0.0181 -0.2038
 4755W        W25035  17.093   6.716  14.616 -0.1606  0.0268  0.0803
 4756W        W25036  17.575   0.339  12.136 -0.0344  0.0949  0.0925
 4757W        W25037   8.680   7.754   4.313 -0.4369 -0.1453  0.0888
 4758W        W25038  10.358   2.199   4.675 -0.1858 -0.3774  0.3047
 4759W        W25039  16.736   2.937  15.962 -0.0556 -0.1321 -0.2914
 4760W        W25040   9.229   2.236  16.996  0.2790 -0.0951  0.2556
 4761W        W25041   4.753   8.452   2.640 -0.0573  0.3063  0.0150
 4762W        W25042  13.080  10.805   3.785 -0.0533 -0.2323 -0.1136
 4763W        W25043  13.537   2.047  14.990  0.4181  0.3666  0.2240
 4764W        W25044  16.005  11.802   0.857 -0.1759  0.0952  0.2273
 4765W        W25045   1.796   2.667   3.508  0.0271  0.2646 -0.2927
 4766W        W25046   5.871  10.101  16.820 -0.2750 -0.0361 -0.2432
 4767W        W25047   7.884   5.239   4.783 -0.1937 -0.2030  0.0008
 4768W        W25048   1.180  16.476  16.405  0.2655 -0.1993 -0.1949
 4769W        W25049  13.972  12.908   4.562  0.0804  0.2463 -0.3642
 4770W        W25050   0.419   5.965   2.828  0.1163  0.2156 -0.0358
 4771W        W25051   0.492   5.535   2.645  0.0245 -0.0014 -0.1568
 4772W        W25052   6.447  11.675  14.381 -0.3518 -0.0655  0.1215
 4773W        W25053  10.017  13.889  14.089  0.0589 -0.0054  0.0893
 4774W        W25054   8.011   5.833   0.801  0.0658  0.0213 -0.0758
 4775W        W25055   0.096  12.920  15.758 -0.1754  0.3454  0.0686
 4776W        W25056  16.935   0.464   3.852  0.1520 -0.1784  0.4205
 4777W        W25057  14.218  17.032   0.361 -0.0034  0.1334 -0.0405
 4778W        W25058  12.402   4.212   1.944  0.1206 -0.0070  0.1356
 4779W        W25059  12.509  14.659   0.906  0.0961 -0.2414  0.0134
 4780W        W25060  12.201   2.983  12.917 -0.3471  0.1165  0.4082
 4781W        W25061  10.883   2.632   2.404 -0.1409  0.2802  0.1773
 4782W        W25062  14.007   7.098  15.643 -0.0280  0.2226 -0.0109
 4783W        W25063  10.993  14.312  15.474  0.2229  0.0900 -0.0552
 4784W        W25064   7.718   1.353   3.590 -0.1353  0.3125  0.1253
 4785W        W25065  17.362   2.820   2.380 -0.0775 -0.3913  0.0019
 4786W        W25066   3.732   2.029  15.663  0.1266 -0.0099 -0.0915
 4787W        W25067   4.991  15.055   0.694 -0.0725 -0.1208  0.1753
 4788W        W25068  16.912  17.177  15.022 -0.0442  0.2302  0.0112
 4789W        W25069  14.085   6.256  12.730 -0.1270 -0.1271  0.2803
 4790W        W25070   6.644  10.901   3.743 -0.2994 -0.0845  0.3436
 4791W        W25071   1.024  16.989   1.391 -0.0881 -0.2146  0.0940
 4792W        W25072   4.757   2.748   3.042  0.0884 -0.3077 -0.1382
 4793W        W25073  14.412  13.080   2.615 -0.2231 -0.0857 -0.3894
 4794W        W25074   6.685   7.011  15.164 -0.1513 -0.3488  0.0260
 4795W        W25075   0.387   9.873   0.563 -0.0840  0.2523  0.1421
 4796W        W25076  14.756  16.233   4.427  0.1940 -0.0067  0.0080
 4797W        W25077  13.450  14.218   4.144 -0.1136 -0.0757 -0.0034
 4798W        W25078   0.850  15.888   2.451 -0.0525  0.1311 -0.4339
 4799W        W25079   4.615   8.292  15.484  0.1400 -0.0051  0.1586
 4800W        W25080   3.401  14.983   3.970  0.0469  0.0484 -0.1015
 4801W        W25081   2.702  14.956   1.701 -0.1001  0.3427 -0.4195
 4802W        W25082   2.394   4.462  15.840 -0.1206 -0.1775  0.1858
 4803W        W25083  10.267   3.850   4.515 -0.1286 -0.0904  0.1278
 4804W        W25084  14.738   3.879   2.244  0.0109 -0.4042  0.0452
 4805W        W25085  12.058   4.471  12.375  0.0971 -0.0431 -0.1010
 4806W        W25086   2.709  16.669  16.860 -0.0718 -0.0325  0.3102
 4807W        W25087  15.962   2.262   1.821 -0.1867  0.2414  0.2289
 4808W        W25088  13.018   7.132  11.124  0.1199 -0.3563  0.3276
 4809W        W25089  15.266  10.831  13.212 -0.1353 -0.0628  0.2893
 4810W        W25090   7.078   2.885  13.960  0.0510  0.1262 -0.0278
 4811W        W25091  15.414  12.912   1.390  0.1680  0.0637 -0.2332
 4812W        W25092  12.662  17.569  15.103 -0.2307 -0.0653 -0.0169
 4813W        W25093  11.059   3.222   2.852  0.1752  0.1461  0.2766
 4814W        W25094   4.800  13.391   3.554  0.0045 -0.1409  0.1461
 4815W        W25095  16.538  13.693   1.717  0.0010 -0.1500 -0.2478
 4816W        W25096  15.232  13.459  13.012 -0.0964 -0.0424  0.3277
 4817W        W25097  16.100   6.677  16.446 -0.1883 -0.1066 -0.0944
 4818W        W25098  10.776  16.893  12.827  0.0220  0.4251 -0.0095
 4819W        W25099   9.666   3.893  13.917 -0.0487 -0.2112 -0.0167
 4820W        W25100   8.968  11.163   3.453  0.1941 -0.2970  0.1085
 4821W        W25101   5.104   9.370  12.402 -0.1612  0.0303  0.2397
 4822W        W25102  12.293  15.542   1.262 -0.0087  0.0712 -0.0743
 4823W        W25103   7.207   8.845   2.250  0.0882 -0.0218 -0.0302
 4824W        W25104  15.911  17.356   2.682 -0.1443  0.0231 -0.2838
 4825W        W25105   7.376   2.685  16.643  0.1159 -0.0953  0.0808
 4826W        W25106   1.674   9.230  14.684  0.1907  0.2579  0.0891
 4827W        W25107  13.501   0.592  14.189 -0.0819  0.0756 -0.0790
 4828W        W25108  15.597   0.055  13.043  0.0132 -0.1770  0.0446
 4829W        W25109  16.388  12.525  16.222 -0.0962 -0.2153  0.0217
 4830W        W25110   7.049   9.625   5.207  0.0699 -0.0858  0.1023
 4831W        W25111  11.940   4.433   2.110  0.0088  0.2323 -0.2758
 4832W        W25112  13.070   0.491   2.505 -0.0605 -0.0731  0.1237
 4833W        W25113   7.759   6.071  15.075 -0.1761  0.0358 -0.0888
 4834W        W25114   5.985  15.805   4.157  0.0034  0.0579 -0.0154
 4835W        W25115   1.748   2.186   3.690 -0.2232 -0.1129  0.0222
 4836W        W25116   5.542  13.116  13.945  0.0093  0.2050 -0.1606
 4837W        W25117   2.794   6.745   0.793  0.0999 -0.2828  0.1944
 4838W        W25118  15.856  12.318  14.370 -0.4775 -0.4457  0.3584
 4839W        W25119   7.531   7.024  13.702 -0.2019  0.0843  0.1494
 4840W        W25120  11.719   4.070   1.790 -0.4074  0.0455  0.1181
 4841W        W25121  14.686  16.479   1.296  0.3190 -0.0067 -0.1408
 4842W        W25122  11.350   4.760   1.192  0.1053 -0.0631 -0.1364
 4843W        W25123  14.759   5.867  16.030 -0.1483 -0.1958 -0.2353
 4844W        W25124   7.003  10.486   1.073 -0.2010  0.0187 -0.0952
 4845W        W25125   3.519   8.152  13.563  0.0896 -0.3155  0.2581
 4846W        W25126   6.640  12.756   1.622 -0.2013  0.1963  0.3349
 4847W        W25127  12.618   4.987   1.269 -0.1664  0.0744  0.0345
 4848W        W25128   6.857  11.404  12.990 -0.1653  0.3007  0.1322
 4849W        W25129  10.763   6.009   0.154 -0.0453 -0.5325 -0.0067
 4850W        W25130   6.232   4.289   3.499  0.2961 -0.1708  0.0864
 4851W        W25131  12.966   1.284   3.624 -0.1746  0.0407 -0.1491
 4852W        W25132  16.583  10.834   0.073  0.1283 -0.0095 -0.0804
 4853W        W25133  13.313  14.724  13.023  0.0057 -0.2585  0.2103
 4854W        W25134   9.922  10.917   2.492  0.0262  0.2023  0.1658
 4855W        W25135   4.808   1.904   1.519  0.0976  0.2016 -0.3126
 4856W        W25136   5.504   9.456  13.186  0.0279  0.2252  0.2292
 4857W        W25137   1.085  10.998  16.316 -0.5305  0.1963  0.0836
 4858W        W25138   8.739   0.034  14.701 -0.0746  0.0738  0.0820
 4859W        W25139  11.092   3.445   1.995 -0.0346  0.0160  0.0831
 4860W        W25140  17.464  10.291  16.317  0.0271  0.1399  0.0129
 4861W        W25141  10.233  14.948   0.012 -0.1408 -0.1654 -0.2293
 4862W        W25142  16.215  14.423   3.585  0.2711 -0.1137 -0.0535
 4863W        W25143   0.763  15.879   4.847  0.0067 -0.0293  0.0247
 4864W        W25144   0.992  16.105   1.226  0.2138 -0.1320  0.0100
 4865W        W25145   8.515   4.384   3.394 -0.2117 -0.2986 -0.0767
 4866W        W25146   1.475   1.498  13.096  0.1895 -0.0184 -0.0107
 4867W        W25147   5.200   0.242  16.098 -0.1398 -0.2421  0.0643
 4868W        W25148   5.554  16.090   0.392 -0.0846 -0.1581  0.1944
 4869W        W25149   9.759   4.136   1.079  0.1677 -0.0922 -0.3700
 4870W        W25150  12.486   6.090  16.254  0.3532 -0.2736  0.1381
 4871W        W25151  11.625   9.150   3.390 -0.0778  0.3134  0.0999
 4872W        W25152  10.343   1.113   2.071 -0.1758  0.3677 -0.1519
 4873W        W25153   5.691   5.168   0.378  0.4749  0.0087 -0.4735
 4874W        W25154   4.802   8.460   1.227  0.1722  0.1570 -0.0742
 4875W        W25155   1.796   2.157  16.960  0.0426  0.6305 -0.0610
 4876W        W25156  11.899  11.478   2.174  0.4727 -0.3460  0.1484
 4877W        W25157  17.159   5.861   2.507 -0.1621  0.0009 -0.0415
 4878W        W25158   9.857   4.099  10.894 -0.1617 -0.0095 -0.1327
 4879W        W25159   0.019   8.507   0.737 -0.0355  0.3930  0.0134
 4880W        W25160   2.142  14.822   5.108 -0.1831 -0.3798 -0.0241
 4881W        W25161   5.623   2.587   4.738 -0.0410  0.1322  0.0065
 4882W        W25162   0.454   1.138   2.636 -0.1449  0.3800 -0.5800
 4883W        W25163   7.140  13.634   3.856 -0.0414  0.1593 -0.1795
 4884W        W25164   6.879   2.408   2.541  0.3526  0.1557 -0.1406
 4885W        W25165   4.602  15.494   0.774 -0.1415 -0.0979  0.0202
 4886W        W25166  15.188  11.538   4.550  0.0270 -0.3502 -0.2046
 4887W        W25167   0.657  10.212   0.923 -0.1850  0.5774 -0.1450
 4888W        W25168  11.758  16.614   3.489 -0.1770  0.3154  0.0193
 4889W        W25169   6.926  16.912  14.545  0.0355  0.2222  0.2307
 4890W        W25170   9.715   8.742   2.830  0.0807  0.0299  0.1884
 4891W        W25171   4.962   1.896   2.055 -0.1610  0.1137  0.0033
 4892W        W25172   3.337  10.890   4.570 -0.0084 -0.3222 -0.0057
 4893W        W25173   3.009   0.061  16.417 -0.1275 -0.0378  0.1329
 4894W        W25174   9.004   8.231  16.727  0.3231  0.0243  0.1332
 4895W        W25175   6.771   5.105  12.423 -0.1722  0.0820  0.0291
 4896W        W25176   3.504   4.614  13.858 -0.0226 -0.3415  0.0410
 4897W        W25177   5.083   3.712  14.979 -0.1494 -0.2115  0.3201
 4898W        W25178   3.673  13.930   3.099 -0.0311 -0.3327  0.1117
 4899W        W25179   0.991  14.547  14.776 -0.1083 -0.1373 -0.1568
 4900W        W25180   8.607  10.169   0.180 -0.0488 -0.1515  0.3223
 4901W        W25181  17.022   2.665   3.295  0.1295 -0.1165 -0.1337
 4902W        W25182  17.510   7.562  12.920  0.0556 -0.1305  0.1118
 4903W        W25183   5.837  17.348   4.966 -0.1422  0.3469  0.1063
 4904W        W25184   2.963   1.483   1.464  0.0915  0.5021 -0.0428
 4905W        W25185   0.900  15.095   3.502  0.2298 -0.1306 -0.0134
 4906W        W25186  15.095  15.526  13.833 -0.0165  0.1409  0.1728
 4907W        W25187   4.274   5.039   3.607 -0.1759 -0.1954  0.0130
 4908W        W25188   2.331   5.693  16.987  0.0285  0.0651 -0.0644
 4909W        W25189  11.133  11.111   1.646 -0.0769  0.1030 -0.2619
 4910W        W25190  11.384   5.848  15.857  0.0559  0.1256  0.2302
 4911W        W25191   3.595   0.544   0.177  0.4143 -0.0102 -0.2914
 4912W        W25192  10.181   2.137  16.385 -0.0246  0.0334  0.0971
 4913W        W25193  12.138   0.059   0.924  0.1295  0.0946  0.1391
 4914W        W25194  13.688   0.831  13.685 -0.0694 -0.1243 -0.1372
 4915W        W25195   8.296  13.907   1.851 -0.0888 -0.1216  0.3626
 4916W        W25196   6.150   0.219  12.324 -0.1641 -0.0960 -0.4343
 4917W        W25197  15.092  11.130   4.932 -0.2358  0.0376 -0.4700
 4918W        W25198   1.528  14.842  12.832 -0.0083  0.1887  0.2672
 4919W        W25199   1.770   5.931  13.955  0.2655 -0.1286  0.2186
 4920W        W25200  10.933   4.102   2.458 -0.1418  0.0108 -0.0027
 4921W        W25201   3.782   9.932   1.108  0.1312  0.0414 -0.2133
 4922W        W25202   3.142  13.706  12.173 -0.3538  0.2663  0.0909
 4923W        W25203  12.074  15.099  15.158 -0.0118 -0.0554 -0.3024
 4924W        W25204   1.540   9.460  15.092  0.0242 -0.1620 -0.1167
 4925W        W25205  15.963   3.211  12.267  0.1096 -0.0739  0.2570
 4926W        W25206   0.944   9.728   5.049 -0.0976 -0.0268 -0.1787
 4927W        W25207  12.621   5.172  14.047 -0.2063 -0.0020  0.2420
 4928W        W25208  16.618  12.853   0.974 -0.1297  0.0509  0.0679
 4929W        W25209  13.007   6.256   4.394  0.4121 -0.2062 -0.4178
 4930W        W25210   3.321  16.058  16.417  0.0313 -0.2564  0.2880
 4931W        W25211  12.513   0.100  14.582  0.1486 -0.1487 -0.1041
 4932W        W25212  14.367   4.136   2.747 -0.1078 -0.1052 -0.0028
 4933W        W25213  12.039  12.954  16.874  0.1951 -0.1362  0.0863
 4934W        W25214   6.137   6.987   1.242  0.5857 -0.2874 -0.1586
 4935W        W25215   4.638  17.722   3.909  0.0250  0.1083 -0.4222
 4936W        W25216  12.798  13.608  16.891 -0.0101  0.1390 -0.1153
 4937W        W25217   6.564  12.164  15.258  0.3562  0.0440  0.2557
 4938W        W25218  11.285   5.912   3.062 -0.0855 -0.3197 -0.2266
 4939W        W25219   4.301  16.625   1.036  0.2677 -0.1906  0.1736
 4940W        W25220  11.307  12.858  16.109 -0.1317  0.0274 -0.0059
 4941W        W25221  11.606   2.304  14.420 -0.0979 -0.1083 -0.1453
 4942W        W25222   6.474  12.641   0.976  0.0452 -0.1123 -0.1109
 4943W        W25223   9.824  13.991  16.653 -0.0849  0.1627 -0.0756
 4944W        W25224   6.145   6.867  12.378  0.0570  0.0922  0.1675
 4945W        W25225  15.152   7.512  13.678 -0.0337 -0.0115 -0.0106
 4946W        W25226   9.345  10.763  16.558 -0.0660 -0.1481 -0.0203
 4947W        W25227   8.571   6.356  14.885  0.0782 -0.2024 -0.1863
 4948W        W25228   4.370  13.244  14.556 -0.2986  0.2765 -0.0752
 4949W        W25229  15.457   2.017   4.974 -0.3078 -0.1641 -0.1002
 4950W        W25230  12.633  17.698  12.687  0.2428  0.0477  0.0977
 4951W        W25231   4.289   3.371  16.768  0.1589  0.0084 -0.1079
 4952W        W25232  14.138  10.127  13.660  0.0017 -0.1507  0.0621
 4953W        W25233   5.454   9.636  13.662  0.2753 -0.1074 -0.1095
 4954W        W25234   1.117  13.286   2.057  0.0113  0.2310 -0.2006
 4955W        W25235   1.823   5.623   4.873  0.0282  0.0580  0.1499
 4956W        W25236  13.536   3.695   0.774 -0.0441  0.0059  0.1409
 4957W        W25237  16.580   7.957  16.355  0.0416 -0.3370  0.1819
 4958W        W25238   5.607  15.352  13.847  0.1695  0.0233  0.0343
 4959W        W25239  10.202   6.039  15.237 -0.0768  0.1910 -0.1252
 4960W        W25240  15.679   2.071   1.433  0.1249  0.1864  0.2911
 4961W        W25241  11.519   1.568   0.409  0.3602  0.1980 -0.6230
 4962W        W25242  13.480   5.074  16.205  0.1671  0.1561 -0.1476
 4963W        W25243  10.759   7.487  13.929 -0.3852 -0.3030 -0.0588
 4964W        W25244   9.864   3.855   1.468 -0.3103  0.0284 -0.0592
 4965W        W25245   8.513   6.570  15.644  0.1929 -0.2358  0.1968
 4966W        W25246  12.350  14.386  15.075 -0.1988  0.2287  0.0629
 4967W        W25247   7.401   6.332  14.770 -0.1940 -0.2178  0.0289
 4968W        W25248   1.916   1.722   2.979  0.2209 -0.0346 -0.0366
 4969W        W25249   9.246   9.274  15.734  0.3473 -0.1861 -0.0245
 4970W        W25250   5.468   1.752   0.775  0.2082  0.4497  0.2074
 4971W        W25251  13.688  14.009  16.106  0.1577  0.0885 -0.0807
 4972W        W25252   7.535   4.874  13.449  0.2720 -0.3447 -0.1513
 4973W        W25253  11.818   6.221   1.685 -0.2208 -0.0186  0.1349
 4974W        W25254   2.260   2.526   3.745  0.2438  0.0919 -0.3391
 4975W        W25255   2.407   7.217   0.490 -0.0455  0.2849 -0.0872
 4976W        W25256  15.538  16.454   4.454 -0.2041  0.3019 -0.1460
 4977W        W25257  10.407   9.517  16.803  0.1434 -0.0773 -0.1715
 4978W        W25258   9.850   9.470   2.339 -0.0488 -0.3014 -0.1488
 4979W        W25259   9.607  11.535   4.172  0.0758  0.2404 -0.1610
 4980W        W25260   6.786   1.290   5.718 -0.0303  0.0975 -0.2519
 4981W        W25261  12.106  13.276   2.056 -0.0121  0.4453 -0.0011
 4982W        W25262   7.010  13.882   5.181  0.1297 -0.0360  0.2295
 4983W        W25263  12.780  17.565  16.348  0.2685  0.2590  0.3429
 4984W        W25264   1.647   8.170  16.906 -0.1321 -0.0343 -0.1152
 4985W        W25265   7.603   3.891   1.668  0.0603 -0.0163 -0.1305
 4986W        W25266   7.529   5.179  15.576 -0.1066 -0.1878 -0.0557
 4987W        W25267   6.524   0.555  12.389 -0.1454  0.0706 -0.1893
 4988W        W25268   8.067   6.378  15.920 -0.0934 -0.0818 -0.0316
 4989W        W25269   4.259  17.537   2.138 -0.1470 -0.1128 -0.1994
 4990W        W25270   0.007  17.518  15.552 -0.0966  0.0471  0.0480
 4991W        W25271  12.565  10.396  15.737 -0.0543 -0.2184  0.0784
 4992W        W25272   2.431   7.001   3.056 -0.0231 -0.3431 -0.0052
 4993W        W25273   1.724  11.526   3.651  0.3734  0.0207  0.0741
 4994W        W25274   9.621   0.768   2.625 -0.0590 -0.1298  0.0136
 4995W        W25275  13.991   4.291   0.356  0.0112 -0.0426  0.3178
 4996W        W25276  10.421  16.216   3.397 -0.0683 -0.2912 -0.1632
 4997W        W25277   3.136   5.199  14.263  0.2877 -0.1830  0.0696
 4998W        W25278   3.240   6.711   0.530 -0.0833 -0.1794 -0.2268
 4999W        W25279  16.806  16.947  12.585  0.0853 -0.3947  0.2473
 5000W        W25280   3.356   5.539   2.127 -0.0544 -0.0211 -0.0539
 5001W        W25281  16.456  15.141  15.751  0.0380 -0.1478  0.4490
 5002W        W25282   4.285   7.781  12.466  0.2406  0.0169 -0.3053
 5003W        W25283  10.180  11.564  16.940 -0.1584  0.3878 -0.1044
 5004W        W25284  17.206   5.967  15.669  0.0830  0.0455 -0.0341
 5005W        W25285  15.370   8.348  13.450 -0.2799  0.3047  0.1028
 5006W        W25286   4.892  15.467  16.402 -0.0978 -0.0924 -0.1884
 5007W        W25287   3.285   5.738  14.516 -0.0144  0.0186  0.1326
 5008W        W25288  17.583   2.328  13.463 -0.3117 -0.1279 -0.3042
 5009W        W25289   1.099   2.608  16.518 -0.0194  0.1469 -0.5382
 5010W        W25290   1.252   6.937   0.627 -0.0806 -0.1940  0.1003
 5011W        W25291  16.815  16.965   4.414  0.4212 -0.2820 -0.0943
 5012W        W25292   9.185   4.943  16.970  0.0589  0.0706  0.0811
 5013W        W25293   6.143   5.256   4.305  0.0347 -0.3875 -0.0169
 5014W        W25294  15.870  15.937  14.803  0.0068 -0.2172  0.0165
 5015W        W25295   9.392   3.758   4.041  0.0494  0.0526 -0.1889
 5016W        W25296  16.181   5.225  13.165  0.0883  0.2255 -0.1876
 5017W        W25297   8.489  14.573  13.696 -0.1572  0.2746 -0.1093
 5018W        W25298   8.460  13.868   3.525  0.1598  0.1233  0.0944
 5019W        W25299  17.081   8.264   4.942 -0.4456  0.2108  0.1238
 5020W        W25300  12.375   0.611  14.319 -0.0243 -0.1799 -0.2706
 5021W        W25301  15.818   1.996   2.679 -0.2106 -0.0396 -0.0570
 5022W        W25302   6.461   1.628  14.718  0.1484  0.1678 -0.2108
 5023W        W25303   7.925   7.980  14.166  0.0766 -0.0974 -0.0112
 5024W        W25304   2.124   1.664   1.805 -0.0937  0.1205  0.0730
 5025W        W25305   3.083   2.980   4.703 -0.1548 -0.1311 -0.1441
 5026W        W25306   0.073   9.242  16.636  0.0761 -0.2388 -0.2718
 5027W        W25307   3.906   7.745   0.963  0.1872 -0.0848  0.1614
 5028W        W25308   6.392  17.553  13.291 -0.1277 -0.1200  0.1296
 5029W        W25309  13.860  12.578  17.001 -0.0409 -0.1569 -0.0152
 5030W        W25310   9.031  14.111  13.195  0.4626 -0.1678 -0.1687
 5031W        W25311  16.372  12.975  12.470  0.1895 -0.3212 -0.1307
 5032W        W25312  10.232  12.848  14.293 -0.1141 -0.3062  0.1363
 5033W        W25313   3.242   0.067   5.416  0.0838  0.0068 -0.1261
 5034W        W25314   7.978   0.411  14.655  0.0745  0.0558  0.0393
 5035W        W25315  17.516   2.666  16.212 -0.1249  0.2664  0.0002
 5036W        W25316  12.857  16.051   2.015  0.1680 -0.1973 -0.0966
 5037W        W25317  10.514   5.280  12.601  0.2011  0.1964  0.4099
 5038W        W25318  17.240  11.145  13.976 -0.0477 -0.0551 -0.1396
 5039W        W25319   0.162   7.149   4.716 -0.2828 -0.0113 -0.2791
 5040W        W25320   9.886  13.476   1.349  0.2410 -0.4286  0.0698
 5041W        W25321  17.398   5.982  16.763 -0.1621  0.1899 -0.0598
 5042W        W25322   9.383   0.800  13.715 -0.0315  0.1809  0.0769
 5043W        W25323   0.955  10.207   0.048 -0.0834  0.1515 -0.0115
 5044W        W25324  17.294   6.001  12.948  0.0908  0.3584  0.2833
 5045W        W25325   5.454  17.715  14.423 -0.0673  0.2392  0.1076
 5046W        W25326  12.276   6.050   4.818  0.0723  0.1388 -0.0546
 5047W        W25327  12.770   8.912  11.408  0.1888 -0.2360 -0.0345
 5048W        W25328   8.992  14.132   2.902 -0.0055  0.0485 -0.0154
 5049W        W25329   3.687  16.214   3.431  0.5544 -0.2035  0.1619
 5050W        W25330  12.205  10.182   3.230  0.0008 -0.2477  0.2054
 5051W        W25331  11.240   4.054  12.114  0.1026 -0.2376 -0.0038
 5052W        W25332   0.928  10.231  15.360 -0.0278  0.3950  0.0377
 5053W        W25333  10.365   5.420  15.579 -0.0768  0.1072  0.0046
 5054W        W25334  13.025  14.298  13.033  0.2566  0.1325 -0.1122
 5055W        W25335  10.760  10.193   2.569 -0.2823 -0.0064  0.0627
 5056W        W25336   9.833   8.746  13.749 -0.3600  0.0715 -0.2455
 5057W        W25337  12.866  17.142  16.065 -0.0153  0.3137 -0.2452
 5058W        W25338   7.451   6.555  13.021 -0.5549  0.1910  0.0338
 5059W        W25339  13.102  11.529  13.725 -0.1553  0.1260  0.2765
 5060W        W25340  13.637  17.585   5.014  0.2446 -0.0042 -0.1062
 5061W        W25341   9.222   0.983  12.537  0.2435 -0.0052 -0.0360
 5062W        W25342  11.141   7.349   0.632  0.5353 -0.1320 -0.1363
 5063W        W25343   0.912   0.553  12.808 -0.0832 -0.2748 -0.3653
 5064W        W25344  15.429  11.967   3.361  0.0322  0.0334 -0.0965
 5065W        W25345   2.344   9.753   3.008  0.1302 -0.0681 -0.1818
 5066W        W25346   2.255   0.462   1.846  0.0713  0.1912 -0.0771
 5067W        W25347   0.798   4.603   1.101  0.1951  0.3712 -0.3035
 5068W        W25348  13.315   9.663   0.805  0.0234  0.0573 -0.0579
 5069W        W25349  10.767  13.907   1.050 -0.1055  0.0636 -0.0330
 5070W        W25350   1.497  10.753  16.798 -0.1277  0.0227  0.1236
 5071W        W25351  17.315   1.051   2.787  0.0684 -0.2704 -0.0729
 5072W        W25352   3.502  12.021  13.519  0.2937  0.0410 -0.2598
 5073W        W25353   1.659   8.727  14.235 -0.0193 -0.1132 -0.0539
 5074W        W25354   9.278   9.174   0.457 -0.3904 -0.1785 -0.1655
 5075W        W25355   5.225   4.410  16.981  0.0496 -0.4225 -0.1990
 5076W        W25356   5.940  10.561   4.378  0.0503  0.1403 -0.5283
 5077W        W25357   9.443  15.303  13.034 -0.1495 -0.1392 -0.0101
 5078W        W25358   1.287  11.459   0.162 -0.0822  0.0118  0.0840
 5079W        W25359  15.868   0.257   2.009  0.0533  0.1310 -0.0174
 5080W        W25360  10.438   1.715  11.976  0.0765 -0.0647 -0.0804
 5081W        W25361   7.425  15.097   0.148  0.2019  0.0792 -0.1134
 5082W        W25362  11.108   8.532   3.580  0.0131  0.2433  0.1992
 5083W        W25363   2.146   2.266  15.819 -0.0304  0.0067  0.1954
 5084W        W25364  16.492  13.700   0.355 -0.0704  0.0444 -0.0539
 5085W        W25365   7.527   6.464   1.460 -0.1480 -0.1873  0.0484
 5086W        W25366  11.393   3.014  15.516 -0.0192  0.1895  0.3436
 5087W        W25367  13.514   1.598  14.113  0.2421 -0.1041  0.1970
 5088W        W25368   6.230  16.975  16.901 -0.1844 -0.0879  0.0615
 5089W        W25369   3.119   6.347  13.198 -0.1948 -0.1519 -0.3308
 5090W        W25370  10.090   2.616  16.609  0.1301 -0.0357  0.0273
 5091W        W25371  17.061  17.333  16.306 -0.0322 -0.4035  0.0784
 5092W        W25372   6.182   6.367  16.101  0.1531  0.1062 -0.0280
 5093W        W25373  14.481   9.034   3.162  0.0167 -0.1151 -0.5485
 5094W        W25374   4.617  15.935   0.262 -0.0285  0.1392  0.1781
 5095W        W25375  13.845   0.102  16.769  0.1926 -0.2911  0.1021
 5096W        W25376   8.017  13.118  16.381  0.3473  0.3171  0.4228
 5097W        W25377   4.726  17.172   3.829 -0.2675 -0.2369 -0.1521
 5098W        W25378   9.813  14.916   3.461 -0.1481  0.0046 -0.2619
 5099W        W25379   1.323   8.912   1.014 -0.1000 -0.3898  0.0164
 5100W        W25380   0.234   6.898   3.191  0.2434 -0.0949 -0.1466
 5101W        W25381   0.713   2.677  16.821 -0.1890  0.1867  0.0242
 5102W        W25382   5.906   4.654  12.459  0.0703 -0.2026  0.4134
 5103W        W25383   6.574   4.046  12.406  0.0116  0.3496 -0.2869
 5104W        W25384   7.381   9.004   3.816 -0.2891  0.0913 -0.0281
 5105W        W25385  15.349   6.551  13.684  0.2035 -0.1509  0.0183
 5106W        W25386   8.322   3.043   0.597 -0.1846  0.1137 -0.0552
 5107W        W25387  11.546   9.893   0.077  0.3305  0.0464  0.2229
 5108W        W25388  13.593  16.609  13.463 -0.2126 -0.2518 -0.1857
 5109W        W25389   8.995   9.962  13.858  0.0750 -0.1139 -0.2349
 5110W        W25390   1.266   4.999  15.360  0.0943  0.0939 -0.0621
 5111W        W25391   9.001  10.492   2.097  0.3148  0.1802 -0.0773
 5112W        W25392  15.682  12.196   4.779 -0.0690  0.1590 -0.0814
 5113W        W25393  11.630   1.091  14.815  0.0413  0.2361 -0.1999
 5114W        W25394   4.515  13.574  14.186  0.0057  0.2146  0.1272
 5115W        W25395  15.226  16.112   2.965 -0.4932  0.0326  0.0730
 5116W        W25396   0.014  16.958   2.969  0.2717  0.0949 -0.2523
 5117W        W25397   6.470  14.196   1.260  0.0255  0.2006 -0.0882
 5118W        W25398   2.084   8.250   1.902  0.0797  0.0027  0.0021
 5119W        W25399  10.654   4.901  16.425 -0.0565 -0.0494 -0.2764
 5120W        W25400   3.761   5.294  13.011  0.2000  0.3226 -0.2112
 5121W        W25401  11.009   2.634   0.013  0.1731  0.1159 -0.2296
 5122W        W25402   3.539  16.723  14.451  0.1660  0.3829  0.0717
 5123W        W25403   5.814  10.807   3.245  0.0983  0.1325  0.0161
 5124W        W25404   2.029  16.061   3.440  0.4269  0.1141  0.3552
 5125W        W25405   6.392  13.501  14.097  0.1862 -0.0195 -0.0815
 5126W        W25406   1.490  13.417   4.635  0.1156  0.1243 -0.3192
 5127W        W25407   9.931   4.239  12.661 -0.3908 -0.0391  0.0275
 5128W        W25408   2.688   2.314   0.793 -0.1430 -0.0834 -0.3301
 5129W        W25409   4.420   6.614  16.809  0.1523  0.0265 -0.2492
 5130W        W25410   8.559   3.605  12.155 -0.0948 -0.0539  0.3225
 5131W        W25411  13.659   5.767   1.041 -0.1570 -0.3783 -0.1113
 5132W        W25412   4.906  11.673  14.692 -0.0806 -0.2761 -0.0037
 5133W        W25413   5.718   4.222  16.972  0.0207  0.3775 -0.1685
 5134W        W25414  16.322  14.981  16.742  0.0034 -0.1757  0.3850
 5135W        W25415   7.191  10.948   0.995 -0.0655 -0.4103 -0.3158
 5136W        W25416  16.953   9.447  16.423  0.2221 -0.0724  0.1999
 5137W        W25417   1.710  12.591  13.148  0.2073  0.0872 -0.2094
 5138W        W25418   4.362   3.914   1.537  0.0272  0.1472 -0.2367
 5139W        W25419   0.470  11.066   3.559  0.1226 -0.0358 -0.1269
 5140W        W25420  16.305  14.360   1.221 -0.2210  0.2585 -0.1641
 5141W        W25421  13.416  15.789  12.127  0.2387 -0.5853 -0.0329
 5142W        W25422  10.514   9.723   4.756 -0.1392 -0.0580  0.1221
 5143W        W25423   7.379   6.011   1.158 -0.3450  0.0489  0.1553
 5144W        W25424   8.602  10.511  15.649 -0.1539 -0.2454  0.0010
 5145W        W25425   8.913   4.012   3.525 -0.0920  0.0422 -0.1870
 5146W        W25426   0.591   7.325   4.456  0.0254 -0.0652 -0.4088
 5147W        W25427  17.265   6.846  16.989  0.0090  0.4498  0.1794
 5148W        W25428  17.410   1.507   0.487 -0.1033 -0.4327 -0.4094
 5149W        W25429  17.063   4.499  13.585 -0.0559 -0.2691 -0.1331
 5150W        W25430  13.589  15.066  14.407 -0.1099  0.0778  0.0411
 5151W        W25431  14.435   0.823   1.268 -0.1529 -0.4106 -0.1715
 5152W        W25432  13.499   3.975  15.615 -0.1138 -0.2377  0.1519
 5153W        W25433  17.728   6.148  16.374  0.1109 -0.0283  0.1829
 5154W        W25434   4.312   5.848  13.645 -0.1135  0.0623 -0.1295
 5155W        W25435  17.732  10.693   2.329  0.0894  0.0729  0.1410
 5156W        W25436   3.426   7.539  15.422  0.2840 -0.0721  0.0147
 5157W        W25437  14.304   4.375  17.007 -0.1161  0.1531 -0.2884
 5158W        W25438  11.283   1.066   4.917 -0.1790  0.3001 -0.0834
 5159W        W25439  13.353  13.279  15.761  0.0445 -0.1813  0.0540
 5160W        W25440   7.549   3.397  12.591  0.0524  0.2406  0.1802
 5161W        W25441  14.712   5.086   1.960  0.4339 -0.0667 -0.0211
 5162W        W25442   5.083  11.908   0.787 -0.0823 -0.1517 -0.1495
 5163W        W25443   6.005  11.946   4.620  0.0100 -0.2351 -0.0736
 5164W        W25444   4.983   2.617  16.691 -0.1528  0.1345 -0.1121
 5165W        W25445   7.051  14.717   5.111 -0.3461  0.0916  0.0766
 5166W        W25446  16.560   0.481  13.457 -0.0217  0.0005  0.3442
 5167W        W25447   7.539   6.449  14.131  0.0240 -0.0407  0.0198
 5168W        W25448   6.082   1.765  13.997 -0.2489 -0.2636 -0.1776
 5169W        W25449  10.094   6.471   1.861 -0.1490  0.1934  0.0478
 5170W        W25450  12.404  12.862   1.814 -0.0560 -0.0226 -0.0773
 5171W        W25451   3.107   4.562   2.980 -0.0644 -0.3423 -0.0693
 5172W        W25452   8.045  16.732  16.889 -0.3649  0.0264 -0.0752
 5173W        W25453   1.463  15.480  15.182  0.0762  0.0315  0.2535
 5174W        W25454  11.013  16.559   2.769 -0.1733 -0.2602  0.1408
 5175W        W25455  16.933  14.784   0.021 -0.1252 -0.1088  0.0833
 5176W        W25456   0.986   4.085  16.329  0.1390  0.0264 -0.2434
 5177W        W25457   5.847  11.657   5.012 -0.1552 -0.1199 -0.1210
 5178W        W25458  12.380   5.214   0.638  0.0523  0.0854 -0.1010
 5179W        W25459   3.969   6.955   1.710 -0.0718  0.1737 -0.0297
 5180W        W25460  10.204   0.322   3.574 -0.0234 -0.5281  0.1831
 5181W        W25461  13.158  16.120   0.599 -0.1485  0.0051 -0.0969
 5182W        W25462  11.845   2.216   3.468 -0.1903 -0.1795  0.2425
 5183W        W25463  15.627   9.869  14.971 -0.2486 -0.1211  0.2585
 5184W        W25464  17.116   4.993  14.640  0.2550  0.1030 -0.1096
 5185W        W25465  13.061   0.684   4.659 -0.0358  0.0920  0.1918
 5186W        W25466  17.634  16.415   0.961  0.0100  0.1878 -0.1113
 5187W        W25467  12.950   7.624   4.253 -0.2375  0.0543  0.1863
 5188W        W25468   4.508  16.248   2.942  0.0389 -0.0952  0.3234
 5189W        W25469   0.136   6.823  13.882 -0.1128 -0.3800 -0.0039
 5190W        W25470   5.132   6.243  15.815  0.2406 -0.0490 -0.2274
 5191W        W25471   5.683   9.329  16.187  0.0968 -0.0189  0.0158
 5192W        W25472   6.753  13.040  15.844  0.2406  0.2263  0.2403
 5193W        W25473   0.512   4.036   3.830  0.2967 -0.0691  0.3064
 5194W        W25474   5.625   8.429   2.376  0.1078 -0.1836  0.3100
 5195W        W25475  17.561   8.692  13.791  0.2649 -0.1422 -0.0652
 5196W        W25476   2.259   6.479  12.170  0.1910 -0.0214 -0.0020
 5197W        W25477   4.865  13.195   1.307  0.0336 -0.3446  0.1192
 5198W        W25478   9.666   2.952   1.175  0.1737  0.2301  0.2326
 5199W        W25479   6.746   4.830   4.652  0.2609  0.0773 -0.1333
 5200W        W25480  14.318  13.499  16.193 -0.0866  0.1466 -0.1281
 5201W        W25481  13.418   6.189  12.124 -0.0068 -0.3616  0.0990
 5202W        W25482   7.619   6.702  16.012 -0.1274 -0.0911 -0.1173
 5203W        W25483   0.903  14.131   4.552  0.0240 -0.0964  0.3680
 5204W        W25484   5.526  12.027   0.944  0.1795  0.0898 -0.2316
 5205W        W25485   2.150  12.355  12.474  0.2054  0.1640  0.0089
 5206W        W25486  17.640  17.335  17.019  0.0133  0.2154 -0.1442
 5207W        W25487   5.912   0.690   3.329 -0.2930 -0.0350  0.3187
 5208W        W25488  13.388   2.221   0.257  0.0526 -0.2775 -0.1052
 5209W        W25489   4.005   8.873   2.370 -0.1612 -0.4535 -0.1512
 5210W        W25490   6.823  16.002  13.790 -0.1669  0.1756  0.0779
 5211W        W25491  10.326   9.587   2.075 -0.0399 -0.1258 -0.0522
 5212W        W25492  16.464   8.777   2.334 -0.1241  0.1541 -0.5491
 5213W        W25493   9.843  11.104   3.829  0.2764 -0.0373 -0.3120
 5214W        W25494   8.076   9.240   3.425 -0.2205  0.0577 -0.0580
 5215W        W25495   1.181  12.416   4.721  0.1653 -0.2427 -0.0971
 5216W        W25496   0.646   4.001   1.455  0.1689 -0.0610  0.0372
 5217W        W25497   6.802   0.637   4.011  0.3609 -0.2462 -0.1766
 5218W        W25498   1.600   8.325   1.230 -0.0468  0.0524 -0.0058
 5219W        W25499  10.688   9.678   0.168  0.3702 -0.0266  0.0465
 5220W        W25500   2.932   6.367   3.752 -0.0304 -0.1174 -0.0172
 5221W        W25501  14.913  11.771  16.330  0.0358  0.0928 -0.0457
 5222W        W25502   4.967  14.488   3.019  0.1343 -0.0650  0.2064
 5223W        W25503  11.863  11.996  13.552 -0.0546  0.0598  0.0433
 5224W        W25504   3.410   0.721   1.098 -0.2886  0.0486  0.3408
 5225W        W25505  15.091   5.052  13.092  0.0167  0.1428  0.2278
 5226W        W25506  13.231   0.046   1.226  0.3421 -0.3595  0.0619
 5227W        W25507  15.669   8.492   0.227 -0.0330 -0.0327  0.1415
 5228W        W25508   4.850  10.129  16.949 -0.1229 -0.1799  0.0944
 5229W        W25509   9.789  13.719   4.975 -0.1791  0.2114  0.0242
 5230W        W25510   7.725  11.179  13.377  0.0499  0.0668  0.0733
 5231W        W25511   1.261  10.376  15.011 -0.0540 -0.1639  0.0923
 5232W        W25512  14.443  14.402   4.200  0.1892 -0.0468 -0.2705
 5233W        W25513   9.625  12.626   4.807 -0.0406 -0.1196  0.0744
 5234W        W25514  13.831   7.435   1.432  0.0224  0.2089  0.0432
 5235W        W25515  11.465  10.813   4.037  0.5123  0.0967  0.1007
 5236W        W25516   2.545   7.436   0.035  0.0461  0.0550  0.1746
 5237W        W25517   1.162   8.702   5.963  0.0166  0.1351  0.1080
 5238W        W25518   2.505   2.893   0.117 -0.0479  0.2649  0.1502
 5239W        W25519  10.676   6.952   2.558 -0.0073 -0.0761 -0.0435
 5240W        W25520   2.072   9.597   0.901  0.0696  0.0440  0.1307
 5241W        W25521  14.485   3.442   0.484 -0.3815  0.0942  0.2121
 5242W        W25522   9.640   3.840  15.268  0.1504 -0.1137 -0.0437
 5243W        W25523   1.262  10.262  13.758 -0.2112 -0.0419 -0.1019
 5244W        W25524   7.469   4.628   0.575 -0.0228  0.4520  0.1723
 5245W        W25525  17.135   8.190   4.080  0.4662  0.2941 -0.2864
 5246W        W25526   9.440  15.066   2.715 -0.2598  0.0741  0.1040
 5247W        W25527   1.400   8.494  13.092  0.1736 -0.0266  0.1839
 5248W        W25528   5.019  13.976   1.275 -0.1391 -0.2250  0.1340
 5249W        W25529   7.563  13.766   5.008 -0.1537 -0.0111 -0.0504
 5250W        W25530  10.468  16.138   3.980  0.2590  0.0425 -0.0185
 5251W        W25531   2.238  16.306  14.186 -0.1290 -0.0129 -0.1257
 5252W        W25532   2.741  11.267  12.807  0.1531 -0.1820  0.0123
 5253W        W25533   6.327  16.396   2.928  0.2311 -0.1457 -0.2543
 5254W        W25534  12.666  10.815   0.403 -0.2041 -0.2232 -0.0269
 5255W        W25535  15.668   3.855   3.544 -0.2177  0.1181 -0.2199
 5256W        W25536   6.295  16.168   0.933 -0.3525 -0.1490  0.0760
 5257W        W25537   6.243  15.397   0.213  0.0986 -0.2608  0.1983
 5258W        W25538  10.095   1.503  14.125  0.0691  0.0668  0.1592
 5259W        W25539  17.537  17.006   0.971  0.2451 -0.2359 -0.2553
 5260W        W25540  11.913  16.027  14.190 -0.0530 -0.3286  0.0206
 5261W        W25541  12.775   4.519   0.002  0.0305 -0.1193 -0.1164
 5262W        W25542  15.785   6.518  15.686  0.5138  0.1259 -0.0531
 5263W        W25543   9.799   2.845   2.274  0.0350  0.0651 -0.0784
 5264W        W25544   4.204  16.707   2.891  0.0446  0.1423 -0.0915
 5265W        W25545  16.708  17.669   2.653  0.0661  0.0104 -0.0640
 5266W        W25546  10.372   2.098   3.643  0.1312 -0.0555  0.0279
 5267W        W25547  15.568  11.184   4.563  0.1935  0.2475  0.0521
 5268W        W25548   1.305   7.633  12.644  0.0567 -0.1095  0.2479
 5269W        W25549  12.464   2.401  11.949  0.0995  0.4330 -0.2181
 5270W        W25550  14.669   7.143  12.691 -0.0486  0.2535 -0.2218
 5271W        W25551  15.145   0.984  13.795 -0.1086  0.1840  0.2044
 5272W        W25552   7.421  14.459  16.003 -0.1651  0.2448  0.1317
 5273W        W25553  10.584  13.983   0.279 -0.3196 -0.2213 -0.0681
 5274W        W25554  15.476   3.775  16.436 -0.2916  0.0655 -0.2686
 5275W        W25555   3.065  13.066  13.332  0.0672  0.3382 -0.5154
 5276W        W25556  11.551   4.431   4.255 -0.2705  0.0102  0.0419
 5277W        W25557   0.934   1.971   0.571 -0.1010 -0.0573  0.1576
 5278W        W25558  16.864  10.838  13.899  0.3195 -0.0175  0.2569
 5279W        W25559  14.979  17.715   4.154  0.0131  0.2313 -0.0965
 5280W        W25560  15.159   7.197  12.512  0.1627  0.0142 -0.1317
 5281W        W25561  11.136   1.317   1.622  0.1583  0.2664 -0.0825
 5282W        W25562   0.324  13.718  13.804  0.2108 -0.2772 -0.1645
 5283W        W25563   8.195  12.995  14.413 -0.0692  0.0513 -0.0911
 5284W        W25564   0.084  11.024  12.023 -0.2021 -0.0185  0.0541
 5285W        W25565   4.464   4.775  14.094  0.0345 -0.1812 -0.1986
 5286W        W25566  14.306  17.276   1.276 -0.1693 -0.0177 -0.0965
 5287W        W25567   2.159   3.778  16.648  0.0275  0.3213 -0.1959
 5288W        W25568   6.040   8.535  15.375 -0.0515 -0.2092 -0.3700
 5289W        W25569   3.835   2.330   3.007 -0.2395 -0.2381  0.0736
 5290W        W25570   2.360  16.299   0.997 -0.5706 -0.0376 -0.1348
 5291W        W25571  16.354  16.843   3.059 -0.0903  0.2115 -0.0941
 5292W        W25572  11.839   2.170   5.019 -0.0822  0.1743  0.1090
 5293W        W25573  10.215   7.243  12.453 -0.4052  0.0368 -0.2764
 5294W        W25574   9.494   7.825   3.120  0.0600  0.1063 -0.1645
 5295W        W25575   4.983   9.192  16.601  0.0365 -0.0684  0.0746
 5296W        W25576  15.049  17.068   3.462  0.0557  0.1340 -0.1832
 5297W        W25577  13.640  12.632   1.298  0.0574 -0.1566  0.1601
 5298W        W25578   0.029  16.552   0.514  0.0688  0.1259  0.0199
 5299W        W25579  12.235   6.914  15.172  0.1098  0.2554 -0.2185
 5300W        W25580   9.726   4.315  14.178 -0.1676 -0.0952  0.1377
 5301W        W25581   7.689   7.837   3.155 -0.1036  0.2393  0.1754
 5302W        W25582  17.725  15.658   1.582  0.0257  0.0646 -0.0482
 5303W        W25583   3.083   9.518   3.495 -0.0071  0.4018 -0.1569
 5304W        W25584  14.528   3.607   3.259  0.0093 -0.0049 -0.1452
 5305W        W25585  15.524  16.036   4.703 -0.0515 -0.0886 -0.0622
 5306W        W25586   8.822  17.696  12.257 -0.4643  0.0675  0.2963
 5307W        W25587  15.355   2.614   3.440  0.0697  0.2499  0.0239
 5308W        W25588   0.145   8.721  12.524  0.0670  0.4336 -0.0510
 5309W        W25589   1.942   6.778  14.258 -0.1704 -0.3147  0.3520
 5310W        W25590   6.792   2.642  14.717 -0.2174  0.0248 -0.0426
 5311W        W25591   6.921  11.753  15.108  0.0894  0.3200  0.1194
 5312W        W25592   7.043   5.683   0.847 -0.2082  0.1060  0.0028
 5313W        W25593   4.825   9.000  14.044  0.2652  0.1896  0.3072
 5314W        W25594  16.861   2.247   4.252  0.2658 -0.0323 -0.0576
 5315W        W25595   6.408  12.727   0.109 -0.3854 -0.2889 -0.0714
 5316W        W25596   8.754   9.956   4.640  0.1079  0.2768  0.1811
 5317W        W25597  10.296  12.027   1.942  0.0399 -0.4052 -0.0677
 5318W        W25598   7.437  13.691   1.797 -0.1675 -0.1580 -0.0070
 5319W        W25599  14.927   6.569   4.222  0.1570 -0.0422  0.0188
 5320W        W25600  12.373   6.058  11.158 -0.1681  0.0780 -0.1795
 5321W        W25601  10.724   7.522  15.193 -0.2392  0.1028  0.0689
 5322W        W25602   2.051   9.625   4.440  0.2617  0.2023  0.0950
 5323W        W25603  17.094  13.673   3.291 -0.2068  0.0088  0.0304
 5324W        W25604   6.898   9.380  14.141  0.2649 -0.0654 -0.0265
 5325W        W25605  11.379   7.666   1.007  0.2162 -0.0657 -0.3867
 5326W        W25606  12.110   9.305  15.455 -0.1039 -0.0616  0.0845
 5327W        W25607   9.414  17.716   3.867  0.2531  0.1038  0.0820
 5328W        W25608   5.635  10.103   0.792 -0.2407 -0.1550  0.3350
 5329W        W25609   3.713   9.406  12.819  0.1374  0.0932 -0.1166
 5330W        W25610  10.462  14.844   2.139 -0.0494 -0.0502  0.1583
 5331W        W25611  12.228  12.805  13.695  0.0682  0.0748  0.3442
 5332W        W25612   4.264   1.748  12.346  0.0303  0.2626 -0.4518
 5333W        W25613   7.912  16.229   0.011 -0.0017  0.1877  0.2120
 5334W        W25614   5.871  13.852  13.429 -0.2052 -0.0788 -0.0170
 5335W        W25615   3.912   1.614  14.250 -0.3486 -0.0525  0.0747
 5336W        W25616   7.574   9.957   1.738 -0.1024  0.1625  0.1713
 5337W        W25617   0.994  10.994   4.210 -0.1295  0.0483 -0.3296
 5338W        W25618   6.006  13.518   2.565 -0.2805  0.1562  0.1360
 5339W        W25619   0.428  12.659  13.818  0.0061  0.3680 -0.1344
 5340W        W25620   8.619  16.935   3.559 -0.3265 -0.0234  0.2201
 5341W        W25621   3.183  15.701   0.797  0.2098 -0.2860 -0.2753
 5342W        W25622   7.380  12.111  12.593 -0.1003  0.0044 -0.0483
 5343W        W25623  12.981  16.497  14.904  0.0702 -0.0004  0.3156
 5344W        W25624  14.745   1.159   2.796  0.1559  0.1057 -0.0203
 5345W        W25625  11.203  15.556  14.140 -0.0428 -0.2507  0.1064
 5346W        W25626   3.735   8.175   1.809 -0.0248  0.3557  0.2033
 5347W        W25627  12.790  17.541   5.030  0.3311  0.1075 -0.0881
 5348W        W25628   4.283  16.579   4.583 -0.0394 -0.4067 -0.1818
 5349W        W25629  12.581   0.408   2.807 -0.0499  0.0084  0.3599
 5350W        W25630   7.348  16.350   1.307 -0.0581 -0.0151  0.0702
 5351W        W25631   1.485  12.080   4.614 -0.0753 -0.0358 -0.0222
 5352W        W25632   8.192   7.513  13.430  0.0964  0.2831 -0.0740
 5353W        W25633  11.176  15.639   3.860 -0.0722 -0.0133 -0.1015
 5354W        W25634   8.898   1.837   0.991  0.2446 -0.0059  0.2870
 5355W        W25635   7.529  11.573  12.623  0.2547  0.1519  0.0623
 5356W        W25636   2.378   5.858   0.833 -0.3790 -0.2373  0.0403
 5357W        W25637  15.184   9.634  15.209  0.1040 -0.3279 -0.4305
 5358W        W25638   6.917  15.219   3.709 -0.3050  0.2512  0.0717
 5359W        W25639   4.928  15.882   4.393  0.1257  0.1183 -0.2704
 5360W        W25640   9.593   5.334  13.415 -0.0276  0.1333 -0.0669
 5361W        W25641   4.846  12.643   1.079 -0.3779 -0.1116 -0.2689
 5362W        W25642   1.424   0.411  12.286  0.0075 -0.0734 -0.0578
 5363W        W25643  10.928  15.006   2.180  0.1822 -0.1523  0.0258
 5364W        W25644  10.458  16.650   1.201  0.1153  0.0973 -0.2877
 5365W        W25645   5.530   2.196   3.082 -0.1022 -0.0827  0.2121
 5366W        W25646  16.955  16.059  15.893 -0.1284 -0.1959 -0.3510
 5367W        W25647  11.897   7.489  16.194 -0.0066  0.0052 -0.0923
 5368W        W25648  11.309  17.233  13.618 -0.1145  0.1477  0.1921
 5369W        W25649   1.294  10.980  14.479 -0.3194 -0.3058  0.1201
 5370W        W25650   3.600   4.629   0.337 -0.1207 -0.0292 -0.1309
 5371W        W25651  16.135   0.862  13.426  0.0228 -0.2488  0.0052
 5372W        W25652   9.976   2.491  12.284  0.1322 -0.1852 -0.0305
 5373W        W25653   0.653   4.304  15.954 -0.0507  0.3466  0.0843
 5374W        W25654  16.837   2.463  12.972 -0.0510 -0.1047 -0.0418
 5375W        W25655   0.683  11.648   2.895 -0.1015 -0.1232 -0.1237
 5376W        W25656   7.559   0.233   1.031  0.0508  0.1202 -0.2541
 5377W        W25657  13.297   7.208   4.387  0.0144 -0.0083 -0.0625
 5378W        W25658  17.424  11.223  13.043 -0.0669  0.0070 -0.1268
 5379W        W25659   4.542   2.938  14.233 -0.0927  0.0870 -0.0036
 5380W        W25660   6.540  15.107  14.199  0.1116  0.1457  0.1711
 5381W        W25661   3.485   7.090  12.758 -0.1787  0.2121  0.1328
 5382W        W25662  14.021   0.324   2.345 -0.1667 -0.1880  0.1087
 5383W        W25663   9.030   3.225   2.267 -0.0207 -0.3943  0.0117
 5384W        W25664  16.300  10.891   1.006 -0.3036  0.1983  0.0224
 5385W        W25665   2.423   4.009   0.949  0.1072  0.2087 -0.0501
 5386W        W25666   9.447   6.874   0.498 -0.0733 -0.0258 -0.2838
 5387W        W25667  11.512  12.625  15.263  0.1788  0.1690 -0.1267
 5388W        W25668   4.455   2.886   4.610  0.0565 -0.3745  0.0397
 5389W        W25669   4.128  13.139  16.639 -0.3325  0.4294  0.0078
 5390W        W25670  10.733   4.989   2.681 -0.1423 -0.0156 -0.1910
 5391W        W25671   6.305   3.532  13.233  0.3146  0.0688  0.2963
 5392W        W25672   3.450  11.458   1.698  0.5339 -0.3644 -0.0847
 5393W        W25673   9.075  17.221  14.097  0.1062 -0.4472 -0.3585
 5394W        W25674  10.087  15.110   1.817  0.1927 -0.0447 -0.1942
 5395W        W25675  10.713  15.909  12.961  0.1006  0.0935 -0.1184
 5396W        W25676   2.386   6.623   2.693  0.1388 -0.2225  0.0664
 5397W        W25677  13.543  15.940   2.601 -0.1898  0.4526  0.1799
 5398W        W25678  13.621  13.378  16.781  0.0973  0.1622  0.0997
 5399W        W25679  12.286  11.018  16.455 -0.1658 -0.1226  0.3489
 5400W        W25680   3.032  17.632  17.014 -0.1280  0.2307 -0.0639
 5401W        W25681  11.729   2.047  12.992  0.0980 -0.1979  0.0989
 5402W        W25682  10.004  17.590   0.956  0.0513  0.1362 -0.1637
 5403W        W25683  17.400   0.581   2.714 -0.2963  0.0779  0.1554
 5404W        W25684   3.151  12.829   2.452  0.0994  0.0536 -0.1950
 5405W        W25685   0.536  12.955  13.357 -0.0287  0.1421 -0.0480
 5406W        W25686   2.241  14.557  14.041  0.2571 -0.0967  0.3289
 5407W        W25687  10.613   0.376   3.159 -0.0010 -0.1372  0.0746
 5408W        W25688   1.749  11.936   2.304 -0.2644  0.0047 -0.0560
 5409W        W25689   6.258  10.547  15.473  0.1090 -0.0416  0.0403
 5410W        W25690   8.956  13.564  13.688 -0.2506 -0.2039 -0.3301
 5411W        W25691  15.309   6.404  16.385 -0.1631  0.0282 -0.2582
 5412W        W25692   8.510   3.327  13.045  0.1653 -0.2851 -0.0063
 5413W        W25693   2.775  16.265  14.014 -0.1746 -0.0399  0.1200
 5414W        W25694   1.087   6.249   2.752 -0.0564  0.1095 -0.2265
 5415W        W25695   9.216  16.578  16.543 -0.0144  0.2036  0.0407
 5416W        W25696  14.049   0.571  15.567  0.0026  0.0697  0.2658
 5417W        W25697  17.009   2.862  16.703  0.0033 -0.1711 -0.2847
 5418W        W25698  10.690  11.314   1.778  0.2021 -0.2012  0.1969
 5419W        W25699  11.131   7.503   3.527  0.0673 -0.1624  0.0212
 5420W        W25700  12.829   9.992  14.444 -0.2083  0.1994  0.0221
 5421W        W25701  11.885   8.705   3.495  0.2197  0.0209  0.1408
 5422W        W25702   1.796   7.997   3.603 -0.0064  0.0201 -0.0297
 5423W        W25703   6.298  13.727   1.536  0.1855 -0.1326 -0.0648
 5424W        W25704  14.391  16.479   1.718 -0.0556 -0.3395  0.2533
 5425W        W25705  13.022  11.245  15.861  0.0018  0.4844 -0.2034
 5426W        W25706   8.450   1.153  14.958 -0.2056  0.0006 -0.2053
 5427W        W25707  16.284   4.949   0.954 -0.1248 -0.3267 -0.1603
 5428W        W25708  17.208   5.117   3.187 -0.0868 -0.2610 -0.1705
 5429W        W25709   9.118   7.326  14.164 -0.1352  0.0961 -0.1844
 5430W        W25710  13.497   6.453  15.495  0.0787 -0.1209 -0.0939
 5431W        W25711   8.429  12.658   2.148 -0.0404  0.2074  0.1033
 5432W        W25712  12.006  14.478  13.300  0.2042 -0.1616 -0.1534
 5433W        W25713  15.921   6.025   4.326 -0.1249  0.1908 -0.0677
 5434W        W25714  17.644  15.519  16.265 -0.3013 -0.0210 -0.1622
 5435W        W25715  11.735   5.348   2.160  0.2172  0.0331  0.0636
 5436W        W25716   1.576  11.376   0.637  0.0086 -0.0144 -0.2810
 5437W        W25717   8.314   5.551   2.531 -0.5703  0.1036 -0.1877
 5438W        W25718   4.362   2.190   1.338  0.1641  0.2172  0.0425
 5439W        W25719  12.785  16.904  12.318 -0.3879 -0.1113 -0.1664
 5440W        W25720   5.925   7.656   3.955 -0.2150  0.0136 -0.0579
 5441W        W25721   6.723   7.437  12.712  0.0369 -0.2940 -0.0915
 5442W        W25722  14.738   0.990  14.077 -0.2014 -0.1017 -0.0903
 5443W        W25723   1.927  17.179  14.145 -0.2750 -0.0108  0.1603
 5444W        W25724   3.438  11.511  12.326  0.4453  0.1424  0.0403
 5445W        W25725   0.754  10.561   0.442  0.1230 -0.1973  0.0575
 5446W        W25726   3.608  12.555   4.944 -0.0149 -0.0301  0.0729
 5447W        W25727   0.367   1.170   1.017 -0.1349  0.2011 -0.1407
 5448W        W25728   5.634  15.202  14.806 -0.0459  0.0915 -0.2104
 5449W        W25729  11.898  12.375  15.003  0.3117  0.0698 -0.2709
 5450W        W25730   6.078   9.984  14.177 -0.1396 -0.1075 -0.0159
 5451W        W25731   4.418   8.048  14.659 -0.2560  0.0194  0.1722
 5452W        W25732   4.430  11.769  16.256 -0.1260 -0.0937  0.1906
 5453W        W25733  15.979   7.794   1.654 -0.4174  0.2727 -0.0511
 5454W        W25734   3.770   6.045  15.676 -0.0595  0.0556  0.4137
 5455W        W25735  14.897  16.482  15.707 -0.1486  0.0894 -0.0270
 5456W        W25736   7.287   2.896  15.385  0.0051  0.0837  0.0940
 5457W        W25737  10.692   7.470   1.032  0.0583 -0.2002 -0.4533
 5458W        W25738   2.090   7.532  13.670 -0.0692  0.1572  0.1503
 5459W        W25739   2.362   7.934  16.526  0.1460 -0.3533 -0.0572
 5460W        W25740  17.150   6.960   1.446  0.1247 -0.1713  0.2211
 5461W        W25741   5.344   7.552  13.449  0.1474 -0.1321  0.0988
 5462W        W25742  14.914  14.771   0.242 -0.0795  0.2569  0.3595
 5463W        W25743  13.942  11.548  15.135 -0.0983 -0.1060 -0.1143
 5464W        W25744  17.658   2.163   3.963  0.0128  0.2395  0.1673
 5465W        W25745  13.038   6.507   0.971  0.0331  0.1818  0.1249
 5466W        W25746  14.841  14.315   1.790  0.1218 -0.0912  0.0233
 5467W        W25747  10.765   8.100   0.333  0.2741  0.1405 -0.2205
 5468W        W25748   0.914  11.018  13.100  0.1404 -0.2162  0.0337
 5469W        W25749  15.948  13.069  16.869  0.2196  0.0112 -0.0052
 5470W        W25750  10.363   5.759   3.136 -0.0610  0.0570  0.1603
 5471W        W25751   1.610   4.382   1.357  0.1098 -0.0356 -0.0714
 5472W        W25752   8.232   5.131  16.681  0.0137  0.0481  0.0248
 5473W        W25753  11.396  14.075   4.894  0.0989 -0.2392 -0.0128
 5474W        W25754   0.032  12.965  16.629 -0.1305 -0.0270 -0.0505
 5475W        W25755   7.885   2.840   0.418  0.3210  0.0217  0.0375
 5476W        W25756   2.543   7.110  14.322 -0.0959 -0.2965 -0.0776
 5477W        W25757   7.976  11.367  16.734  0.0860  0.0601  0.0192
 5478W        W25758  14.456   1.980  15.334 -0.3342  0.1337  0.0108
 5479W        W25759   6.864   9.638  15.820  0.1366 -0.0563 -0.0485
 5480W        W25760   9.360  10.242   2.621  0.1908 -0.1708  0.0694
 5481W        W25761  17.386   3.970  16.415  0.0071 -0.0467 -0.1320
 5482W        W25762   5.623   9.650   2.459  0.1499  0.3129 -0.0455
 5483W        W25763   2.045  16.867  12.215 -0.1217  0.0333 -0.1504
 5484W        W25764   3.086   8.243  12.608  0.0737 -0.0682 -0.1580
 5485W        W25765   9.116  17.680  13.157  0.0596  0.2104 -0.0693
 5486W        W25766   9.685   0.226   2.692  0.0693  0.0719 -0.1697
 5487W        W25767  16.961  12.366   4.968 -0.0741 -0.0768 -0.0760
 5488W        W25768   8.013  13.541   0.788  0.1503  0.0137  0.2008
 5489W        W25769   0.172   1.573  14.140  0.2129  0.0614 -0.0103
 5490W        W25770   1.286   7.243  12.288 -0.0598 -0.1361  0.0586
 5491W        W25771   4.849   5.253   2.774  0.0128  0.2477 -0.1026
 5492W        W25772  13.739  14.050  13.373 -0.0445 -0.0087 -0.0342
 5493W        W25773   2.637   3.901   3.426 -0.0700 -0.2791  0.3339
 5494W        W25774   6.389   7.731  13.489  0.2111  0.0877  0.0234
 5495W        W25775  15.280  13.618  15.447 -0.0154  0.1011  0.0015
 5496W        W25776   2.834   4.454  15.540  0.0401 -0.1154  0.0142
 5497W        W25777  14.576  17.285  16.140  0.1856  0.0154  0.2083
 5498W        W25778  16.675   7.236  15.595 -0.0151  0.1965  0.2697
 5499W        W25779   9.261  10.239  15.229  0.1017  0.3003 -0.0979
 5500W        W25780  12.611   5.031  12.490 -0.2420 -0.0423 -0.0228
 5501W        W25781  10.002   8.509  15.058 -0.2278  0.1215  0.0192
 5502W        W25782   1.937   2.733  13.718 -0.0242 -0.2431  0.4369
 5503W        W25783  15.770  15.104  13.750 -0.0507 -0.1954  0.0347
 5504W        W25784  11.274   1.370  14.530  0.0861 -0.0263  0.0856
 5505W        W25785  10.183  15.286   2.240 -0.0351 -0.1297 -0.0649
 5506W        W25786   5.481   7.246   3.798  0.2032  0.3104  0.2954
 5507W        W25787  16.240  13.994   0.064 -0.2264  0.1412  0.2401
 5508W        W25788   3.664  17.123  16.075  0.1005  0.3897  0.2206
 5509W        W25789   1.182  13.203  13.168 -0.0369  0.2312 -0.1649
 5510W        W25790  11.040  14.392  13.278  0.3388 -0.2334 -0.0875
 5511W        W25791  11.756  16.726   1.198 -0.1587  0.0056 -0.0940
 5512W        W25792   4.329  13.319  13.351  0.0016  0.0041  0.0678
 5513W        W25793   0.135   3.680   5.053 -0.1135 -0.1424 -0.3003
 5514W        W25794  17.647   7.426   0.852  0.0030 -0.0659  0.3275
 5515W        W25795   6.492   5.400  15.057  0.0410 -0.1525  0.1239
 5516W        W25796  16.140   1.053  16.339  0.3612 -0.2852  0.0005
 5517W        W25797  12.777  12.956  14.364 -0.1201  0.1249  0.3986
 5518W        W25798   4.978  12.548  14.349 -0.1244 -0.2763 -0.4266
 5519W        W25799   4.536  16.979  15.529 -0.2967  0.0162  0.0156
 5520W        W25800  17.217   9.360   1.140 -0.0638  0.1293  0.0321
 5521W        W25801  10.328  13.854  12.019  0.1553 -0.3898  0.1075
 5522W        W25802   7.543  14.253  15.124  0.0257  0.2397  0.1339
 5523W        W25803   4.662  10.831  15.306 -0.0160 -0.0186 -0.0877
 5524W        W25804  13.696   5.861   2.034  0.0189  0.0556 -0.2866
 5525W        W25805  16.159  16.456  16.490 -0.1690 -0.2291 -0.2277
 5526W        W25806   7.882  10.662   2.038  0.2114 -0.1240  0.0168
 5527W        W25807   4.020   2.129  16.661 -0.0374  0.3846  0.4036
 5528W        W25808   7.145   4.387   2.316 -0.2248  0.1595  0.4024
 5529W        W25809   0.734  15.210  14.253 -0.0937 -0.1512  0.0013
 5530W        W25810  12.248   1.362  13.682 -0.1808 -0.1658  0.1339
 5531W        W25811   7.109  12.473  13.964 -0.0815  0.0622 -0.3207
 5532W        W25812  11.794   8.965   4.252  0.0443 -0.1500 -0.1192
 5533W        W25813  11.367  17.037   3.510  0.1794 -0.1339 -0.0831
 5534W        W25814   0.937  10.370  16.278 -0.2549 -0.4221  0.1440
 5535W        W25815   9.746   4.750   3.655 -0.1724 -0.0197  0.2545
 5536W        W25816   3.434  17.553  14.344 -0.1790 -0.1338 -0.0743
 5537W        W25817  15.131   7.147   3.885 -0.2860  0.0130 -0.1448
 5538W        W25818   5.471  15.865   1.745 -0.0729 -0.4037  0.0990
 5539W        W25819   8.223   2.919  12.332 -0.0731 -0.1244 -0.1151
 5540W        W25820  16.763   9.596  13.809  0.0646  0.0460 -0.1335
 5541W        W25821   1.013   9.895  16.611 -0.1725 -0.1632  0.3002
 5542W        W25822   8.452  10.665   1.411 -0.4139 -0.4705  0.0660
 5543W        W25823   8.514  11.571  13.099 -0.0256  0.0281 -0.0662
 5544W        W25824   5.020  12.813  15.405  0.1478 -0.0017  0.3413
 5545W        W25825  14.732   4.486  16.735  0.1356 -0.1110  0.0501
 5546W        W25826   8.652   8.029   2.098 -0.1151  0.0754  0.0551
 5547W        W25827   3.773  11.379  12.893 -0.3098  0.0846  0.0919
 5548W        W25828  15.269   3.527   1.228  0.1681 -0.0576 -0.1634
 5549W        W25829  11.956  16.307   2.260 -0.1221 -0.0298 -0.1586
 5550W        W25830  16.786   9.301  16.875 -0.3516  0.1772 -0.1645
 5551W        W25831   5.654   8.166   1.853 -0.1618 -0.1305 -0.3493
 5552W        W25832   5.628   4.772  14.224 -0.2004 -0.1290 -0.2715
 5553W        W25833  13.345   3.110  13.747 -0.1477  0.1390 -0.1157
 5554W        W25834   9.758   6.045  13.092  0.0292 -0.0878  0.2167
 5555W        W25835   7.325   3.672  14.928  0.1476 -0.2616 -0.0669
 5556W        W25836   3.940  14.367   3.203  0.0552 -0.1724  0.0478
 5557W        W25837  15.572   0.583  13.049  0.1357 -0.4345  0.0589
 5558W        W25838  14.585  13.689  13.469  0.0882 -0.1431 -0.0592
 5559W        W25839   6.021   0.996   1.333 -0.2411 -0.0818  0.0154
 5560W        W25840   7.530  14.674  12.700 -0.1605  0.0611  0.0090
 5561W        W25841   7.150   9.329   0.174 -0.1566  0.0885  0.1327
 5562W        W25842   6.263  12.159  13.136  0.2405  0.1572  0.1941
 5563W        W25843   0.183   0.337   1.146 -0.0149 -0.1693 -0.0533
 5564W        W25844   7.699   4.442   0.193  0.0317 -0.0394  0.1855
 5565W        W25845   4.709  16.243  14.007 -0.1828 -0.0360  0.1206
 5566W        W25846   2.396   0.523  12.305  0.0137 -0.1846  0.1967
 5567W        W25847   6.996   2.221   3.147 -0.2229 -0.0850  0.0476
 5568W        W25848  11.401   9.695  12.779  0.1537  0.1771 -0.1691
 5569W        W25849   2.677   8.488   5.197  0.2466  0.1336 -0.0015
 5570W        W25850  11.872   4.644   0.147 -0.0937  0.3158  0.2025
 5571W        W25851   0.124   2.831  14.682 -0.0243  0.0269 -0.0427
 5572W        W25852   2.320   5.153  12.796  0.0098 -0.0300  0.1646
 5573W        W25853  15.646   8.877  16.347  0.0452  0.1017  0.1243
 5574W        W25854   2.964  17.538  14.288  0.0569  0.1926  0.0000
 5575W        W25855  12.296   8.249   2.130 -0.2078  0.0232  0.0663
 5576W        W25856  11.015   3.388   4.618 -0.3074 -0.0337 -0.3362
 5577W        W25857  11.427   1.180   1.135  0.1139  0.0087  0.1308
 5578W        W25858   8.803  10.812  15.182  0.1255 -0.1155  0.0920
 5579W        W25859  14.416   8.147   1.967 -0.0364  0.0417  0.2789
 5580W        W25860  17.050  12.247   2.917 -0.2245  0.0525  0.3961
 5581W        W25861  14.706   7.822   2.305  0.0341  0.1549 -0.1832
 5582W        W25862   1.387  16.445   1.004 -0.1018  0.0892 -0.2477
 5583W        W25863  12.281  13.845   4.580 -0.1241 -0.2210  0.0747
 5584W        W25864   6.079   8.754   0.167  0.1993 -0.2638  0.2181
 5585W        W25865   1.643   5.170  15.611  0.0417  0.3194  0.1331
 5586W        W25866   6.538   4.300   3.952 -0.3621 -0.1422 -0.1283
 5587W        W25867   0.402  10.115   3.992 -0.1054 -0.5459  0.0830
 5588W        W25868   9.337  12.227   3.335  0.1580 -0.0580 -0.3585
 5589W        W25869   0.820   8.197   1.184  0.0104  0.0675 -0.3897
 5590W        W25870  12.178  14.027   0.763  0.3106 -0.1142  0.1372
 5591W        W25871  11.686  13.326   2.461 -0.1279  0.0710  0.1086
 5592W        W25872  15.862  13.010   0.337  0.2786  0.0800  0.0903
 5593W        W25873   5.172  14.376  12.930  0.0515 -0.1820 -0.1572
 5594W        W25874  12.694  11.164   1.762  0.2185 -0.0417 -0.2084
 5595W        W25875   0.096  17.079   3.996  0.0598 -0.0134 -0.0382
 5596W        W25876  11.279   5.251   3.441  0.0887  0.2443 -0.0172
 5597W        W25877  12.603  14.724   3.787  0.0918  0.1152 -0.2091
 5598W        W25878   5.147   1.668   4.713  0.0648  0.0279  0.0795
 5599W        W25879  15.100  17.495   0.186  0.1388 -0.0143  0.1166
 5600W        W25880  13.992  12.561  15.724  0.1011 -0.2113  0.2106
 5601W        W25881  11.569   9.755   1.514 -0.0830 -0.0151  0.1603
 5602W        W25882  12.165  10.974  12.184  0.0108  0.0374  0.0550
 5603W        W25883   6.984  14.670  13.507 -0.0410 -0.3290  0.2054
 5604W        W25884   9.884   1.359  13.111 -0.2607  0.0382  0.2429
 5605W        W25885   8.087   9.639  15.968 -0.2553 -0.0877  0.1713
 5606W        W25886   9.689   9.659  13.385 -0.0392 -0.3006  0.1100
 5607W        W25887   6.534  12.792  12.984  0.0418  0.0220  0.0896
 5608W        W25888  13.476   1.822   1.442  0.1025  0.1350  0.0336
 5609W        W25889   2.340  10.540  15.162 -0.0806  0.1655 -0.0710
 5610W        W25890  10.560  17.075   1.994 -0.1830 -0.1379  0.1104
 5611W        W25891  14.268  17.450   3.020  0.0654 -0.1384  0.2210
 5612W        W25892   1.259   3.900  13.656  0.0868  0.0173 -0.0898
 5613W        W25893   0.289   1.519  15.968 -0.0044 -0.1785  0.3974
 5614W        W25894   1.001  11.546  13.051  0.1612 -0.1643 -0.4097
 5615W        W25895   0.435   6.179   3.905  0.0579  0.0384 -0.4153
 5616W        W25896   9.466   6.593  12.836  0.0027  0.0587  0.1722
 5617W        W25897  13.199  16.030  13.537 -0.4152  0.0116 -0.1522
 5618W        W25898  17.105  11.504  15.327 -0.1783  0.3448  0.0427
 5619W        W25899  11.534  15.088   0.821 -0.2183  0.0727 -0.0815
 5620W        W25900   2.208   5.046  15.780  0.1729  0.1986 -0.2068
 5621W        W25901   6.174  12.890  14.922  0.0338 -0.1232 -0.1752
 5622W        W25902  14.511  15.579  14.510  0.1505  0.0254  0.0955
 5623W        W25903   4.194   1.000  13.008  0.0713 -0.0167  0.0737
 5624W        W25904   7.504   2.161   4.626  0.1910 -0.0984 -0.3027
 5625W        W25905   2.835  12.011   4.265 -0.0706  0.0010 -0.0089
 5626W        W25906  14.059  16.828  13.449 -0.4073 -0.2949 -0.1621
 5627W        W25907  16.723  16.383   0.523 -0.2769 -0.0962  0.1323
 5628W        W25908   2.918   1.868   1.087  0.1037 -0.3575  0.0750
 5629W        W25909  10.069  15.967  16.621  0.0894 -0.1293 -0.2676
 5630W        W25910   2.945  14.528  14.256  0.0341 -0.3139  0.0712
 5631W        W25911   5.491  13.417   2.976  0.0873  0.2211  0.1625
 5632W        W25912   3.954   6.335  16.817  0.0537  0.1111 -0.0043
 5633W        W25913   9.333  10.016  13.375  0.0256  0.2923 -0.0848
 5634W        W25914   1.875   5.626   1.905  0.1237  0.1644  0.1613
 5635W        W25915   7.333   3.057   2.882  0.1679  0.3645  0.1487
 5636W        W25916  10.984   9.011   2.532  0.2066  0.3229  0.0460
 5637W        W25917   5.137   0.017   5.096  0.0412 -0.1261 -0.1782
 5638W        W25918   3.425  11.749   2.999  0.0781 -0.0943 -0.1697
 5639W        W25919   2.755  10.977   1.205 -0.1910 -0.1498 -0.1208
 5640W        W25920   5.202   9.058   3.162  0.0848  0.1095  0.0046
 5641W        W25921  16.404   3.642  14.522 -0.0459 -0.1271 -0.0964
 5642W        W25922   2.922   6.009  12.818 -0.2116 -0.1505  0.0563
 5643W        W25923  14.726  16.941  14.196 -0.0226  0.1311 -0.2858
 5644W        W25924   1.460   4.567   0.908 -0.0869 -0.2805 -0.1592
 5645W        W25925  14.273   6.237   0.730 -0.0271  0.2377  0.1835
 5646W        W25926   8.320  12.160   1.873  0.0546  0.2569  0.1464
 5647W        W25927  15.131   3.898  12.668 -0.2098 -0.1062  0.3499
 5648W        W25928   2.086   2.626   1.828 -0.4263 -0.2479 -0.1762
 5649W        W25929  17.186  11.224   2.842  0.0004 -0.1650  0.0255
 5650W        W25930  16.732   8.882   1.918  0.1370 -0.0028 -0.0765
 5651W        W25931  10.578  17.495   3.080 -0.3119  0.2242  0.2661
 5652W        W25932   2.785   8.665   0.758 -0.0109  0.1247 -0.1861
 5653W        W25933  14.079  13.049   3.013  0.0906  0.0847  0.0449
 5654W        W25934   3.403   1.676   1.180  0.1872 -0.0660 -0.2878
 5655W        W25935  15.297   0.176  14.360  0.0670  0.4662 -0.3628
 5656W        W25936  16.116   4.600   0.205  0.1271  0.1921  0.0715
 5657W        W25937   5.017   2.764  14.245 -0.1924  0.0563 -0.1461
 5658W        W25938   3.955   8.344   5.309  0.1308 -0.0124  0.0183
 5659W        W25939  11.611   7.676  13.501 -0.0057 -0.0229 -0.0319
 5660W        W25940  16.024  11.504   2.730  0.0223  0.1122  0.0562
 5661W        W25941  16.608   9.381  13.085 -0.0671  0.0067  0.0822
 5662W        W25942  10.267   9.773   1.607 -0.0455 -0.3780 -0.1750
 5663W        W25943  15.263  11.947   4.878  0.0557  0.0761 -0.0809
 5664W        W25944   7.981   1.927  16.466 -0.1547  0.0269  0.0283
 5665W        W25945  13.172  14.758  12.015 -0.2421  0.0085  0.1839
 5666W        W25946  15.553  10.710  14.610  0.0296 -0.3541 -0.2579
 5667W        W25947   3.202  14.944  13.940 -0.1462 -0.2746  0.1389
 5668W        W25948   9.798   7.749   4.266 -0.0016 -0.0380 -0.3233
 5669W        W25949   2.837  17.174  13.888 -0.0440  0.3583 -0.1593
 5670W        W25950   8.659   3.257   0.978  0.0879 -0.1473 -0.2001
 5671W        W25951   3.264   9.583   4.046  0.0921 -0.0364 -0.2135
 5672W        W25952   3.305  12.872   1.368 -0.1729  0.4396  0.1064
 5673W        W25953   5.443  13.874  13.657  0.2544 -0.0098 -0.0866
 5674W        W25954   4.644  16.908  16.801  0.0602 -0.1374 -0.3607
 5675W        W25955  14.396   2.250   1.690 -0.0439 -0.2504  0.0535
 5676W        W25956  15.011   3.021   0.569 -0.0926 -0.1702 -0.1693
 5677W        W25957   9.600  15.958  14.654 -0.2496  0.0039  0.0271
 5678W        W25958  11.659  17.540  12.967 -0.1040  0.1787  0.3605
 5679W        W25959  16.379   1.810  13.899 -0.0201  0.0572 -0.2304
 5680W        W25960   1.719   2.651   2.904  0.1468  0.3052 -0.0213
 5681W        W25961   1.905  15.996   3.932 -0.1083  0.1690 -0.0008
 5682W        W25962  14.376  11.697  15.592  0.1245 -0.3174  0.0332
 5683W        W25963  14.011   8.155   2.224 -0.1983 -0.1529  0.2591
 5684W        W25964   3.452   1.756   3.552 -0.4356  0.0571 -0.0942
 5685W        W25965  12.578  11.277  16.842 -0.0568 -0.1850  0.0339
 5686W        W25966   6.513   2.120   3.202 -0.2198  0.2629  0.0131
 5687W        W25967   3.667   8.916  14.770 -0.1420  0.0844  0.1229
 5688W        W25968  13.943   4.697   0.065 -0.0085 -0.1966  0.2575
 5689W        W25969  12.266   7.974   1.664  0.1052  0.0038 -0.1314
 5690W        W25970  16.080   8.015  16.381  0.1243  0.0986 -0.1685
 5691W        W25971  14.166   8.828  14.923  0.1042  0.0481  0.0018
 5692W        W25972   5.751  16.285  11.874 -0.2092  0.3192 -0.0241
 5693W        W25973   4.664   3.916   4.916 -0.1205  0.1417  0.1869
 5694W        W25974  16.185   4.639   4.460  0.0142 -0.0464 -0.2412
 5695W        W25975   6.367   4.109  15.731  0.5769  0.1571  0.3945
 5696W        W25976   3.387   9.319  14.687 -0.1298 -0.2114  0.1365
 5697W        W25977   3.812   2.990  12.395  0.0038  0.1766  0.1578
 5698W        W25978  15.248  17.570  13.417 -0.1993 -0.2280  0.0263
 5699W        W25979  14.608   9.349  12.778  0.0917  0.2934 -0.4474
 5700W        W25980  15.424   8.616   0.736  0.0789 -0.2024  0.0535
 5701W        W25981   3.703   2.482  15.827  0.4939 -0.4108  0.0124
 5702W        W25982   0.808  11.675  15.666 -0.0456  0.0309 -0.0614
 5703W        W25983   9.429  15.257  15.798 -0.1468  0.1175  0.0849
 5704W        W25984   4.257   1.934  15.661 -0.0885  0.1687 -0.0397
 5705W        W25985  17.540   8.500  15.902 -0.0400  0.1527  0.0217
 5706W        W25986  15.261   0.473  15.606 -0.0748 -0.1824  0.0992
 5707W        W25987  16.026   9.085  15.049 -0.2287  0.2185 -0.0296
 5708W        W25988   9.515   4.224   2.909 -0.0226  0.0364 -0.2134
 5709W        W25989   4.137  16.419  16.218 -0.2682  0.3871  0.0150
 5710W        W25990   7.231  10.260   3.224  0.1628  0.0380  0.2237
 5711W        W25991   8.179  11.223   3.549  0.0028  0.2972  0.0060
 5712W        W25992  13.835   4.505   3.863  0.1108  0.1478 -0.0374
 5713W        W25993   5.159   4.311   3.082 -0.0178  0.0430  0.0884
 5714W        W25994   1.924   0.553   4.688 -0.0230  0.1533  0.1709
 5715W        W25995  17.157  10.303   4.837 -0.0348  0.0639  0.3044
 5716W        W25996   9.333   3.481   0.415 -0.0106  0.1088  0.0153
 5717W        W25997  13.888   3.967   4.050 -0.0600  0.1606  0.3029
 5718W        W25998   4.882  16.674  15.290  0.0145  0.1384 -0.2493
 5719W        W25999  13.039   6.844  14.668  0.0269 -0.1736  0.0136
 5720W        W26000   0.812   1.637  12.084  0.2135 -0.1176 -0.0866
 5721W        W26001   6.865  11.242   3.339  0.0925  0.4264  0.1913
 5722W        W26002  16.877   9.903   4.791  0.2939  0.2883  0.2716
 5723W        W26003  12.801   9.784  13.986 -0.2579 -0.2365 -0.2193
 5724W        W26004   8.918   4.318  12.677 -0.2244  0.0814 -0.0721
 5725W        W26005  14.316  11.194  15.437  0.0042  0.1597 -0.1545
 5726W        W26006   9.657  16.403   2.824 -0.1194  0.0920 -0.1210
 5727W        W26007   4.695  11.310  15.013 -0.1805  0.0939  0.0548
 5728W        W26008   7.330   1.863   3.674  0.0048  0.1890 -0.0851
 5729W        W26009  17.271  15.405   3.519  0.3049  0.1481 -0.4566
 5730W        W26010  15.644  17.324   0.198 -0.1185 -0.1564  0.0040
 5731W        W26011   4.324   3.607  12.770  0.3611 -0.2181  0.0645
 5732W        W26012  11.379   1.386  16.039  0.5819 -0.1732  0.0297
 5733W        W26013   9.510   5.422  16.960 -0.0900 -0.1633  0.0400
 5734W        W26014   6.524   0.278   4.227  0.0843 -0.0426  0.2738
 5735W        W26015   7.577   0.251  16.190 -0.3279  0.2992  0.2022
 5736W        W26016   6.334  17.472  16.653  0.1926 -0.0620 -0.2090
 5737W        W26017   3.810   7.110  12.426 -0.1495  0.2070  0.0568
 5738W        W26018   0.854   6.462  13.431  0.2352  0.4682  0.0983
 5739W        W26019  11.204   6.499   4.793 -0.0408  0.1731 -0.0275
 5740W        W26020   4.068  10.486   1.662 -0.2932 -0.4947  0.0394
 5741W        W26021   3.513   1.142   2.526 -0.3379  0.0738  0.3109
 5742W        W26022   6.248  11.050   1.865 -0.1951  0.1391 -0.1806
 5743W        W26023   8.377   7.533  15.339 -0.1701 -0.0887 -0.2321
 5744W        W26024   8.995  13.535  14.251  0.0618  0.1816  0.3994
 5745W        W26025  12.229   0.982   2.259  0.0584 -0.2542 -0.0189
 5746W        W26026  14.722   5.443   0.026  0.1273 -0.1459 -0.0571
 5747W        W26027   4.065   9.045   0.987 -0.0340  0.1195  0.0502
 5748W        W26028   6.985   4.919  16.836 -0.0788  0.1372  0.0515
 5749W        W26029   9.370   3.786   4.572 -0.2372 -0.0542 -0.0650
 5750W        W26030   7.730  15.740  13.941 -0.4267 -0.2920  0.2348
 5751W        W26031  15.187   0.151   0.484 -0.1477 -0.1397  0.0750
 5752W        W26032  15.664   2.625  16.705  0.0415  0.1179  0.0566
 5753W        W26033   3.336   7.569   4.558  0.0108  0.0266  0.1321
 5754W        W26034  10.525  14.162  12.451  0.0898 -0.1544  0.2106
 5755W        W26035  15.444  13.402   1.423 -0.0224 -0.1595 -0.1608
 5756W        W26036   0.725   9.088   3.178 -0.0512  0.1872  0.0793
 5757W        W26037  11.408   7.977   0.504  0.0204  0.2190 -0.3851
 5758W        W26038   2.241   3.775  13.734  0.2984 -0.3393  0.2386
 5759W        W26039  11.617  12.831   2.594  0.1042  0.2304  0.1114
 5760W        W26040  10.569  14.223   3.189 -0.0845 -0.1731  0.1277
 5761W        W26041  15.732   3.318   1.520 -0.0612  0.1155 -0.2254
 5762W        W26042   8.870   0.317   1.463 -0.1229 -0.0562  0.1374
 5763W        W26043   4.451   9.898  13.811 -0.1657  0.0761  0.1099
 5764W        W26044  13.492   1.905   2.952 -0.1772 -0.0526 -0.3859
 5765W        W26045   9.128   7.243   3.713 -0.4151  0.1201  0.1618
 5766W        W26046   4.201   5.561   3.400 -0.1313 -0.1568  0.1797
 5767W        W26047  11.580  16.223  12.671 -0.1124 -0.1855 -0.0184
 5768W        W26048  11.302  16.675  14.221 -0.1617 -0.3292 -0.2235
 5769W        W26049  14.998  14.130  15.606 -0.0795 -0.1022  0.0769
 5770W        W26050  11.064  16.002   1.156  0.0991  0.0633  0.0832
 5771W        W26051  13.219   2.316   2.904 -0.1995 -0.4250 -0.1587
 5772W        W26052   6.096   6.080  13.390 -0.1110  0.0471 -0.3190
 5773W        W26053   2.872  10.547  16.560  0.1523 -0.1691 -0.1320
 5774W        W26054  15.351  10.974  15.657 -0.1030 -0.0687 -0.1310
 5775W        W26055  11.231  13.445  16.870  0.2487 -0.1892  0.2249
 5776W        W26056   2.881   5.593  15.425  0.1745  0.2645  0.0807
 5777W        W26057  17.628  12.378  15.196 -0.1171  0.0558  0.0120
 5778W        W26058   6.562  11.732   2.319  0.2184 -0.0234  0.0203
 5779W        W26059   0.982  16.367   0.733  0.2809 -0.2889 -0.1804
 5780W        W26060   4.005   5.241   4.002  0.1470  0.3609  0.0820
 5781W        W26061  10.481  14.472   4.206  0.0964 -0.0068 -0.2557
 5782W        W26062   0.693  17.331  16.027  0.0457  0.0329  0.2117
 5783W        W26063   6.663   7.160   4.488 -0.1093 -0.3047 -0.0352
 5784W        W26064   7.787   5.063   0.897  0.1978  0.1557  0.0254
 5785W        W26065  14.682  14.519   1.375  0.0306 -0.0195 -0.0248
 5786W        W26066  14.183  15.281   4.093 -0.0945  0.2608  0.1172
 5787W        W26067   4.388  16.169   0.625 -0.1465  0.1402 -0.0653
 5788W        W26068  13.530   5.405   3.732  0.0580 -0.0672  0.1904
 5789W        W26069  10.970  17.181   2.244  0.1236 -0.2572 -0.1916
 5790W        W26070   4.302   2.270  15.073 -0.2921  0.2371  0.0596
 5791W        W26071   4.302   6.624   4.860 -0.2165 -0.2338  0.1206
 5792W        W26072   4.997   1.280  16.365  0.1282 -0.1877 -0.0885
 5793W        W26073  13.650  10.051   0.795  0.2682 -0.3402 -0.0410
 5794W        W26074   9.883   0.963  14.042  0.3285 -0.3668 -0.0479
 5795W        W26075   9.752   0.375  16.050 -0.1316 -0.1891 -0.0386
 5796W        W26076  10.950   4.757  12.316  0.1737 -0.1084 -0.0767
 5797W        W26077  16.517   7.607   4.411  0.2381 -0.1884  0.2043
 5798W        W26078   7.437   6.469  15.515 -0.0486  0.3281 -0.0199
 5799W        W26079  13.794   3.782  13.143 -0.2401  0.1198  0.0717
 5800W        W26080   3.655   3.162   0.742 -0.2274 -0.2458 -0.2534
 5801W        W26081  12.664   8.674  12.484  0.1534 -0.0999 -0.0274
 5802W        W26082   7.644   0.155   3.544  0.2101 -0.2876 -0.2334
 5803W        W26083  16.086   9.202   2.168 -0.0152 -0.1075 -0.0819
 5804W        W26084   4.610  15.045  11.370 -0.2534  0.1578 -0.1138
 5805W        W26085  16.026  10.120  14.703  0.0033  0.2288 -0.0637
 5806W        W26086   8.726   8.402  15.843  0.2034  0.0533  0.2186
 5807W        W26087   9.373  14.421   4.719  0.0783  0.1355  0.1459
 5808W        W26088  14.930  14.520   4.424  0.0515  0.0876  0.2055
 5809W        W26089   1.960  16.508   3.596 -0.1036  0.2559  0.0820
 5810W        W26090   7.361  11.002  15.548  0.0422  0.0602 -0.0741
 5811W        W26091   7.468   9.496  15.069 -0.0273  0.1571  0.0212
 5812W        W26092   0.761   5.630  15.841  0.0595 -0.0643 -0.1228
 5813W        W26093  11.062  13.095  12.456  0.2366 -0.1296  0.1987
 5814W        W26094   4.254  17.548   1.551 -0.0410  0.0761 -0.3453
 5815W        W26095  12.548   7.522  16.290  0.2262  0.1782 -0.6108
 5816W        W26096  11.798  16.645   2.588 -0.0364  0.2202  0.0370
 5817W        W26097  16.134   9.831  15.171  0.0785  0.5053 -0.3223
 5818W        W26098  15.801  16.145   5.415  0.1735 -0.0299 -0.1785
 5819W        W26099   7.137  11.809   4.269  0.0870  0.4297 -0.2162
 5820W        W26100  13.777   9.908  12.507  0.1736  0.1530 -0.2012
 5821W        W26101   5.665   5.337   2.095  0.1503 -0.0321  0.1657
 5822W        W26102   0.127   9.742   1.961 -0.0642  0.1404  0.1043
 5823W        W26103   9.061   4.210   4.123 -0.3161  0.1278 -0.1232
 5824W        W26104   8.101  16.305   5.197  0.2303  0.1646 -0.0055
 5825W        W26105  14.640   7.787   5.027 -0.0366  0.0232 -0.1742
 5826W        W26106   9.668   4.329   0.243  0.3387  0.2045  0.1951
 5827W        W26107   6.052  11.643  15.945 -0.0967 -0.1650 -0.3105
 5828W        W26108  17.644  13.556  12.917  0.2280 -0.0165 -0.1917
 5829W        W26109  10.086  15.122  15.910  0.3447 -0.2965  0.0631
 5830W        W26110  13.025   3.695  13.011 -0.1022 -0.1765 -0.1737
 5831W        W26111   0.540  14.053  16.672 -0.5766 -0.1047  0.3627
 5832W        W26112  13.919  10.676  11.325  0.1687 -0.0988 -0.0029
 5833W        W26113  15.476  13.812  12.572 -0.2313  0.4154 -0.1356
 5834W        W26114  12.942  16.972   1.112  0.4845 -0.2568  0.2587
 5835W        W26115   2.709   8.164  13.286 -0.1752  0.2199  0.2598
 5836W        W26116   8.416  11.445   2.930  0.1382  0.1894 -0.0406
 5837W        W26117  15.846   8.445  16.708  0.1184 -0.2310 -0.0713
 5838W        W26118   2.597  17.132   3.484  0.0722  0.3570  0.0482
 5839W        W26119   8.406  15.431  15.066 -0.0123 -0.0629 -0.0937
 5840W        W26120  14.223   7.475  13.233  0.1840  0.1451  0.0039
 5841W        W26121   1.238  14.574   1.417  0.1591  0.1171 -0.0212
 5842W        W26122   9.017   8.215   3.640  0.0751  0.1959  0.2261
 5843W        W26123   2.704  12.633   2.145  0.0552 -0.0341  0.1894
 5844W        W26124  15.427  14.549  14.713 -0.0054 -0.0211  0.0687
 5845W        W26125  14.544   1.349  14.893  0.1482  0.0425 -0.0179
 5846W        W26126  11.504   1.794  14.371 -0.0937  0.3021  0.0518
 5847W        W26127  17.011   8.620   3.281 -0.2417 -0.3844  0.2188
 5848W        W26128  17.491   9.123   1.584 -0.0419 -0.1704 -0.1393
 5849W        W26129   1.224  16.568   1.468 -0.3984 -0.1781  0.0744
 5850W        W26130  10.189  15.194  13.195 -0.2360  0.1501 -0.4410
 5851W        W26131   7.896   0.700   2.798 -0.3010  0.3011  0.1472
 5852W        W26132   1.822  10.066   4.590  0.0526  0.3731  0.0331
 5853W        W26133  13.301  14.503  15.319  0.2513 -0.1367 -0.0758
 5854W        W26134   0.208   6.573   0.429  0.3558  0.0944  0.4237
 5855W        W26135   8.737  12.110  15.534 -0.0525 -0.0305  0.0916
 5856W        W26136   7.418   8.286   4.153 -0.0547 -0.2748  0.1391
 5857W        W26137  11.999   6.144   4.310 -0.0577  0.0411 -0.1469
 5858W        W26138  13.818   5.548   0.325  0.0800 -0.4344 -0.1038
 5859W        W26139   2.741   3.168   1.303  0.2147 -0.1948 -0.0941
 5860W        W26140   1.509   6.986  13.230 -0.3444 -0.0430 -0.1429
 5861W        W26141  17.043   9.953  14.154 -0.0917  0.0005  0.1330
 5862W        W26142  13.785   7.516  14.184 -0.1013  0.2301 -0.1334
 5863W        W26143  11.949  15.134  16.154  0.2941 -0.0875  0.1931
 5864W        W26144   7.623   1.782   2.337 -0.2560 -0.1733  0.0311
 5865W        W26145   9.388  13.933   0.485  0.0885 -0.3098 -0.0504
 5866W        W26146  13.658   7.971   3.577 -0.0244  0.1576 -0.3031
 5867W        W26147   7.509   9.600  14.469  0.1189  0.2524 -0.0496
 5868W        W26148   9.372  14.579  13.437  0.0923 -0.0264 -0.0337
 5869W        W26149   8.228   3.141  14.084  0.2612  0.1524 -0.0228
 5870W        W26150   7.438   5.861   2.236  0.1818 -0.0704 -0.0762
 5871W        W26151  15.001   8.312   3.054 -0.0288  0.0754  0.0463
 5872W        W26152   0.738  14.434  13.017  0.0990 -0.1150  0.0603
 5873W        W26153  16.918  11.631  15.881  0.1158 -0.3100 -0.0253
 5874W        W26154   4.612  13.036  15.928  0.2152  0.0371 -0.2359
 5875W        W26155  14.030   8.387  14.659  0.1175  0.5626  0.4279
 5876W        W26156   0.596   1.833  16.100  0.1172  0.0664 -0.1466
 5877W        W26157  16.181   5.601   4.757 -0.0584 -0.4257 -0.1474
 5878W        W26158   2.996   2.668   2.816  0.3849  0.1608 -0.3971
 5879W        W26159   3.981   9.211   3.919 -0.1591 -0.3179  0.2206
 5880W        W26160   0.617   4.493   1.578  0.0610 -0.0366 -0.0589
 5881W        W26161   3.049   5.328  13.678  0.0675 -0.1432 -0.0685
 5882W        W26162   5.852  15.801   4.685 -0.3443 -0.1724 -0.1384
 5883W        W26163   4.382  13.860   0.710 -0.1795 -0.1356  0.0496
 5884W        W26164   1.535   4.363  16.278  0.5996 -0.1016  0.2527
 5885W        W26165   5.393   6.160  14.847  0.0061  0.3387  0.0103
 5886W        W26166   4.333   3.658  15.555 -0.0866 -0.2881 -0.0468
 5887W        W26167   5.790  12.304  15.484 -0.0545 -0.1305  0.1552
 5888W        W26168  12.779   8.365   2.051 -0.2283  0.0014 -0.2022
 5889W        W26169  17.254   5.498   2.215 -0.0638  0.1287 -0.4065
 5890W        W26170  10.063   4.140  13.681  0.0588 -0.3681  0.4655
 5891W        W26171   1.311  14.927   0.426 -0.2440  0.2564 -0.0564
 5892W        W26172  15.576  14.980   0.984 -0.1016  0.3285 -0.1812
 5893W        W26173  15.153  14.103  13.552  0.0275  0.1227 -0.0171
 5894W        W26174   8.213   6.431   0.807  0.0536 -0.0404 -0.1619
 5895W        W26175   0.343   1.891   1.471 -0.0842  0.1317  0.4837
 5896W        W26176  12.748   9.251   4.547  0.2892 -0.1424 -0.0017
 5897W        W26177  14.851   5.667  16.493 -0.0378 -0.1645 -0.3325
 5898W        W26178   0.577   1.557  16.948 -0.1595  0.0547  0.0150
 5899W        W26179   6.355  17.154   0.836 -0.6039 -0.3020 -0.2859
 5900W        W26180  13.515   8.171   4.017  0.1505 -0.1187 -0.2020
 5901W        W26181  14.128   0.426  15.080  0.3741 -0.1086  0.2459
 5902W        W26182   6.747   8.413   3.127 -0.4343 -0.0130 -0.0546
 5903W        W26183   1.044  14.815  14.227  0.0471  0.0430 -0.0275
 5904W        W26184   4.736   0.581  16.180  0.0735  0.2814  0.0942
 5905W        W26185   9.620   9.602  12.600  0.1111  0.0658  0.3702
 5906W        W26186   5.252   4.855   2.828  0.1913  0.1881 -0.2463
 5907W        W26187  17.502   7.020  15.509  0.1076 -0.1466 -0.2485
 5908W        W26188  12.304  13.198  12.420  0.3760  0.0620  0.0883
 5909W        W26189   0.342   0.627  12.995 -0.3657 -0.2402 -0.0192
 5910W        W26190  14.874  15.778   2.847 -0.0557  0.1243  0.0994
 5911W        W26191   0.682  10.974  16.961 -0.2226  0.2095  0.4525
 5912W        W26192  10.622   4.165   1.739 -0.0409 -0.2030  0.0108
 5913W        W26193  16.937   6.076  16.540  0.1292  0.0875  0.0051
 5914W        W26194   9.241   0.999   2.848  0.0213 -0.1901  0.3163
 5915W        W26195  12.690  10.305  15.242  0.1515  0.1597  0.0693
 5916W        W26196  12.895  11.709   0.317 -0.0652 -0.0165 -0.1664
 5917W        W26197  11.214   5.961   4.077  0.0541  0.0964 -0.3084
 5918W        W26198   3.421  13.183  15.643  0.0475  0.0103 -0.2765
 5919W        W26199  14.208  14.687  13.973  0.1104 -0.0877  0.1716
 5920W        W26200  12.432   5.345   0.081  0.0654 -0.0216  0.1437
 5921W        W26201   0.522   1.808   0.795 -0.0556  0.0810 -0.0597
 5922W        W26202   7.901   7.849  15.997  0.4517  0.0220 -0.0835
 5923W        W26203   3.198  15.408   1.255 -0.0413 -0.0581 -0.0252
 5924W        W26204   3.584  13.668  14.562 -0.2666 -0.3202  0.0842
 5925W        W26205  11.035  11.237   1.116  0.1401  0.2321  0.0033
 5926W        W26206  12.648  16.728  16.369 -0.0011 -0.1376 -0.0673
 5927W        W26207  15.385  12.373   1.433  0.0079  0.2562 -0.1874
 5928W        W26208  12.472  12.473   1.305  0.2933  0.0502 -0.3482
 5929W        W26209   9.957   7.266  12.884 -0.4864  0.1130  0.1523
 5930W        W26210  15.153  17.294  12.961  0.0319 -0.0012 -0.2197
 5931W        W26211  17.348   0.177  13.441 -0.1803 -0.2922 -0.1736
 5932W        W26212  11.803   0.078  13.906  0.0894 -0.2177  0.1833
 5933W        W26213  17.303   4.553   2.531 -0.1031  0.1043  0.2171
 5934W        W26214   2.116   1.145  14.427  0.0124  0.4099 -0.1768
 5935W        W26215  13.659   6.181  16.271 -0.0456  0.0120 -0.2587
 5936W        W26216  15.404  12.017   4.403 -0.0854  0.1322  0.2894
 5937W        W26217   1.154   3.324   3.354 -0.2036  0.0183 -0.2668
 5938W        W26218   0.301  14.214  12.916 -0.0600 -0.3715  0.0649
 5939W        W26219  11.451  14.798   4.292 -0.2727  0.0347  0.2041
 5940W        W26220  11.887  14.781   3.136  0.2256 -0.2494  0.1563
 5941W        W26221   8.586   8.732   5.378 -0.0042 -0.1208 -0.0086
 5942W        W26222   1.701   0.522  15.541  0.1190  0.4959 -0.3922
 5943W        W26223   2.930   0.515  15.973 -0.0387  0.0858 -0.2252
 5944W        W26224  11.883   8.213   2.970 -0.1932 -0.2851 -0.1322
 5945W        W26225   6.121   1.474  12.461  0.2592 -0.0728  0.2300
 5946W        W26226  10.827  16.675   2.281  0.1550 -0.1367  0.2579
 5947W        W26227   5.546  13.562  12.756  0.4806 -0.0203 -0.1988
 5948W        W26228  16.957  10.968  14.409  0.0036  0.1079  0.0374
 5949W        W26229   2.159   8.722  15.483 -0.1590  0.2045  0.1962
 5950W        W26230  14.900  12.328  16.408  0.0543 -0.0532  0.0445
 5951W        W26231   9.735   5.460   1.231  0.1084 -0.2269  0.1538
 5952W        W26232  14.574  10.187  13.458  0.1024  0.1342  0.1351
 5953W        W26233  16.719  14.557   1.608  0.3198  0.0534 -0.0947
 5954W        W26234   8.659   6.845  14.800 -0.0668 -0.0112 -0.0418
 5955W        W26235   3.878  17.660  12.188 -0.0771 -0.0776 -0.0136
 5956W        W26236   3.570  16.971  14.023 -0.1607 -0.1121  0.3152
 5957W        W26237  10.448   3.330   2.860  0.1063 -0.2304  0.1006
 5958W        W26238  17.480   5.136  12.788  0.2508  0.1579  0.0934
 5959W        W26239   7.818   9.056  12.474 -0.0698 -0.0207 -0.2380
 5960W        W26240  11.292  15.680  16.250 -0.0751  0.0460  0.1011
 5961W        W26241  15.785   6.005   1.407  0.2910  0.2580  0.4467
 5962W        W26242   1.887  13.104   1.949 -0.0423 -0.3325 -0.2871
 5963W        W26243   3.148  15.504  13.302 -0.0466  0.1670  0.2168
 5964W        W26244   7.559  15.782   3.789  0.0904  0.0151 -0.2242
 5965W        W26245  12.169   9.418  14.154 -0.1085 -0.1456 -0.0371
 5966W        W26246  16.840  15.047  11.977 -0.3019 -0.1359 -0.0742
 5967W        W26247  10.693  15.127  10.523  0.2059  0.1207 -0.0142
 5968W        W26248   2.030   5.543  13.725  0.2306  0.0743 -0.1970
 5969W        W26249   5.499   7.429   4.230  0.1631 -0.1131 -0.2166
 5970W        W26250   7.937  15.727   0.478  0.2187 -0.3420  0.2111
 5971W        W26251   4.830   3.337  14.094 -0.0607  0.0580  0.2045
 5972W        W26252   3.191   4.988  16.574  0.2095  0.3587  0.0930
 5973W        W26253  13.279   9.840  12.192  0.0717  0.0260 -0.0805
 5974W        W26254   9.705  11.616   2.685  0.0404  0.0606 -0.0919
 5975W        W26255  12.312   1.473  14.391  0.1691 -0.1728 -0.2674
 5976W        W26256   0.050   0.593   2.241  0.0017 -0.2180  0.2318
 5977W        W26257  10.338   3.094  12.840 -0.3594  0.0317 -0.1527
 5978W        W26258  16.197   0.869   2.441 -0.0081  0.2349  0.1167
 5979W        W26259  14.469  13.538  15.115 -0.0062  0.2789 -0.0917
 5980W        W26260  16.941  16.254   1.816 -0.1237 -0.1446 -0.0886
 5981W        W26261   7.942   5.443  16.376  0.0948 -0.0136 -0.2225
 5982W        W26262  15.015  12.666   1.652  0.3322  0.1880 -0.4924
 5983W        W26263  13.429   0.367   4.638  0.1045 -0.0400  0.2021
 5984W        W26264   6.582   7.114   1.364  0.0927 -0.0007 -0.0217
 5985W        W26265   9.195  11.296  16.705  0.2064  0.2524 -0.0116
 5986W        W26266  13.280   7.288  12.328  0.1081 -0.2339 -0.0880
 5987W        W26267  12.075  11.973  15.220 -0.1585 -0.1162 -0.1264
 5988W        W26268   1.392  16.540  13.089  0.1802 -0.0077  0.2568
 5989W        W26269  11.434   8.958  14.026  0.0445  0.0317 -0.0350
 5990W        W26270   3.321   3.926   4.641 -0.1230  0.2832  0.1555
 5991W        W26271  14.673   7.634  13.062  0.2772 -0.1030 -0.1964
 5992W        W26272   2.657  14.966  14.210  0.0652 -0.1529  0.1654
 5993W        W26273   2.117  15.126  15.937 -0.3246  0.0438  0.2430
 5994W        W26274   8.085  15.333  13.247 -0.0442 -0.0107 -0.3353
 5995W        W26275  14.075   1.641  13.149 -0.0328  0.2403 -0.0644
 5996W        W26276   7.449   9.854   2.443  0.0410  0.2985  0.3015
 5997W        W26277  15.544   8.088   3.705  0.0419  0.0263 -0.0598
 5998W        W26278   5.942   7.486  13.568  0.0824 -0.0142 -0.0753
 5999W        W26279   7.386   8.678   1.014  0.0479 -0.0218 -0.1022
 6000W        W26280   6.499   9.307  15.944 -0.0272 -0.1699  0.3068
 6001W        W26281   7.080   2.877  15.906  0.0503 -0.0093 -0.1400
 6002W        W26282  16.386  15.462   3.986  0.2377  0.0099 -0.1474
 6003W        W26283   1.281   5.228   4.951  0.2264 -0.5149 -0.1518
 6004W        W26284   6.324  13.118   3.602 -0.0841 -0.0298 -0.2568
 6005W        W26285  12.013   8.419   3.918 -0.0574  0.4772  0.0764
 6006W        W26286   4.476  16.441   1.978  0.0013 -0.1253 -0.3878
 6007W        W26287   7.525  15.922   2.000 -0.0758 -0.0703 -0.2506
 6008W        W26288  17.233  13.263  13.794 -0.1946 -0.0203  0.2426
 6009W        W26289   8.698   7.144   4.619  0.2227 -0.2460 -0.3587
 6010W        W26290   2.721  14.983   2.829 -0.0679  0.1063 -0.2449
 6011W        W26291  16.427   1.846   0.462 -0.0060 -0.2314 -0.2053
 6012W        W26292  16.997   3.648   2.253  0.0853  0.0481  0.1699
 6013W        W26293  11.383   8.861   0.989  0.0170 -0.3411 -0.1696
 6014W        W26294   4.546   7.944   2.493 -0.1468 -0.2985 -0.2016
 6015W        W26295   3.798   8.720  14.231 -0.2266  0.1040  0.2052
 6016W        W26296   2.547   1.447   1.771 -0.0741 -0.3013  0.1094
 6017W        W26297  10.730  16.334  15.368  0.1649  0.1134  0.0425
 6018W        W26298  16.020   1.519  14.663  0.1339  0.2462 -0.2505
 6019W        W26299   7.142  17.390   4.812  0.0545 -0.1739  0.1150
 6020W        W26300   2.394  13.464   4.995 -0.0230  0.1789 -0.2456
 6021W        W26301   9.405   7.529   2.450  0.1683 -0.0228 -0.0617
 6022W        W26302   6.638   7.409  16.777  0.0790 -0.0730 -0.2677
 6023W        W26303   7.234  16.676  14.837 -0.2438  0.1742  0.1448
 6024W        W26304  14.197   7.144   1.645  0.0567  0.2145 -0.0559
 6025W        W26305   4.009   6.802   1.245  0.0898 -0.1393  0.2506
 6026W        W26306   5.050   9.017   4.229  0.0432  0.0384 -0.1777
 6027W        W26307  13.763   5.110   3.319  0.0310 -0.4748 -0.2724
 6028W        W26308  11.589  13.112  13.013 -0.0662  0.1997  0.0702
 6029W        W26309   2.267   6.019   3.263  0.1705  0.1285 -0.1731
 6030W        W26310  13.558  12.845  15.528  0.1805  0.0079 -0.0074
 6031W        W26311   7.490  14.084  14.459 -0.0955  0.1636  0.0830
 6032W        W26312   5.369   6.597  13.415  0.0475  0.0613 -0.0663
 6033W        W26313  11.320  12.670   0.808  0.1938 -0.2327  0.1753
 6034W        W26314   8.320  10.008  16.734 -0.1728 -0.0906 -0.1111
 6035W        W26315  16.770  15.686  16.229  0.0224 -0.0747 -0.0234
 6036W        W26316   0.170   1.093  16.430 -0.1597 -0.0503  0.1856
 6037W        W26317  10.546  11.137  16.751 -0.0901 -0.1083  0.1089
 6038W        W26318   3.202  15.088  12.098  0.0981 -0.1955 -0.0445
 6039W        W26319   9.085  12.752   3.477 -0.0117  0.0450  0.1895
 6040W        W26320   1.163   8.738   3.510  0.1874 -0.2959 -0.2345
 6041W        W26321   8.224   3.097   2.970  0.0102  0.2206  0.0876
 6042W        W26322   1.969   2.811   2.252 -0.0393  0.0793  0.0095
 6043W        W26323  15.119   3.144  14.982  0.0842 -0.3204  0.1185
 6044W        W26324   8.150  13.788  16.142  0.3508  0.1426  0.0193
 6045W        W26325  12.899  14.974   1.857 -0.2365  0.0445  0.1252
 6046W        W26326   2.480   0.981   0.254 -0.0071  0.0125 -0.1403
 6047W        W26327  15.434   0.071   1.400  0.1089 -0.1379  0.2164
 6048W        W26328  11.747  17.531   0.780  0.1029 -0.0400 -0.0342
 6049W        W26329  12.019   9.254   0.397  0.0358 -0.0480 -0.1090
 6050W        W26330   9.512   3.330   0.858  0.2962  0.0045  0.1117
 6051W        W26331   3.404  16.315  14.672 -0.1338  0.0933  0.2359
 6052W        W26332   3.129  11.865  15.952  0.2035 -0.0376  0.2975
 6053W        W26333  10.948  17.449  12.158  0.1272  0.0678 -0.1265
 6054W        W26334  16.602  12.612   3.670 -0.1058  0.2548 -0.3160
 6055W        W26335  11.491   7.758   2.100 -0.1874 -0.0085 -0.0653
 6056W        W26336  17.345   6.767  14.136  0.0244  0.0522  0.2856
 6057W        W26337   5.559   9.407  15.369  0.0739  0.0091 -0.0509
 6058W        W26338  14.029   3.183  16.440 -0.0148 -0.2227 -0.2359
 6059W        W26339   5.325   8.390  14.857 -0.1116  0.1499 -0.1183
 6060W        W26340   5.662   2.119   1.235 -0.1387  0.1298  0.0445
 6061W        W26341   2.034  10.800  13.288 -0.1637 -0.1531  0.1167
 6062W        W26342   0.561   2.588  13.103  0.0520 -0.2801  0.0761
 6063W        W26343  11.219  15.907   0.678 -0.1283 -0.0110  0.1024
 6064W        W26344   0.320  14.610  16.391  0.1349 -0.1549  0.0358
 6065W        W26345  17.633   8.221  16.821 -0.1446  0.2638 -0.0216
 6066W        W26346   4.215  12.499   1.830 -0.1035  0.3148 -0.0630
 6067W        W26347  14.661  10.524   4.172 -0.0211 -0.1789 -0.1451
 6068W        W26348   6.696   8.350   0.909  0.2217  0.0223 -0.1723
 6069W        W26349   2.563  12.667   4.505  0.2094 -0.0384  0.1100
 6070W        W26350   4.426  11.460   1.664  0.2155 -0.0956 -0.0622
 6071W        W26351  15.255   6.415  14.658 -0.2361 -0.3198  0.0187
 6072W        W26352   7.257  15.458   3.432  0.3184 -0.1222  0.0994
 6073W        W26353  13.986   8.582   4.612 -0.1307  0.0168  0.1771
 6074W        W26354   6.762   6.615  16.522  0.4378  0.0047  0.0129
 6075W        W26355  16.944   6.025   1.268 -0.1247 -0.1485 -0.1273
 6076W        W26356   9.078   3.521  15.687 -0.0680  0.0966  0.4127
 6077W        W26357   4.196   8.543   4.859 -0.1921 -0.3509  0.0348
 6078W        W26358   0.050   5.164   3.951  0.3558  0.2084 -0.1264
 6079W        W26359  16.380   9.316   0.744 -0.1930 -0.0629 -0.0536
 6080W        W26360   3.273  13.759  14.930  0.0570  0.2129 -0.0163
 6081W        W26361  10.003  16.463  12.666 -0.0968  0.1255 -0.0971
 6082W        W26362   4.316  13.285   2.900  0.3153 -0.2203  0.1285
 6083W        W26363  10.380   5.167  13.491 -0.1830  0.0065  0.0155
 6084W        W26364  17.689   9.172   1.135  0.0861 -0.0158 -0.1664
 6085W        W26365   8.888   6.407  12.812 -0.0376  0.0847  0.0317
 6086W        W26366  14.246  13.097   4.226 -0.2543 -0.2160  0.1610
 6087W        W26367   1.482  17.257  16.528  0.1155 -0.0319 -0.0577
 6088W        W26368   1.996   2.235   1.543 -0.4854  0.2334 -0.0739
 6089W        W26369  11.887  12.817  12.333 -0.0897 -0.0328 -0.0615
 6090W        W26370   5.657   8.488  16.956 -0.1610 -0.1943 -0.1314
 6091W        W26371  14.313   9.155   1.889  0.0557 -0.3015  0.1408
 6092W        W26372   8.951  12.312  13.318 -0.1484  0.0480 -0.2120
 6093W        W26373   0.211  13.830   1.684 -0.1168 -0.0515 -0.0506
 6094W        W26374   6.655   5.534   4.125  0.2195  0.0425  0.4428
 6095W        W26375   6.722   5.049  16.149 -0.4670  0.0423  0.0029
 6096W        W26376  17.209   9.688   3.987  0.0629 -0.3341 -0.1590
 6097W        W26377  17.637  10.188   3.473 -0.1217 -0.0753 -0.0824
 6098W        W26378   2.067   9.585   1.402 -0.1355  0.1141  0.3286
 6099W        W26379   9.273   0.161   4.366  0.0201 -0.0215  0.0075
 6100W        W26380  13.527  10.537   3.576 -0.2160  0.1130  0.3116
 6101W        W26381   7.264  15.428  12.925 -0.1575 -0.0171  0.0059
 6102W        W26382   4.318   0.235  14.459 -0.1763  0.0352  0.0948
 6103W        W26383   4.101  16.543   0.530  0.2982 -0.0394  0.1995
 6104W        W26384  10.808  17.439  16.800 -0.0675  0.1359 -0.0525
 6105W        W26385  15.798   9.514   0.829 -0.1012 -0.0809  0.2630
 6106W        W26386   1.464  10.304  12.622  0.2260  0.1095 -0.0733
 6107W        W26387   1.554  13.316   3.261 -0.0939  0.2150 -0.1715
 6108W        W26388  15.963  10.465   0.937  0.0179 -0.0798 -0.0182
 6109W        W26389   6.555   8.192   1.510 -0.0327 -0.1488  0.2095
 6110W        W26390  14.346   6.466   2.314 -0.0475  0.1134  0.0516
 6111W        W26391   7.510  10.945   1.363  0.1669 -0.0700 -0.4898
 6112W        W26392   9.101  17.332  12.504 -0.2169  0.1171 -0.1276
 6113W        W26393  10.536   1.645   2.226  0.2284  0.0381 -0.3648
 6114W        W26394   5.535   5.745   1.780  0.1819 -0.0098  0.0841
 6115W        W26395  10.393   1.335   4.486  0.1156  0.0547 -0.2329
 6116W        W26396  15.986   7.125   2.433 -0.3733  0.0745  0.2337
 6117W        W26397   6.305   4.420   0.845  0.3987  0.1503 -0.0850
 6118W        W26398   2.939   8.753   2.319 -0.1979 -0.1342  0.1293
 6119W        W26399   8.971   4.981  16.026 -0.0493 -0.2987  0.2907
 6120W        W26400  11.256  15.263   3.529 -0.1257 -0.0636  0.2532
 6121W        W26401  17.708   1.412   2.863  0.1405  0.1490 -0.3312
 6122W        W26402   1.910  16.740   4.796  0.2238 -0.1660 -0.1196
 6123W        W26403  13.473  17.421  15.681  0.0350 -0.0809  0.0017
 6124W        W26404   3.847   0.438  15.443  0.4822 -0.2889  0.0944
 6125W        W26405  12.486  16.474   4.990  0.0503 -0.0533  0.1720
 6126W        W26406  15.545   9.724  16.204 -0.1717  0.1883  0.0098
 6127W        W26407  13.181   5.230  14.108 -0.0792 -0.1457  0.0155
 6128W        W26408  10.692  15.527   5.076  0.1360 -0.0197  0.2969
 6129W        W26409   4.254   9.207   5.395  0.1732 -0.3647 -0.0576
 6130W        W26410  10.638   7.026   1.235  0.2913 -0.1647 -0.1362
 6131W        W26411   2.038   3.084   4.457 -0.0621  0.2596 -0.1449
 6132W        W26412  12.205   4.343   3.532 -0.0001  0.2644 -0.0745
 6133W        W26413   6.249  14.273  16.885 -0.3989 -0.0650 -0.0425
 6134W        W26414  11.170   6.614   1.426  0.0193 -0.0423 -0.0501
 6135W        W26415  17.028   3.193  15.096 -0.2286 -0.0409 -0.1234
 6136W        W26416   8.568  11.034   2.712  0.0569  0.0668 -0.0625
 6137W        W26417   7.232   4.889  16.331  0.2178 -0.1413  0.2773
 6138W        W26418   4.251   8.478   4.180  0.2529 -0.2486  0.0728
 6139W        W26419   8.864  16.694  16.861 -0.2439  0.1539  0.1988
 6140W        W26420   8.236  16.280  15.762 -0.1480  0.1319 -0.1733
 6141W        W26421  15.249  15.115   0.533 -0.2022 -0.1710  0.0033
 6142W        W26422  14.500  14.271   2.173 -0.1749 -0.0699  0.2632
 6143W        W26423   1.072   2.122   1.123  0.0421 -0.0271  0.1010
 6144W        W26424   6.890   7.240   0.664 -0.1377  0.2462  0.2251
 6145W        W26425   5.155  13.530   5.091  0.0925 -0.0756 -0.1476
 6146W        W26426   5.102  12.119   2.707  0.1045  0.0630 -0.0698
 6147W        W26427   4.789   6.660  15.844  0.0171 -0.4542  0.2234
 6148W        W26428  13.051  17.003   2.554  0.0870  0.0581  0.0426
 6149W        W26429   1.466  14.447  13.607  0.0632  0.0623 -0.0183
 6150W        W26430  13.689   0.683  12.712  0.1319  0.2236  0.1673
 6151W        W26431  13.942   6.649  17.004  0.1044 -0.1202 -0.2038
 6152W        W26432  17.336   9.786   4.849  0.0448 -0.4016  0.2100
 6153W        W26433   2.702  16.686  14.230 -0.0539  0.2989 -0.0170
 6154W        W26434  17.162   4.203  12.576  0.4352  0.2210 -0.1852
 6155W        W26435  15.633   5.236   1.970 -0.1217  0.1188  0.0970
 6156W        W26436  12.994   7.306  13.889 -0.0244  0.3668 -0.1279
 6157W        W26437   0.279  11.544   3.805 -0.1418  0.1991 -0.2808
 6158W        W26438   2.558   8.057   1.485  0.2083  0.0081 -0.1299
 6159W        W26439  16.180   1.560   3.404 -0.0530  0.2271 -0.2170
 6160W        W26440  13.812   4.697  14.582  0.3159 -0.0186  0.1332
 6161W        W26441  15.053   3.580  12.207  0.0090 -0.1629 -0.1055
 6162W        W26442   3.239  13.710  15.868 -0.4104  0.0752  0.4147
 6163W        W26443   3.236  17.587  14.822  0.1685  0.1206  0.1070
 6164W        W26444  16.188   2.498  16.799 -0.0516  0.0404 -0.1248
 6165W        W26445   6.314   2.334  16.144  0.2354 -0.0348  0.4514
 6166W        W26446  14.408  15.776  16.373  0.0712  0.2323  0.1480
 6167W        W26447   4.116   4.653  16.400  0.1914  0.1201  0.1479
 6168W        W26448  16.826  10.405  12.816 -0.2227  0.0626 -0.0485
 6169W        W26449  12.591   6.582  12.171 -0.2928  0.1655  0.1509
 6170W        W26450   2.581   4.951  14.821  0.6404 -0.3545  0.1525
 6171W        W26451   5.788   5.673   0.867  0.0540 -0.0397  0.0817
 6172W        W26452   6.762  16.474   4.087  0.3494 -0.2881 -0.0591
 6173W        W26453  14.661   9.058   3.653  0.1882  0.1016  0.0319
 6174W        W26454   4.300  16.408   2.447 -0.1272  0.1830  0.1062
 6175W        W26455   5.202   6.583   4.557 -0.1105  0.1649 -0.0684
 6176W        W26456  13.892   2.260   0.458  0.1660  0.0679  0.0258
 6177W        W26457   4.275  17.469   0.152  0.2469  0.0613 -0.2253
 6178W        W26458   1.161  15.679   2.023  0.1781  0.0561  0.2741
 6179W        W26459  16.655  15.950   1.548  0.1531 -0.1447  0.0793
 6180W        W26460   4.895   7.959   4.490 -0.0288  0.3198 -0.0589
 6181W        W26461   3.222   1.950  16.541  0.1787  0.0059 -0.1665
 6182W        W26462   2.376   3.959   4.381 -0.0513 -0.0020  0.1206
 6183W        W26463   2.286   6.348  13.262  0.0991  0.0682 -0.0543
 6184W        W26464  11.004  16.265   0.344  0.1413  0.0785  0.0364
 6185W        W26465   5.528   4.793  12.763 -0.0128  0.0880  0.0195
 6186W        W26466   6.521  12.757   4.417 -0.1185 -0.1731  0.3096
 6187W        W26467   0.557   4.359  14.447  0.0013  0.1271 -0.0627
 6188W        W26468   3.517  13.193   2.768  0.1773 -0.1454 -0.1407
 6189W        W26469  13.757  11.066   3.455  0.0448  0.2252 -0.1485
 6190W        W26470   3.531   8.544   2.918 -0.1985 -0.2635 -0.1304
 6191W        W26471   9.586  16.649   4.952  0.1971 -0.1642 -0.0380
 6192W        W26472   3.616   1.675   0.362  0.0207 -0.2147  0.0225
 6193W        W26473  10.162  14.152  16.259  0.2149  0.2301  0.4018
 6194W        W26474   0.355  10.139   3.201  0.3548  0.2028 -0.1596
 6195W        W26475   6.800   6.679  14.732 -0.2520  0.0014 -0.0608
 6196W        W26476   3.776   3.854  14.063  0.1961  0.0574 -0.1135
 6197W        W26477   7.940  12.607   1.191  0.0334  0.1320  0.1436
 6198W        W26478   1.123  12.633   0.604 -0.2537 -0.0632  0.0778
 6199W        W26479   2.666   6.470  12.983  0.1214 -0.2268  0.0462
 6200W        W26480   2.317   2.476  12.075 -0.2081  0.3388  0.0994
 6201W        W26481  14.510   0.270   4.242  0.1791 -0.1116 -0.0875
 6202W        W26482  16.056   4.121   2.823 -0.0260 -0.0151  0.0641
 6203W        W26483   9.057  10.388  12.041  0.1098  0.0428 -0.0260
 6204W        W26484   2.131  15.449   0.657 -0.0930  0.3263  0.4249
 6205W        W26485   1.476   0.586  14.838 -0.0146  0.2203 -0.3614
 6206W        W26486   7.802   5.741  13.288  0.2372  0.1773 -0.0677
 6207W        W26487   4.938   6.066  11.221 -0.1006  0.4335  0.0952
 6208W        W26488   0.647  17.649  14.096  0.4448  0.2163 -0.0560
 6209W        W26489   8.849   7.636   3.829  0.0987 -0.0817 -0.3696
 6210W        W26490   1.747  17.266  16.015 -0.0431 -0.3039  0.0652
 6211W        W26491  17.277  13.492   3.736  0.1926 -0.2571  0.0544
 6212W        W26492   8.857   8.722  13.509 -0.0175 -0.1737  0.2040
 6213W        W26493  13.767  14.191  11.737  0.2990 -0.4658  0.3002
 6214W        W26494  13.479   8.543   4.774 -0.0122 -0.1065 -0.0528
 6215W        W26495  11.451   8.516  14.724  0.0021  0.2489 -0.0446
 6216W        W26496  11.055   5.727  13.626  0.2940 -0.3802 -0.3078
 6217W        W26497   3.827   8.844   0.006 -0.2612  0.0981  0.1041
 6218W        W26498  14.824   9.704  15.928 -0.1501  0.1457 -0.0224
 6219W        W26499   3.456   7.532   1.077 -0.1230  0.2066 -0.1703
 6220W        W26500   5.502  11.011  16.849  0.0258  0.0915 -0.1841
 6221W        W26501   8.251   6.208  15.248  0.1980 -0.2457 -0.1528
 6222W        W26502  10.984  10.551  16.112  0.1256  0.3964  0.0337
 6223W        W26503   4.476   5.082   3.139 -0.1818  0.0919 -0.0203
 6224W        W26504  17.358   9.678   0.261  0.0719 -0.3503  0.2105
 6225W        W26505   3.804  14.517   2.724 -0.0611  0.2187  0.0869
 6226W        W26506   8.098  13.658  12.447 -0.0764  0.0337  0.0300
 6227W        W26507   9.858   5.860   2.943  0.0750  0.1395 -0.2269
 6228W        W26508  11.072   9.744  12.347 -0.0919  0.0792  0.0415
 6229W        W26509  12.445   7.009  15.693 -0.0502  0.0210 -0.1078
 6230W        W26510  13.316   7.401   1.558 -0.0608  0.1496 -0.2268
 6231W        W26511  17.617  17.416   1.797  0.2431 -0.0626 -0.1647
 6232W        W26512  12.403  12.012  12.671  0.0734 -0.2569 -0.0432
 6233W        W26513   9.490  16.137   2.289 -0.0699 -0.1688  0.0808
 6234W        W26514  11.609   2.576   4.276 -0.1070 -0.2906  0.3195
 6235W        W26515   8.557  13.049  16.615  0.1241 -0.0859 -0.0341
 6236W        W26516  15.061  10.124  12.700 -0.1054 -0.4243 -0.0637
 6237W        W26517  13.858  14.809  14.765  0.0312  0.1777 -0.3523
 6238W        W26518  11.438  10.995  13.504  0.1142 -0.0880  0.0213
 6239W        W26519   8.871  11.513  16.281 -0.0594 -0.1882 -0.1667
 6240W        W26520  13.150  12.408   4.539  0.0600 -0.0336  0.2877
 6241W        W26521   4.398  12.841  13.566 -0.0964  0.1957 -0.1925
 6242W        W26522   1.831   3.393  16.691  0.1935 -0.0853  0.0269
 6243W        W26523  13.438  16.992   2.922 -0.1170  0.4551 -0.2453
 6244W        W26524  10.116   2.360  12.791  0.0597  0.0203  0.0311
 6245W        W26525  13.769  10.775  13.100 -0.1000 -0.2272  0.1180
 6246W        W26526   4.529  15.924  13.602 -0.0463  0.0031  0.0756
 6247W        W26527  10.787   5.226  11.940  0.1712  0.3185  0.1523
 6248W        W26528   0.283  15.443  14.061  0.0241  0.1763  0.1021
 6249W        W26529   6.922   2.814  16.907 -0.1440 -0.0665 -0.2644
 6250W        W26530  14.114   1.645   4.896 -0.5146 -0.1484  0.0858
 6251W        W26531   0.535   4.516   4.772 -0.1775 -0.3256 -0.1171
 6252W        W26532   3.653   2.641   4.123 -0.0132 -0.0089 -0.1995
 6253W        W26533  17.458   1.117  14.503 -0.2899 -0.0474 -0.0858
 6254W        W26534   6.747   3.189   0.186 -0.0809  0.0661  0.0727
 6255W        W26535   0.255  17.478  12.771  0.0888  0.2678 -0.3358
 6256W        W26536   8.400   6.484   0.034  0.1935 -0.1942 -0.1111
 6257W        W26537   3.554  12.923  13.348  0.1207  0.0190 -0.1096
 6258W        W26538   6.846   5.720  14.637  0.2646  0.0684 -0.3643
 6259W        W26539  10.435  12.380   1.019  0.3468 -0.2020  0.1954
 6260W        W26540  12.821   7.842   2.837  0.2099 -0.3483  0.2269
 6261W        W26541  14.615   7.348   1.418  0.0736 -0.0443 -0.0920
 6262W        W26542   7.025  12.483   3.575  0.0583 -0.0856  0.0591
 6263W        W26543  13.718  16.850  16.336 -0.0483  0.0393  0.0016
 6264W        W26544  17.323  10.480   2.055  0.2871 -0.1427 -0.5367
 6265W        W26545   4.340   1.843   4.734 -0.2731  0.0054  0.2574
 6266W        W26546   9.295  16.663   2.560  0.4796  0.0805  0.1086
 6267W        W26547   6.233   8.509   4.499 -0.0302 -0.1201 -0.0859
 6268W        W26548  12.367   7.879   4.938  0.3275 -0.1152 -0.0059
 6269W        W26549   5.965   9.800   1.167 -0.0686  0.3582  0.1969
 6270W        W26550   1.478   5.669  14.684  0.1002  0.3263 -0.2427
 6271W        W26551  10.972   3.528   0.564 -0.1715  0.0605 -0.3857
 6272W        W26552   2.756   4.480  15.029 -0.2576 -0.1488  0.1340
 6273W        W26553   3.214  10.298  12.479  0.0588 -0.1801  0.2356
 6274W        W26554   1.732  11.905  13.384 -0.1107 -0.0287 -0.1362
 6275W        W26555  10.415  15.083  12.109  0.0693 -0.2245  0.0729
 6276W        W26556   5.870   0.947   1.808 -0.1432 -0.0816  0.0828
 6277W        W26557  17.124   2.645  15.227 -0.3041 -0.0962 -0.0052
 6278W        W26558   9.902  15.573  15.719 -0.0683 -0.1239  0.2502
 6279W        W26559  11.455   0.501   1.799  0.0483 -0.1672  0.2865
 6280W        W26560   6.501  10.552  15.948 -0.0258 -0.0442 -0.1435
 6281W        W26561  14.812  15.866  14.136  0.1084 -0.0344 -0.0362
 6282W        W26562  14.526   8.005  12.620 -0.1823 -0.1827  0.2308
 6283W        W26563   1.842   2.543  12.696  0.1857  0.2361  0.2666
 6284W        W26564  13.256   9.631  15.291 -0.0562 -0.0839  0.4160
 6285W        W26565   2.557   2.565   2.085 -0.1292  0.1574  0.0678
 6286W        W26566  11.774   0.008  14.402 -0.1426  0.0565 -0.1789
 6287W        W26567  11.421  11.491   2.566 -0.0618 -0.1103 -0.2101
 6288W        W26568   6.852   1.700   1.865 -0.0258  0.2396  0.1024
 6289W        W26569  14.489   4.544   1.301  0.0236 -0.5708 -0.2045
 6290W        W26570   4.620  13.614   2.625 -0.2257  0.2482 -0.0189
 6291W        W26571   1.515   0.341   0.760  0.3508  0.2864  0.3038
 6292W        W26572  14.679   1.554  12.529 -0.3263  0.3277  0.3174
 6293W        W26573  13.753   0.487  15.970  0.3007 -0.1548  0.2011
 6294W        W26574  16.982   7.453   2.400  0.1866 -0.1349  0.0177
 6295W        W26575   2.690  11.800  13.804 -0.2473 -0.3021  0.2095
 6296W        W26576  10.975  12.022  13.888  0.1659  0.1404  0.0516
 6297W        W26577   8.733  16.470   4.672  0.2771 -0.0901 -0.0300
 6298W        W26578  13.185  17.095   0.076 -0.1001  0.1340  0.0971
 6299W        W26579   9.207  14.939   2.257 -0.0678 -0.0118 -0.1370
 6300W        W26580  15.665   4.301   3.133 -0.1885  0.3349  0.3959
 6301W        W26581   6.394  14.729   5.005  0.1501 -0.0307  0.1197
 6302W        W26582  15.987  11.728  13.154  0.3042  0.3036  0.1328
 6303W        W26583   7.632  12.385  12.994  0.4230  0.0815 -0.2106
 6304W        W26584  10.893   5.507   2.697 -0.3517 -0.1832 -0.1635
 6305W        W26585  10.448   7.395  16.039  0.0794 -0.0720  0.2371
 6306W        W26586  13.361   5.494  13.639 -0.0732  0.1805 -0.1752
 6307W        W26587  15.808  16.769   4.189 -0.0020 -0.0610 -0.0505
 6308W        W26588  12.417  13.220  13.862 -0.0333  0.1299 -0.2329
 6309W        W26589   5.549   6.072  13.326  0.1513  0.2354  0.2852
 6310W        W26590   8.278  15.039   1.104  0.1185  0.1372 -0.1248
 6311W        W26591  14.579  12.631   3.511 -0.3593  0.0981 -0.1313
 6312W        W26592   9.413   0.900   3.336  0.2157  0.3651 -0.0698
 6313W        W26593   2.832   3.970  12.518 -0.2635 -0.0443 -0.3381
 6314W        W26594   9.319  14.345   3.354  0.2758  0.1316  0.1634
 6315W        W26595  12.176  14.932  13.358  0.0035  0.0496 -0.1046
 6316W        W26596  10.982  12.674  12.200 -0.2794 -0.0398 -0.0347
 6317W        W26597  12.905  15.034   0.145 -0.0529  0.0414 -0.1994
 6318W        W26598   2.404  10.557  16.855  0.0760 -0.0594 -0.1170
 6319W        W26599   3.100   0.381  13.632 -0.3475 -0.3440 -0.3923
 6320W        W26600   8.089  14.747  13.147  0.1685 -0.2022 -0.0733
 6321W        W26601  10.331  14.669  13.713  0.0764  0.1015 -0.0148
 6322W        W26602  15.378  15.174  16.273  0.1718 -0.2481  0.2181
 6323W        W26603   0.428   1.673   2.817 -0.2518  0.2495 -0.1544
 6324W        W26604  11.893   0.558   0.424 -0.1474  0.0149  0.0285
 6325W        W26605  11.624   5.859  16.321  0.3306  0.2263  0.2066
 6326W        W26606  14.087  17.560  14.110  0.1050 -0.1526  0.0287
 6327W        W26607   0.502  10.893  15.973  0.1203  0.0615 -0.0430
 6328W        W26608  10.636  13.768  14.667  0.0139  0.3049 -0.1413
 6329W        W26609  16.000   8.697   2.122 -0.1475 -0.3464 -0.2088
 6330W        W26610   1.766  10.809   4.212  0.1889  0.0772  0.0252
 6331W        W26611  15.661   2.809  12.149 -0.3217 -0.1544 -0.1771
 6332W        W26612   4.001   8.577   2.871  0.0352 -0.1916 -0.0669
 6333W        W26613  14.553   7.419   3.619 -0.1453 -0.1806  0.1132
 6334W        W26614  13.833   0.672   2.863 -0.0885 -0.1477 -0.0673
 6335W        W26615   1.139   8.685   2.027 -0.0104 -0.1294  0.2266
 6336W        W26616  14.653  13.961   2.948  0.0744 -0.0607  0.0443
 6337W        W26617   9.709   0.969   0.027  0.0422  0.0887  0.0237
 6338W        W26618  16.497   0.406  15.620  0.0608  0.0621  0.0585
 6339W        W26619  16.465   3.423  16.723 -0.0585 -0.2999  0.1775
 6340W        W26620  16.959   3.644   0.748  0.2061 -0.1141 -0.1111
 6341W        W26621  11.017  13.954   3.085 -0.3214  0.0263  0.0573
 6342W        W26622   2.802  10.438  12.675  0.3994 -0.1157 -0.0163
 6343W        W26623   8.213   9.223   4.409 -0.1332 -0.2796 -0.1064
 6344W        W26624  13.122   3.564   1.545 -0.0861  0.3335  0.1485
 6345W        W26625  13.586   7.885   2.115 -0.2393  0.0529  0.4844
 6346W        W26626   6.330   1.297   2.141 -0.1721 -0.2927  0.0566
 6347W        W26627   8.113   7.959   3.452 -0.7231 -0.4505 -0.0760
 6348W        W26628  16.121   9.685   0.500  0.1359  0.0404 -0.0115
 6349W        W26629  15.463   5.169   1.427  0.0502  0.0690 -0.0324
 6350W        W26630   4.136   2.379  15.576 -0.2429  0.0361  0.0765
 6351W        W26631   7.449  17.257  15.027  0.2647  0.0280  0.1246
 6352W        W26632   1.220   2.335   1.702 -0.3296 -0.0586 -0.0870
 6353W        W26633   8.266   0.545  14.203  0.0452 -0.1256 -0.1046
 6354W        W26634   8.348  10.477   3.821  0.0965  0.0988  0.0109
 6355W        W26635   0.765  12.535  12.592  0.1338 -0.1621 -0.1719
 6356W        W26636  10.445   5.613  14.530 -0.0104  0.3694  0.3463
 6357W        W26637   6.919  16.813  13.615  0.0718 -0.1168  0.0303
 6358W        W26638   3.709  12.419   4.483 -0.1867 -0.0348 -0.1879
 6359W        W26639  15.022   1.488   1.923  0.2841 -0.2642  0.0117
 6360W        W26640   0.600  10.755  13.360 -0.0893  0.1076 -0.0716
 6361W        W26641  15.279   5.864  16.178 -0.0111  0.0328  0.2556
 6362W        W26642  11.073   6.683  14.101 -0.1883 -0.1315  0.3606
 6363W        W26643  13.259  14.712  14.239  0.1378 -0.2721  0.5992
 6364W        W26644  16.371  12.978  13.353  0.1263  0.1797 -0.0152
 6365W        W26645   0.018   3.347  13.852 -0.0524  0.0303  0.0564
 6366W        W26646   7.865   8.041   0.639  0.0541  0.1154 -0.1707
 6367W        W26647   8.622  12.466   3.533 -0.0186  0.1487 -0.1361
 6368W        W26648   3.007  17.041   0.533 -0.0769 -0.0314  0.1456
 6369W        W26649  12.164  14.848   2.490 -0.1353 -0.1118  0.1445
 6370W        W26650   1.000   4.178   1.829  0.0517  0.1624  0.1340
 6371W        W26651   4.691  17.696  15.108 -0.1755 -0.0328 -0.0878
 6372W        W26652  12.421   3.598  14.931  0.3084 -0.4147  0.0632
 6373W        W26653  12.221   8.744  15.793  0.0233 -0.1257 -0.0874
 6374W        W26654   4.810  16.913   5.288  0.2830 -0.1443  0.1758
 6375W        W26655  12.648   7.461   4.622  0.0095  0.1831 -0.0172
 6376W        W26656   7.010   6.719  15.458  0.2152  0.1635 -0.2791
 6377W        W26657   5.431   4.121  15.088  0.0429  0.0652  0.2235
 6378W        W26658   4.473  12.419   2.366 -0.2631 -0.4047 -0.0562
 6379W        W26659   1.898  12.043   3.201 -0.0997 -0.1123 -0.1241
 6380W        W26660   5.250  16.971  12.779 -0.0516  0.1624  0.1833
 6381W        W26661  10.561   3.923  12.125 -0.0432  0.1657  0.2272
 6382W        W26662  16.359  15.657  15.931  0.2459 -0.1924  0.1123
 6383W        W26663   1.579   1.960   1.823 -0.2780  0.0146 -0.3032
 6384W        W26664  12.798  11.803  15.944 -0.2987 -0.0653  0.2936
 6385W        W26665  14.876  16.454  16.703  0.1178 -0.0480 -0.0421
 6386W        W26666  10.102   1.243  13.614  0.0270  0.0320 -0.1938
 6387W        W26667  16.148  11.350  15.577  0.1366  0.1478  0.0442
 6388W        W26668  12.383  15.344  12.820  0.1347 -0.0779 -0.0698
 6389W        W26669   8.958   0.650   2.290  0.0887  0.1646 -0.2158
 6390W        W26670   2.682   8.437  12.827 -0.1039  0.0269  0.1046
 6391W        W26671   9.206   0.060  12.702 -0.1711  0.2719  0.2812
 6392W        W26672   6.893  17.492  14.140 -0.2985 -0.1742 -0.0363
 6393W        W26673   3.751   3.888   5.010 -0.1634  0.1683  0.0751
 6394W        W26674  12.154   0.368  15.699 -0.1271  0.1610  0.0874
 6395W        W26675   5.780   9.870  14.534 -0.0326 -0.0359 -0.1942
 6396W        W26676  14.391  15.395   0.114  0.0233  0.0161 -0.2693
 6397W        W26677  10.840   3.217  14.148  0.2188  0.1738  0.0916
 6398W        W26678   2.588   8.218  16.992  0.2241 -0.1165  0.0311
 6399W        W26679  11.474   4.977  15.911  0.1013 -0.2289  0.3568
 6400W        W26680  12.944   0.062  12.190 -0.0013  0.1083 -0.2258
 6401W        W26681  11.586  13.132   4.098 -0.1028 -0.1680  0.0751
 6402W        W26682  10.126  14.201   1.505 -0.0265  0.0756  0.1375
 6403W        W26683   2.557   8.017  16.026  0.1762 -0.0274 -0.1134
 6404W        W26684   2.402  14.890   3.316  0.1033 -0.0191  0.1053
 6405W        W26685  12.012  16.451   1.522 -0.0178 -0.0687  0.1532
 6406W        W26686  13.349  15.221   1.841 -0.2495  0.2465 -0.0007
 6407W        W26687  16.387   7.862   1.981  0.3014  0.1220  0.1186
 6408W        W26688   4.289  17.701   4.361 -0.0491 -0.0404  0.2999
 6409W        W26689   1.988  11.251  16.289 -0.0503 -0.2982 -0.0462
 6410W        W26690  15.519  15.530   4.605 -0.1119 -0.1154 -0.1691
 6411W        W26691  12.734   8.113  12.247 -0.2968 -0.1066 -0.2375
 6412W        W26692   5.649  11.613  14.204  0.0238  0.0351 -0.0437
 6413W        W26693  17.138  12.789   2.200 -0.0504 -0.2167 -0.3715
 6414W        W26694   4.695  15.398  12.298 -0.1920  0.1456  0.1525
 6415W        W26695   4.172  10.788  16.048 -0.0415 -0.0084 -0.1406
 6416W        W26696   7.572   5.327   3.976 -0.1815  0.1215  0.1699
 6417W        W26697  14.451  15.462  15.966 -0.2415  0.0392  0.1441
 6418W        W26698  12.076  17.249  13.486 -0.3348 -0.1494 -0.3772
 6419W        W26699   0.002  16.480  16.727  0.0124 -0.2153  0.1359
 6420W        W26700   5.193  15.839  13.285  0.1313  0.2118 -0.1042
 6421W        W26701  10.876  14.804   0.109 -0.0159  0.1886  0.0922
 6422W        W26702   7.445   0.288  14.656 -0.1777 -0.2421 -0.0545
 6423W        W26703  16.602  11.307  16.976 -0.0525 -0.1578 -0.2061
 6424W        W26704   3.134   3.945   2.835 -0.0920 -0.0692  0.1280
 6425W        W26705   8.802  12.721  15.495  0.0671 -0.0167  0.0856
 6426W        W26706  10.933   7.079  13.779 -0.2397  0.3048  0.0045
 6427W        W26707   4.793   8.203  15.014  0.0305 -0.1317  0.0642
 6428W        W26708   6.173   7.817   2.623 -0.1084  0.0488  0.0958
 6429W        W26709   1.888  10.972   4.753 -0.0108  0.0598 -0.0264
 6430W        W26710  11.558   5.241   3.833 -0.1333 -0.1153 -0.1573
 6431W        W26711  16.595   0.207   3.050  0.0301  0.2409 -0.1704
 6432W        W26712  12.916  13.287   4.130 -0.0557  0.1308  0.1031
 6433W        W26713  13.578  13.466   3.104  0.1676 -0.3744  0.0381
 6434W        W26714  17.525  12.372  13.696 -0.0558  0.4543 -0.0337
 6435W        W26715  15.029   5.637  15.176 -0.0786  0.1549 -0.0856
 6436W        W26716   9.841   4.512   1.523  0.2420  0.0515  0.2566
 6437W        W26717   2.810  10.200   1.750 -0.1036 -0.1747  0.1654
 6438W        W26718   5.939  17.409   4.538 -0.1089  0.1237  0.0702
 6439W        W26719   0.552  16.277  14.218  0.2485 -0.2198 -0.3559
 6440W        W26720  14.329  13.397  13.934  0.0864 -0.1107  0.1553
 6441W        W26721  11.656   6.318   0.398 -0.1744  0.1715  0.1649
 6442W        W26722   8.707  11.369  15.109  0.0277  0.1124 -0.0581
 6443W        W26723   7.550   8.256  16.977 -0.0318  0.1465  0.1137
 6444W        W26724  13.441   6.568   1.585  0.2006 -0.0693 -0.0647
 6445W        W26725   4.342  14.851  13.962 -0.3798  0.1166 -0.0361
 6446W        W26726   5.450   7.737   3.776 -0.0858  0.1292  0.1278
 6447W        W26727   2.988   9.378  12.516 -0.4220 -0.2144  0.0988
 6448W        W26728  15.353   4.485  16.343 -0.2061 -0.0412  0.0915
 6449W        W26729  14.331  12.095  14.839  0.0840  0.1582  0.0823
 6450W        W26730  16.852   9.066   0.737  0.3654 -0.2611 -0.0402
 6451W        W26731   5.886  10.521  12.480  0.3106 -0.0168 -0.0949
 6452W        W26732  13.586  13.027   2.902 -0.0069  0.1764  0.0229
 6453W        W26733  15.965  10.764   5.175  0.2208  0.1802 -0.0198
 6454W        W26734   3.633   4.806   2.931 -0.0638  0.0469  0.0571
 6455W        W26735  12.173   8.428   1.439  0.0737 -0.1488  0.1302
 6456W        W26736   3.038  10.063  13.487  0.3603  0.2669 -0.2531
 6457W        W26737   1.680   6.259   3.104 -0.0116  0.1408  0.3288
 6458W        W26738   7.985   4.856   0.404  0.1004 -0.2254 -0.0230
 6459W        W26739  15.433   0.429  15.085  0.1024  0.0097 -0.1823
 6460W        W26740   2.302   6.182   0.290 -0.0971  0.0249 -0.0206
 6461W        W26741  13.599  16.682  12.230  0.1404 -0.3130 -0.3706
 6462W        W26742   0.684  11.346  16.028 -0.1343 -0.3713  0.0933
 6463W        W26743   7.564  14.226   1.280  0.0893 -0.0556 -0.3008
 6464W        W26744   6.015   3.472  15.305 -0.0943  0.0364  0.1738
 6465W        W26745  17.178   0.987   1.156  0.0198 -0.2076  0.0611
 6466W        W26746   0.958  11.702   1.100 -0.0881  0.1267  0.0729
 6467W        W26747  10.724   5.088  16.874  0.0916 -0.1721 -0.0507
 6468W        W26748  10.051   8.728   0.745 -0.1741  0.0864  0.0721
 6469W        W26749  17.585  10.173  12.962  0.0035 -0.0923  0.0224
 6470W        W26750  13.587  10.528  15.439 -0.0477 -0.2900 -0.0870
 6471W        W26751  15.860  14.641   1.885  0.1431  0.1060  0.1020
 6472W        W26752  16.211  14.798  16.241 -0.1226 -0.2431  0.2350
 6473W        W26753   7.059  14.797  14.954  0.0760 -0.2853 -0.0429
 6474W        W26754   9.954   7.514  16.076  0.1044 -0.0458  0.1046
 6475W        W26755  13.298  17.284  12.832 -0.1898  0.3433 -0.2387
 6476W        W26756   1.650   2.281  15.859 -0.1156  0.1476  0.0762
 6477W        W26757  15.308   7.219  16.100  0.2482  0.3077 -0.0024
 6478W        W26758   2.899  12.330  16.003  0.1027  0.1946 -0.0730
 6479W        W26759  15.911  15.286   4.841  0.0790 -0.0094 -0.0071
 6480W        W26760   0.902  17.425   0.220 -0.0443  0.1299 -0.2805
 6481W        W26761   3.654   9.707  14.420  0.3511  0.0826 -0.0271
 6482W        W26762  14.913  16.234  14.974  0.3252  0.0131  0.0933
 6483W        W26763  15.681   6.436   4.733  0.1851  0.0190  0.2103
 6484W        W26764  16.785   0.470   2.079  0.2076  0.0275  0.0268
 6485W        W26765   9.688   6.957   4.539 -0.1076  0.5207 -0.0968
 6486W        W26766  11.130  12.447   1.230 -0.1152  0.0645 -0.1751
 6487W        W26767  16.150  12.149   1.229 -0.1388 -0.2138 -0.0488
 6488W        W26768   4.124  13.993  15.817  0.1016  0.2293  0.1301
 6489W        W26769  17.433  15.364   3.954  0.0808 -0.0021  0.0996
 6490W        W26770   8.307   2.639   4.631  0.1144 -0.0828  0.2580
 6491W        W26771  13.668   7.434  15.573 -0.0541 -0.1671 -0.2805
 6492W        W26772   5.110   3.591  15.487 -0.1410 -0.0258  0.1259
 6493W        W26773  12.627  14.689   1.576 -0.2255  0.1273  0.2946
 6494W        W26774   2.849  14.499  12.795 -0.0610 -0.1045 -0.2802
 6495W        W26775  14.020  15.583   4.820 -0.2824 -0.0159 -0.1129
 6496W        W26776   9.775   6.166  15.701  0.1375  0.2029 -0.0490
 6497W        W26777   3.495   6.235   2.528  0.2612 -0.1271 -0.0425
 6498W        W26778   2.967   1.080   3.903  0.0123 -0.3316 -0.2001
 6499W        W26779   1.138   6.279  15.206  0.1498  0.0823 -0.1001
 6500W        W26780   0.639   9.192   4.484 -0.2436 -0.4627  0.3274
 6501W        W26781  15.141   4.302  13.586 -0.0141 -0.3174  0.0382
 6502W        W26782   2.951  15.284  16.004  0.0260 -0.2061 -0.1409
 6503W        W26783  13.788   8.719  16.688 -0.1934  0.2864  0.1001
 6504W        W26784  10.971   5.320  12.368 -0.2247  0.0140  0.2460
 6505W        W26785  16.295   9.739  13.839 -0.1725  0.2077  0.0660
 6506W        W26786  16.878   8.338  16.464  0.0440  0.0669  0.0655
 6507W        W26787  14.508  10.953   1.781 -0.0641 -0.0657 -0.1655
 6508W        W26788   4.491  11.381   4.824 -0.0276 -0.1356  0.0833
 6509W        W26789   9.705   4.602  12.893 -0.1823 -0.2278  0.0413
 6510W        W26790   7.986   4.083   1.061  0.0416  0.1087  0.3954
 6511W        W26791  15.969  14.938   3.497 -0.0724  0.0289 -0.1496
 6512W        W26792   4.190   7.514  13.092  0.0268  0.2992 -0.1208
 6513W        W26793  14.979   3.355  16.775 -0.0635  0.1134  0.3290
 6514W        W26794   1.208  11.327  14.935 -0.1130 -0.0522 -0.0824
 6515W        W26795   8.494   7.320   1.524  0.2018  0.1174  0.1268
 6516W        W26796   0.326   5.450  15.681 -0.1213  0.1685 -0.1426
 6517W        W26797   7.059   6.197  11.709 -0.3222 -0.1445  0.2744
 6518W        W26798  14.230  12.461   0.700  0.2489 -0.0811 -0.1422
 6519W        W26799   3.965   8.988  15.198  0.0677  0.3327 -0.0061
 6520W        W26800   4.147   8.259   5.783 -0.1937 -0.1829 -0.0204
 6521W        W26801   4.237   3.114  15.481  0.1199  0.2493 -0.2078
 6522W        W26802  11.100  16.293  12.309 -0.1661  0.1665 -0.1469
 6523W        W26803   8.636  17.148   4.089  0.2212  0.2002 -0.1787
 6524W        W26804   0.187   8.482  14.600  0.0326 -0.0591  0.1262
 6525W        W26805   9.370  10.807   0.497 -0.0101 -0.0691 -0.2653
 6526W        W26806   1.841  13.778  15.132 -0.1317  0.1913 -0.1325
 6527W        W26807  16.426   9.895  17.013 -0.3037 -0.0572  0.0882
 6528W        W26808   6.074   8.758  13.109  0.0066  0.1097 -0.1874
 6529W        W26809  13.496  15.194   2.657 -0.1234 -0.3542 -0.4156
 6530W        W26810  12.996  14.317  14.914 -0.0855 -0.1076 -0.0128
 6531W        W26811   4.011  11.065   0.429 -0.2049 -0.2711 -0.0733
 6532W        W26812   5.611  16.570   3.711  0.1341 -0.2456  0.0113
 6533W        W26813   6.076   9.166  16.848 -0.2846  0.1075  0.2767
 6534W        W26814   9.129   2.778  14.678  0.1545  0.1410  0.0489
 6535W        W26815   9.783  16.787   1.509 -0.1137  0.1428 -0.2265
 6536W        W26816   9.418   5.844  15.603 -0.1569  0.0990 -0.2451
 6537W        W26817   9.816   2.897  16.232 -0.2249  0.1962 -0.1344
 6538W        W26818  17.436   6.228  12.528  0.0141  0.1000  0.1802
 6539W        W26819  15.751  14.771  13.336 -0.1203  0.1581 -0.4214
 6540W        W26820   1.580  17.519  13.097  0.3214 -0.3536 -0.2461
 6541W        W26821   4.652  12.639  13.993 -0.0782  0.2250  0.0726
 6542W        W26822   4.892  11.404   3.014 -0.0631  0.0362 -0.0175
 6543W        W26823  15.704   0.324   2.941 -0.1280  0.2970 -0.1800
 6544W        W26824  13.137   5.461  15.468 -0.0198  0.1241 -0.2106
 6545W        W26825   9.910   6.831  12.574 -0.0196 -0.0283 -0.3148
 6546W        W26826   4.613  13.439  13.729 -0.1362  0.2526  0.1456
 6547W        W26827  13.606  16.195   1.255 -0.0083  0.3909 -0.1193
 6548W        W26828  15.435  12.546  15.119  0.0487 -0.3801  0.0400
 6549W        W26829  10.282   4.505   1.846 -0.2416  0.3794 -0.1792
 6550W        W26830   4.292   8.162   6.283 -0.2764  0.0167  0.1387
 6551W        W26831  15.044  10.338   0.200  0.0110 -0.1898 -0.1186
 6552W        W26832   6.646   4.397   0.480  0.1506  0.0286 -0.0038
 6553W        W26833   1.476  16.201   0.455  0.0785  0.1942  0.0315
 6554W        W26834   2.646   8.040  15.295 -0.1204  0.3750  0.0017
 6555W        W26835   5.892   1.622  16.281  0.3769  0.2701 -0.0610
 6556W        W26836  13.804   4.024  15.160  0.1870 -0.1172  0.0369
 6557W        W26837  15.701  11.795   2.986  0.1654  0.0966 -0.0648
 6558W        W26838   9.002   2.997  15.596 -0.1314  0.1415  0.1256
 6559W        W26839   6.534   9.660  16.976  0.0245  0.0712  0.2435
 6560W        W26840  10.767   4.291   3.382  0.1271  0.0101  0.2461
 6561W        W26841   1.155   8.509  14.978 -0.0252  0.2619  0.1020
 6562W        W26842   6.590   1.580   3.913 -0.2473  0.0983 -0.0202
 6563W        W26843   1.591  14.365   3.415  0.1881 -0.0207 -0.2590
 6564W        W26844  11.890   3.803  12.350  0.2266 -0.2471  0.1189
 6565W        W26845   4.626   7.433   4.484  0.0938 -0.0964  0.1887
 6566W        W26846   3.359   4.252   0.007 -0.0542 -0.0191 -0.0259
 6567W        W26847   8.687   6.673  13.731 -0.2264 -0.0638 -0.1206
 6568W        W26848  10.808   7.842  16.005  0.1851 -0.1148 -0.1790
 6569W        W26849   8.543   6.044  14.469 -0.0501 -0.0654 -0.0581
 6570W        W26850  16.935   7.068  16.593 -0.0400  0.0041 -0.1242
 6571W        W26851  12.548   7.008  13.863 -0.1429 -0.0117  0.0693
 6572W        W26852   0.960   3.855   3.718  0.1710  0.4627 -0.1526
 6573W        W26853  12.089   2.926   3.325  0.0815 -0.0011 -0.0550
 6574W        W26854   7.552   5.204  16.104 -0.1282 -0.0581 -0.1021
 6575W        W26855  15.300  10.163  16.769  0.3333  0.2883 -0.0904
 6576W        W26856   6.788   8.097   2.648 -0.0225 -0.4693  0.2285
 6577W        W26857   7.390   5.930  12.740 -0.1924 -0.0100  0.5440
 6578W        W26858  11.168   7.990  16.363  0.1131  0.1674  0.3010
 6579W        W26859  16.666  15.129   5.284  0.0820 -0.0668  0.3666
 6580W        W26860  11.374   0.251  14.125 -0.0651 -0.0258 -0.1014
 6581W        W26861   8.477  17.731   1.677 -0.1141 -0.1476 -0.1067
 6582W        W26862   3.999   3.628  16.457  0.0204 -0.0332  0.2348
 6583W        W26863   2.357   1.849  14.162  0.1271  0.1563 -0.1805
 6584W        W26864  16.746   7.562  16.515  0.0756 -0.2061 -0.1561
 6585W        W26865  17.311   9.788  16.232  0.0127 -0.0124 -0.1719
 6586W        W26866   2.227  14.956  15.467 -0.2395 -0.0803 -0.1258
 6587W        W26867   2.390  14.179   3.584  0.0316 -0.1217 -0.1656
 6588W        W26868   9.733  13.253  15.625 -0.0240  0.2767 -0.0939
 6589W        W26869   4.235  11.153  12.622 -0.0183 -0.2491 -0.0481
 6590W        W26870  14.747  13.567   4.280  0.3552 -0.1117 -0.3693
 6591W        W26871  11.624   7.990  11.739 -0.0922  0.0929 -0.3184
 6592W        W26872  16.660   5.290  13.344 -0.2583 -0.0723  0.2023
 6593W        W26873  10.687   2.178  13.956 -0.0070  0.0795  0.5477
 6594W        W26874   3.701   5.248   4.485  0.2068 -0.1064 -0.1448
 6595W        W26875  16.695  11.883  12.934  0.0199 -0.0342 -0.0306
 6596W        W26876   2.991   7.715   0.928  0.3002 -0.1221 -0.0834
 6597W        W26877  13.043   1.637   0.993 -0.1198  0.2350  0.0613
 6598W        W26878   0.465   3.238  13.662 -0.2100 -0.1586  0.1180
 6599W        W26879   2.397  16.316   0.036 -0.1022  0.0310 -0.2755
 6600W        W26880   1.326  13.920  13.688  0.0312  0.3496  0.2585
 6601W        W26881   3.205   0.093   0.412  0.2136 -0.0200  0.0148
 6602W        W26882   8.439  16.381  16.957 -0.1408 -0.2594 -0.2632
 6603W        W26883   4.644   9.687  16.393 -0.0420 -0.0697  0.0557
 6604W        W26884  13.173  13.203  12.180 -0.0366  0.2418  0.1311
 6605W        W26885   9.764  10.674  14.874 -0.1461 -0.0615 -0.1369
 6606W        W26886   7.029   7.039  13.519 -0.0049 -0.1167  0.0324
 6607W        W26887  14.403   2.238   2.221 -0.2076 -0.1145  0.2298
 6608W        W26888   2.906   8.050   4.771 -0.2079 -0.1274  0.0428
 6609W        W26889  14.324   1.364   3.057  0.0432  0.3148  0.1987
 6610W        W26890  15.989   6.957   3.971  0.3719  0.0048  0.0681
 6611W        W26891   2.503   4.592  13.971 -0.2119  0.0856  0.1196
 6612W        W26892   3.367   5.364  16.127 -0.0938  0.0741 -0.0110
 6613W        W26893   0.120   8.297  14.098  0.0388  0.1046 -0.2114
 6614W        W26894  10.643   5.033  11.504  0.0826  0.0315  0.3153
 6615W        W26895   9.145   6.867   3.359 -0.2563  0.0412  0.1891
 6616W        W26896   4.809   7.395   1.064 -0.1203  0.0394  0.2889
 6617W        W26897   5.031  11.063   4.040  0.1288 -0.1799 -0.0546
 6618W        W26898  12.726   9.885  16.081 -0.1620  0.2135 -0.3224
 6619W        W26899   7.631  16.231  14.025 -0.0412  0.1918  0.0149
 6620W        W26900   0.925   2.504   3.880 -0.2169 -0.1866 -0.1835
 6621W        W26901   5.304   9.942   0.024  0.2115 -0.4108  0.0363
 6622W        W26902   3.707  13.486   4.891 -0.0458 -0.3641 -0.0697
 6623W        W26903   3.866  15.449   0.107 -0.1423 -0.1271 -0.2282
 6624W        W26904   6.653   2.280   4.391  0.1161  0.0966  0.2796
 6625W        W26905   6.646   1.327   1.630 -0.0169  0.0251 -0.1316
 6626W        W26906   8.135   4.885   2.951 -0.1832  0.0516 -0.0287
 6627W        W26907  15.386  10.358  13.416  0.0755 -0.2040 -0.0318
 6628W        W26908   8.453  10.867  15.968  0.1594  0.1092 -0.0028
 6629W        W26909  15.339   6.340  12.867  0.2286  0.0452  0.0852
 6630W        W26910  15.410  16.420   1.025 -0.0288  0.0631  0.2369
 6631W        W26911   7.382   7.797  14.235 -0.0370 -0.0483  0.1119
 6632W        W26912   9.702  14.543   1.323 -0.0597 -0.2790 -0.0336
 6633W        W26913   5.883   4.002   4.734  0.0915  0.0623 -0.3918
 6634W        W26914   9.099  11.717  13.721 -0.1487  0.2801 -0.1009
 6635W        W26915   3.476   3.239   0.266 -0.0016  0.2106 -0.0375
 6636W        W26916  16.538   0.986   4.472  0.1531  0.2126 -0.0743
 6637W        W26917  14.907   9.029   1.221 -0.4796 -0.0244 -0.0072
 6638W        W26918   0.569  16.884   1.552 -0.1045  0.2465  0.1641
 6639W        W26919   9.976   4.421   3.096  0.0077  0.2274  0.4022
 6640W        W26920   8.002   5.762  13.774 -0.0824  0.1717 -0.1957
 6641W        W26921  12.209   7.226  16.607 -0.0438  0.2429  0.0022
 6642W        W26922  12.363  17.510   4.672 -0.2285 -0.1313 -0.3167
 6643W        W26923   6.425  17.707  14.769  0.0071  0.0312  0.5079
 6644W        W26924  11.088  11.194  14.191  0.6274  0.2390 -0.1204
 6645W        W26925  15.428   2.351   1.991 -0.0591 -0.0282 -0.0416
 6646W        W26926  10.922   2.596  14.934  0.0053  0.0326 -0.1944
 6647W        W26927  13.846  11.691   0.370  0.1143 -0.0572  0.0826
 6648W        W26928   7.658  16.409  13.545  0.0352 -0.2232  0.0331
 6649W        W26929  10.068  10.032  11.088 -0.0280  0.1595 -0.1220
 6650W        W26930  15.232   0.124  16.059 -0.2325  0.1001 -0.1467
 6651W        W26931   5.586  10.655  13.878 -0.1630  0.0664  0.0398
 6652W        W26932   3.835   1.177   4.894 -0.3391 -0.0414 -0.1739
 6653W        W26933   0.364   1.544  12.327 -0.0394  0.3137  0.1113
 6654W        W26934   1.066   7.460  14.876 -0.2836  0.0514  0.0740
 6655W        W26935  10.333   0.232   1.121 -0.1594 -0.0422  0.1925
 6656W        W26936  10.310   8.028  14.368  0.1917  0.3885 -0.6419
 6657W        W26937   1.316   5.981  13.771  0.1402 -0.0326 -0.0211
 6658W        W26938  16.931  15.735   0.065 -0.1607 -0.0497 -0.0912
 6659W        W26939   1.016   4.880  14.146  0.1145  0.1505  0.0059
 6660W        W26940  15.783   1.949  14.858  0.0535  0.0640  0.3195
 6661W        W26941  10.257   8.518  13.524 -0.0355 -0.2606 -0.0788
 6662W        W26942   4.056  16.058   4.746 -0.0092  0.2107 -0.3227
 6663W        W26943  11.715   3.964  12.959  0.2802 -0.0653 -0.0230
 6664W        W26944  13.181   5.147   4.964 -0.4679  0.2685  0.2338
 6665W        W26945  10.691   2.419  13.478  0.4657 -0.0220 -0.0610
 6666W        W26946  15.072  15.861   4.884 -0.0695  0.0848 -0.4004
 6667W        W26947  16.078  15.520  16.806 -0.2659  0.2921 -0.0161
 6668W        W26948  12.931  11.559  15.508  0.3082  0.0847  0.1535
 6669W        W26949  14.950  12.711  15.378 -0.2146  0.0523  0.0321
 6670W        W26950   3.015  11.444  15.042  0.2809  0.0052  0.1164
 6671W        W26951   2.814   5.633  14.218  0.1305  0.0764  0.0442
 6672W        W26952  11.246  10.108  16.200  0.0878 -0.1327 -0.1834
 6673W        W26953   0.951   2.965  15.612 -0.2089  0.0123  0.0273
 6674W        W26954   9.762  12.848   4.235 -0.1924  0.0361 -0.2640
 6675W        W26955  11.009  17.462  16.219 -0.0985 -0.1926  0.0688
 6676W        W26956  17.221  12.796  13.970  0.1444 -0.2133 -0.0347
 6677W        W26957   9.587  17.521  12.564 -0.2279  0.0894 -0.1009
 6678W        W26958   0.475  13.139   4.666 -0.1979 -0.2057  0.0267
 6679W        W26959   7.083   0.846   4.716  0.1510  0.1113 -0.0324
 6680W        W26960   3.744  12.124   0.567  0.0599  0.1193  0.0322
 6681W        W26961  13.729  14.722   2.480  0.0962 -0.0956 -0.1263
 6682W        W26962   8.733   5.257   1.659 -0.4546 -0.0281  0.2934
 6683W        W26963   8.791   1.488   2.762  0.1258  0.3773 -0.1151
 6684W        W26964  16.435   9.629   4.052  0.2009 -0.0123 -0.0273
 6685W        W26965   8.731   7.606   4.801  0.2141  0.0682 -0.1215
 6686W        W26966   6.029  14.877   4.696 -0.3036  0.1208 -0.0951
 6687W        W26967   7.769   4.077   2.627  0.0678 -0.0407 -0.6016
 6688W        W26968  15.314  15.255   4.138  0.2211 -0.0764 -0.2755
 6689W        W26969  15.171  11.330   0.943  0.0857 -0.1080 -0.1416
 6690W        W26970   1.106   7.342  16.944 -0.2451  0.2969 -0.0002
 6691W        W26971   6.023   0.225   4.492  0.2656 -0.0310  0.0145
 6692W        W26972   6.246   9.986  12.651  0.1744  0.1297 -0.0573
 6693W        W26973  10.187   3.441   0.026  0.2696 -0.1911  0.2711
 6694W        W26974  12.330   2.306   2.693  0.0356  0.2662  0.2855
 6695W        W26975   6.901  16.033  16.159  0.2266  0.0453  0.1127
 6696W        W26976  14.061   2.541  13.390  0.0287 -0.2548 -0.1820
 6697W        W26977   0.590   0.492  13.466 -0.2569  0.1242 -0.1504
 6698W        W26978   6.981   9.546  14.991 -0.1048 -0.1552  0.0873
 6699W        W26979  13.933   4.909   4.649 -0.3280  0.1435  0.4690
 6700W        W26980  17.106  15.781   3.879 -0.0147 -0.2091 -0.0244
 6701W        W26981  14.432  10.726   2.967 -0.0156  0.1442 -0.1216
 6702W        W26982   6.677  16.398   1.142 -0.2880  0.2279  0.0704
 6703W        W26983   5.219   0.162   0.954  0.0256  0.0912 -0.1182
 6704W        W26984  14.567  13.500   1.635 -0.1339  0.1347  0.3248
 6705W        W26985   1.588   3.923  14.496 -0.0408  0.1492  0.1850
 6706W        W26986  17.525   5.616   4.619  0.0423 -0.2209  0.3468
 6707W        W26987   6.317  15.599   4.413  0.1303 -0.2219 -0.0006
 6708W        W26988  14.622   8.310   1.047 -0.2273 -0.0135 -0.1173
 6709W        W26989  16.567   0.627   1.580  0.2180 -0.2704 -0.0002
 6710W        W26990   9.695   5.108   1.637 -0.1031  0.1160 -0.0858
 6711W        W26991   5.298  15.232  15.178 -0.1335 -0.3677 -0.0288
 6712W        W26992  11.168  10.346  12.869 -0.2599  0.0027 -0.2268
 6713W        W26993   4.973  14.043   3.452 -0.1558 -0.0227 -0.0317
 6714W        W26994   2.429   0.569   0.622 -0.0694  0.3049 -0.0949
 6715W        W26995  11.517  10.981   1.251  0.1298  0.3068  0.0748
 6716W        W26996   5.800   1.169   3.630  0.0146  0.0583  0.3174
 6717W        W26997   1.160   3.211  13.108 -0.0146 -0.1185 -0.0537
 6718W        W26998   4.085   3.095  14.180 -0.2034  0.1938 -0.0112
 6719W        W26999   4.517  16.602  15.925 -0.0380  0.1684  0.0396
 6720W        W27000   1.756   8.970   2.900 -0.2430  0.0934  0.1459
 6721W        W27001  11.498   8.771  16.798 -0.2786 -0.0315  0.1346
 6722W        W27002  13.584  12.781  12.988  0.1788 -0.0821  0.0563
 6723W        W27003   5.988  11.724   0.848  0.1627 -0.1483 -0.0581
 6724W        W27004  10.312   8.379   0.453  0.4394 -0.3614 -0.1886
 6725W        W27005  10.130  17.107  14.312 -0.0817 -0.0563  0.0082
 6726W        W27006   5.155  11.809  13.861 -0.1379  0.0293 -0.3212
 6727W        W27007   6.119   7.736  15.987 -0.0996 -0.0860  0.0232
 6728W        W27008  16.625   8.769  16.683  0.0120  0.3121  0.0851
 6729W        W27009   5.232   9.796   3.805 -0.1272 -0.2248  0.0960
 6730W        W27010  14.996  10.374  14.655  0.1712 -0.0112  0.4626
 6731W        W27011   2.940  14.977   3.789  0.0003 -0.1480 -0.2201
 6732W        W27012  11.260   2.546  16.621  0.2639 -0.0345 -0.2865
 6733W        W27013  16.691  16.437   2.272 -0.3632  0.0015 -0.0918
 6734W        W27014   8.009  16.864  14.446  0.1752  0.1960  0.0833
 6735W        W27015  16.081   7.717  15.144 -0.0318  0.0163 -0.2339
 6736W        W27016  12.262  14.975   3.366  0.1757  0.0845  0.0042
 6737W        W27017   0.769   7.112  14.567 -0.2968 -0.0269  0.2103
 6738W        W27018  11.559  11.877   2.247 -0.1802  0.2056  0.0148
 6739W        W27019   4.691  11.790   1.314 -0.3411 -0.0016 -0.2370
 6740W        W27020  14.135  10.972  12.841  0.2310 -0.0054 -0.2842
 6741W        W27021  15.349   5.524   2.287 -0.1183  0.1429  0.1332
 6742W        W27022   3.838  11.589  13.825  0.1067  0.1944 -0.1399
 6743W        W27023   8.434   0.849  16.921 -0.1261  0.0549  0.2770
 6744W        W27024  14.080   2.533   1.361 -0.3438  0.2152 -0.1194
 6745W        W27025   5.691   4.085   1.906 -0.2712  0.2901 -0.0088
 6746W        W27026   9.790  11.377   2.285  0.1195  0.2268  0.2756
 6747W        W27027   2.321  14.833   0.574  0.2559 -0.2402 -0.1494
 6748W        W27028   3.393   0.344   3.123 -0.1160 -0.2269  0.1574
 6749W        W27029   6.079  10.430   1.735  0.2051 -0.0803 -0.0682
 6750W        W27030  14.239   6.719  16.063  0.0125 -0.0348 -0.1999
 6751W        W27031   0.901  16.357   0.182 -0.1863 -0.0836  0.1191
 6752W        W27032   1.023  16.929   2.298 -0.2831 -0.0615  0.1285
 6753W        W27033  13.419   5.517  12.705  0.1150  0.0070  0.0836
 6754W        W27034   1.394   7.767   4.876 -0.2623  0.2023 -0.0681
 6755W        W27035   6.255   2.090   1.255  0.0971 -0.0637  0.2847
 6756W        W27036  12.207  14.497  12.537 -0.0636 -0.1048  0.0542
 6757W        W27037  10.393   9.435   3.981 -0.0165 -0.0888  0.0350
 6758W        W27038   7.573  17.454  16.232 -0.0943  0.2456 -0.2581
 6759W        W27039   7.936  10.564   2.820 -0.3268  0.3062 -0.0698
 6760W        W27040  13.673   0.961   1.814  0.3439 -0.1889  0.0160
 6761W        W27041   7.042  10.557  15.918 -0.0385 -0.2924 -0.3275
 6762W        W27042  16.134   1.352   4.483 -0.3007 -0.0545 -0.2672
 6763W        W27043  11.256   9.124   4.330  0.0035  0.0706 -0.1135
 6764W        W27044   3.148   0.471   0.026 -0.2081  0.0693  0.0071
 6765W        W27045  12.056  11.686  12.674  0.0021  0.2075 -0.1803
 6766W        W27046   9.261   5.380  15.816  0.0689 -0.0394  0.2015
 6767W        W27047   9.683   9.848  14.532  0.1669  0.1509 -0.2581
 6768W        W27048   7.632   6.978   4.666 -0.0696  0.0406  0.3115
 6769W        W27049   0.192   9.424  14.842  0.1016 -0.1946  0.3026
 6770W        W27050   2.660   6.828  16.165 -0.1975 -0.2730 -0.0005
 6771W        W27051  11.694   7.130   4.411 -0.1190 -0.2225  0.2305
 6772W        W27052  16.495  16.006   2.393  0.1707  0.4481 -0.1617
 6773W        W27053   4.865   9.966  13.522 -0.2357 -0.0505  0.1332
 6774W        W27054   8.844   4.065  14.261  0.1478  0.0881 -0.0097
 6775W        W27055  10.376   9.937  13.285 -0.0733 -0.2035 -0.3369
 6776W        W27056  15.746  13.691   4.140 -0.2235 -0.1785 -0.1161
 6777W        W27057  12.230  10.103  15.975 -0.0300  0.1082  0.2928
 6778W        W27058  15.953  16.743   3.563 -0.0943  0.0217 -0.0397
 6779W        W27059   2.076   5.588  15.381  0.2643 -0.0051  0.3349
 6780W        W27060   9.779  13.070  14.189  0.1628 -0.0469  0.3334
 6781W        W27061  16.983  13.983   3.676  0.4581 -0.0960 -0.0415
 6782W        W27062   3.421  15.568  16.797 -0.1919 -0.1340 -0.1964
 6783W        W27063   6.956   0.472   4.450  0.1006 -0.0955 -0.0277
 6784W        W27064  12.028  13.492  16.159 -0.4008  0.2026  0.1809
 6785W        W27065  17.330   1.686   0.017 -0.0685  0.0906  0.0229
 6786W        W27066   6.827  11.679   1.409 -0.1980  0.1522  0.1047
 6787W        W27067   1.431  11.153   4.478 -0.0764  0.1657  0.0131
 6788W        W27068   7.818  10.084  15.744  0.0779  0.3083 -0.0860
 6789W        W27069  10.498   0.064  12.767  0.1254 -0.3669 -0.0339
 6790W        W27070  17.011   4.683   3.405  0.1161 -0.2097  0.0369
 6791W        W27071  15.425   1.667   1.140  0.0089 -0.1002  0.1585
 6792W        W27072  13.655   3.380   4.605 -0.1816  0.0546 -0.1126
 6793W        W27073  10.505  16.240  16.185 -0.1462  0.1597  0.0738
 6794W        W27074   6.194   5.931   0.780  0.0163  0.3256 -0.2120
 6795W        W27075   3.769   3.236  16.264  0.0207 -0.3403 -0.0763
 6796W        W27076   6.840  11.375   2.598 -0.0212  0.0865 -0.0242
 6797W        W27077   6.420  15.337   3.979 -0.0458  0.0723  0.1979
 6798W        W27078  16.352   6.928  13.459  0.0129 -0.0358  0.0066
 6799W        W27079  11.122   8.281   2.529  0.1588  0.2022  0.2897
 6800W        W27080  12.772  14.501  15.337 -0.1650 -0.2845 -0.1640
 6801W        W27081  12.424   2.105   0.568  0.1414  0.0497  0.0384
 6802W        W27082   5.608   1.455   1.334 -0.0474 -0.1598 -0.2968
 6803W        W27083   9.660   6.590   2.374 -0.1672 -0.0416  0.2662
 6804W        W27084  13.009   6.150  13.230  0.1063 -0.1042  0.1874
 6805W        W27085  15.991  15.870   4.559  0.0017  0.1610 -0.0276
 6806W        W27086   1.218  13.203  15.552 -0.0187 -0.0688 -0.1727
 6807W        W27087   8.289  10.327  14.267 -0.0928 -0.1924  0.1074
 6808W        W27088   7.012  14.944   4.639  0.0273  0.0905 -0.1751
 6809W        W27089   3.865   9.070  13.831  0.0033 -0.0609  0.0608
 6810W        W27090   4.444   9.441  14.578 -0.3878 -0.2001 -0.1042
 6811W        W27091  17.472   8.727   1.141 -0.0594 -0.1794 -0.1382
 6812W        W27092  16.610   4.427   4.642 -0.1234 -0.0956 -0.1393
 6813W        W27093  15.146   5.404  16.147 -0.1182 -0.1503  0.2422
 6814W        W27094   0.393  16.318   1.099 -0.0375  0.0503 -0.1930
 6815W        W27095   3.951  10.399  11.974 -0.0604  0.0247  0.0085
 6816W        W27096   9.818  10.230  15.125 -0.0956  0.0064 -0.1497
 6817W        W27097  13.247   5.250   4.084  0.3173 -0.2587  0.2808
 6818W        W27098  14.628  11.675   3.251 -0.2109  0.0798 -0.1833
 6819W        W27099   7.190  10.845   0.438  0.0358  0.0037 -0.2538
 6820W        W27100  11.897   3.420   0.881 -0.1207  0.2806  0.0807
 6821W        W27101  13.810   9.413  15.983  0.2263  0.1121  0.0968
 6822W        W27102  12.120   8.404  16.138  0.2093 -0.1189  0.0058
 6823W        W27103   0.871   2.243  12.729 -0.0076 -0.0592  0.0924
 6824W        W27104   3.761   2.679  16.315  0.0252  0.0185 -0.1686
 6825W        W27105   3.598  14.855  12.220 -0.1990 -0.0242 -0.0012
 6826W        W27106  13.384   5.416   3.262  0.3849  0.0839 -0.0146
 6827W        W27107  17.671   7.578  13.446  0.0859 -0.2058 -0.3340
 6828W        W27108   6.528   7.882   0.915 -0.3257  0.0632  0.0559
 6829W        W27109  14.353  11.395  16.965 -0.2756  0.2391  0.1054
 6830W        W27110   4.689   8.315   2.139 -0.2041 -0.1038 -0.0222
 6831W        W27111  11.336  16.540   3.746  0.0488 -0.1133  0.0823
 6832W        W27112  15.091  14.392   2.204  0.1535 -0.0080  0.0772
 6833W        W27113   5.610   4.559  16.612  0.1153 -0.2782 -0.2093
 6834W        W27114   2.560  15.889  14.264 -0.3351  0.1803 -0.0620
 6835W        W27115  17.169  14.611  12.528 -0.1683  0.0661  0.1128
 6836W        W27116  11.378  10.218   2.784 -0.0590  0.0756  0.0487
 6837W        W27117  13.703  13.972   1.317 -0.2684  0.0125  0.4116
 6838W        W27118   0.695  15.042   0.257  0.0308 -0.0296  0.2528
 6839W        W27119  11.597   0.522   3.954 -0.0946  0.3077  0.0113
 6840W        W27120  13.498  14.528  13.840  0.2776  0.1783 -0.0832
 6841W        W27121  11.869   6.612  16.224  0.2079 -0.1479  0.0906
 6842W        W27122   0.409  14.125   4.261 -0.0341  0.2181  0.0901
 6843W        W27123   7.620   4.074   3.158 -0.2268  0.2577  0.1035
 6844W        W27124  15.688  11.401  16.871  0.0884 -0.0955 -0.2093
 6845W        W27125   1.079   0.072   1.608 -0.1761 -0.0546 -0.1753
 6846W        W27126  10.109   6.386  13.985  0.1597  0.0905  0.0799
 6847W        W27127   8.251  15.589  16.327 -0.0139  0.0440  0.0665
 6848W        W27128  11.083  11.510   4.389 -0.1842  0.4327  0.1127
 6849W        W27129  10.876   0.452  12.452  0.1561  0.0849  0.0723
 6850W        W27130   7.221   8.325   3.269  0.2407  0.0990  0.0936
 6851W        W27131   5.516  14.021   1.412  0.0620 -0.0685  0.3058
 6852W        W27132   2.573  11.427  15.328  0.1261 -0.0278 -0.0492
 6853W        W27133   4.798   4.415   4.045 -0.0392 -0.0214 -0.1111
 6854W        W27134  11.738   7.223  13.474 -0.0512 -0.1631  0.0275
 6855W        W27135  15.150  11.357   2.369 -0.0954  0.1532 -0.1173
 6856W        W27136  16.684  11.545  12.522  0.2332 -0.0646  0.0910
 6857W        W27137  12.229  13.855  15.259 -0.0614 -0.0695  0.0062
 6858W        W27138   1.855   4.292   0.107  0.1559 -0.0519  0.0625
 6859W        W27139  11.024  12.402  14.235  0.1072  0.1179 -0.1672
 6860W        W27140   3.877   5.233   2.121 -0.2072  0.1825  0.0752
 6861W        W27141  10.618  13.041   0.200 -0.0180 -0.0117  0.0203
 6862W        W27142  15.409   3.284  16.573  0.1455  0.1061  0.1948
 6863W        W27143   4.280  10.738  13.259  0.0829  0.1391 -0.0463
 6864W        W27144   8.865   1.689  13.863  0.1045 -0.0642 -0.1818
 6865W        W27145  16.594  16.641  15.712 -0.1668  0.0476  0.1893
 6866W        W27146   1.455   1.259   4.090 -0.1998 -0.2280  0.0468
 6867W        W27147   9.631   7.998  13.348  0.1120  0.0024  0.2846
 6868W        W27148   4.448  14.128   3.206  0.0200 -0.0932 -0.1057
 6869W        W27149  10.192   8.469   4.895 -0.0642  0.0482 -0.3404
 6870W        W27150   7.673  10.575   3.236  0.2700 -0.0769  0.0874
 6871W        W27151   0.059   2.661   2.189 -0.1364  0.0391 -0.0722
 6872W        W27152   9.738  11.816   3.221  0.1435  0.1869  0.1423
 6873W        W27153   7.875  16.915  13.344 -0.0255 -0.0520  0.2230
 6874W        W27154   1.319   0.547   1.757 -0.1616 -0.0777 -0.1775
 6875W        W27155   6.262   0.788  13.690 -0.2448 -0.2324  0.2581
 6876W        W27156  16.220   5.425   3.505  0.2498 -0.0363 -0.2322
 6877W        W27157  10.562  13.061  13.916  0.2584 -0.5486 -0.0582
 6878W        W27158  16.558   4.455   4.133 -0.1646 -0.0209  0.2260
 6879W        W27159  14.710  10.909   0.786 -0.0173 -0.2071 -0.0064
 6880W        W27160   8.766   4.615   0.795  0.0128 -0.0979  0.1187
 6881W        W27161   3.653   9.758   2.216 -0.0384  0.0666 -0.1059
 6882W        W27162   5.549   2.800  16.624  0.0682  0.1732 -0.0621
 6883W        W27163  10.203  15.808   2.470 -0.0479 -0.0821  0.2623
 6884W        W27164   5.072   5.735   2.103  0.0917  0.1355  0.0193
 6885W        W27165  13.702   1.014  15.701 -0.1818  0.1829  0.0239
 6886W        W27166   8.052   4.075  13.784 -0.2585  0.0654  0.0826
 6887W        W27167   5.180  13.660   3.740 -0.2312 -0.0608 -0.4362
 6888W        W27168   3.979  11.277   1.035 -0.0231  0.0104 -0.2116
 6889W        W27169  11.938   0.778  13.513 -0.3271 -0.0501  0.2079
 6890W        W27170  11.025   6.049  16.184  0.0350  0.2139  0.4189
 6891W        W27171   3.955   2.180   3.463 -0.1962 -0.2131  0.1324
 6892W        W27172  13.959  11.020   1.097  0.1019 -0.1464  0.1201
 6893W        W27173   3.335   3.221   1.174 -0.1586 -0.0734 -0.1173
 6894W        W27174   9.130   9.214   1.748  0.1851  0.0860  0.0415
 6895W        W27175   3.176  16.224   4.382  0.4265 -0.2805  0.1592
 6896W        W27176   5.653   1.480   1.839  0.1354  0.0498 -0.1454
 6897W        W27177  13.839  13.891  12.558  0.1322  0.1393  0.2401
 6898W        W27178   5.462   2.192  13.098 -0.2822 -0.1703  0.0129
 6899W        W27179   8.584   3.309  12.576 -0.0195 -0.3062  0.1140
 6900W        W27180   5.303   6.841   2.971 -0.0324 -0.0116  0.1854
 6901W        W27181  16.562   1.524   0.093 -0.0570  0.3230  0.0729
 6902W        W27182   8.550  16.411   0.793  0.0324 -0.2889  0.2320
 6903W        W27183  13.398   1.471  13.237 -0.4439 -0.1371  0.0253
 6904W        W27184  11.416  16.368   2.542 -0.0611  0.2018 -0.1007
 6905W        W27185   1.962   8.157   0.872  0.0363 -0.1433 -0.2393
 6906W        W27186  11.765   8.556  13.831  0.0264  0.1917  0.0734
 6907W        W27187   3.186  10.981   0.930 -0.0357 -0.0833  0.2282
 6908W        W27188  10.404   9.251   1.693  0.3556 -0.0822  0.3060
 6909W        W27189   3.062   6.904   3.626 -0.1071 -0.2170  0.0218
 6910W        W27190  14.239   5.741   1.199 -0.0301  0.2438  0.0773
 6911W        W27191   3.107  12.412   1.411  0.3043 -0.2368 -0.1317
 6912W        W27192   2.160   2.383  16.298  0.1772 -0.0058  0.1744
 6913W        W27193   0.656  11.839   0.573 -0.0013  0.2678  0.1646
 6914W        W27194  16.906  10.999   2.268  0.1076  0.0370 -0.0037
 6915W        W27195  11.927   4.264  13.937  0.2169  0.1925  0.3641
 6916W        W27196  15.053   5.012   3.856  0.3833 -0.1296 -0.0199
 6917W        W27197   8.960  15.739  16.222 -0.1073  0.0160 -0.0537
 6918W        W27198   7.166   8.666   5.370 -0.1826  0.2020  0.1404
 6919W        W27199   9.789   1.181   3.412 -0.2308  0.0434  0.2709
 6920W        W27200   1.482   8.116  14.255 -0.1630 -0.0381  0.0982
 6921W        W27201  15.463  17.065   2.044  0.2236  0.3935  0.1195
 6922W        W27202   7.274   7.611   3.899 -0.0464 -0.0853 -0.1625
 6923W        W27203  17.663   7.869  16.448  0.1066 -0.2095 -0.0248
 6924W        W27204   4.951  12.968  16.891  0.0015  0.3685  0.0104
 6925W        W27205   8.988  12.555   1.479 -0.1042  0.0014  0.0008
 6926W        W27206   5.453  12.328   0.524  0.2468  0.0167 -0.0039
 6927W        W27207   8.958   1.157  15.323 -0.1507 -0.0745  0.0787
 6928W        W27208   3.770   7.253   2.108 -0.1688 -0.3472 -0.0920
 6929W        W27209  13.102  13.380   2.298  0.0275  0.1234 -0.1205
 6930W        W27210   2.167   4.729  14.945  0.1097 -0.0016  0.1751
 6931W        W27211  16.927   0.473   2.606  0.0473  0.0819  0.0515
 6932W        W27212  17.419  14.444  14.541 -0.3509  0.0619 -0.2476
 6933W        W27213   0.763  16.008   4.372  0.3161  0.1543  0.1921
 6934W        W27214  13.641   6.818   4.494 -0.3718 -0.4549 -0.0346
 6935W        W27215  15.162   9.382  13.502 -0.4180  0.2179  0.0816
 6936W        W27216   1.380  13.930  15.864  0.1057 -0.0202 -0.1235
 6937W        W27217  12.066   9.770   4.584 -0.0534 -0.0678 -0.0718
 6938W        W27218   8.598  12.948  15.881 -0.2395 -0.1235  0.2953
 6939W        W27219   9.103  11.483   4.261 -0.3125 -0.2874 -0.0150
 6940W        W27220   8.600  16.816  15.550 -0.0244 -0.1571  0.0168
 6941W        W27221   7.949   1.762  16.960 -0.3069 -0.1407  0.2006
 6942W        W27222   3.133   0.201   3.546 -0.0895 -0.0427  0.1044
 6943W        W27223   0.249  12.476   4.007 -0.0058  0.4115  0.1452
 6944W        W27224   9.989  16.103  14.389  0.1983 -0.2513  0.3170
 6945W        W27225   3.033   9.420   5.414  0.0605  0.1750  0.1625
 6946W        W27226   5.747  14.468   1.655  0.1484  0.1540 -0.0711
 6947W        W27227  15.224   9.835   3.937  0.0287 -0.2498  0.1891
 6948W        W27228   5.472  10.156  13.840 -0.0602 -0.0392 -0.0804
 6949W        W27229   5.052   4.029   1.261  0.0341  0.1607 -0.1456
 6950W        W27230   4.182   9.884   4.161 -0.2017 -0.1358  0.1121
 6951W        W27231  14.502  15.936   4.108  0.0963  0.2221  0.1478
 6952W        W27232   1.452  13.988  12.151  0.1375  0.1389 -0.1094
 6953W        W27233  14.871   1.004  16.965 -0.3402 -0.1207  0.0775
 6954W        W27234   9.745  17.369   0.628 -0.1853 -0.0415 -0.1813
 6955W        W27235   7.801   3.648   2.332 -0.1590 -0.1291 -0.1279
 6956W        W27236  10.257  16.090  15.268  0.0240 -0.5723 -0.1782
 6957W        W27237   6.489  17.325  13.883 -0.0807  0.4584 -0.0015
 6958W        W27238   2.748   5.044   2.320  0.1540 -0.0097 -0.3098
 6959W        W27239   4.656   9.435   1.238 -0.2945 -0.0694  0.1247
 6960W        W27240   3.698   4.874  13.483  0.0924 -0.1076 -0.3458
 6961W        W27241   9.752   0.100   0.387  0.1779 -0.1776  0.0927
 6962W        W27242  14.707   4.450   2.529  0.1421 -0.0656  0.0070
 6963W        W27243   4.389  17.472   2.853 -0.2495 -0.2805 -0.3151
 6964W        W27244   1.772   0.615   2.022  0.1006  0.0208 -0.2077
 6965W        W27245  10.390  14.764  14.547  0.0502 -0.2839  0.1331
 6966W        W27246   3.658  12.191   3.802  0.0361 -0.3531 -0.1765
 6967W        W27247   1.364   7.043  14.715  0.1557  0.2464  0.1328
 6968W        W27248   6.530   6.665   4.671 -0.1374 -0.2072 -0.0428
 6969W        W27249   1.165  14.280  15.600 -0.0117  0.1023 -0.1505
 6970W        W27250  16.307   1.999  14.847  0.2138 -0.0128 -0.2000
 6971W        W27251  14.228   3.904  15.718 -0.2373  0.2587  0.1784
 6972W        W27252   0.776  12.578   1.928 -0.0104  0.1787 -0.0139
 6973W        W27253   2.970  10.849  12.953  0.1937 -0.0347  0.2874
 6974W        W27254  12.405  11.751  15.530  0.1264  0.1472  0.1885
 6975W        W27255  10.911  14.418   1.213  0.3674 -0.1608  0.1404
 6976W        W27256   3.974   5.633  14.127  0.0506  0.3168  0.0112
 6977W        W27257  11.546  12.239   0.990  0.1506  0.0259 -0.2642
 6978W        W27258   6.349  13.965   3.487 -0.2548  0.2427  0.1062
 6979W        W27259   7.329   9.862  16.892 -0.1209 -0.0064 -0.1836
 6980W        W27260   8.843   6.414   1.035 -0.1999  0.2378  0.0882
 6981W        W27261  11.652  13.599   1.372  0.2602 -0.0601  0.2900
 6982W        W27262  16.546  14.729   3.309  0.0682  0.0146 -0.1529
 6983W        W27263   4.222  17.062   0.553 -0.1062  0.1124  0.2446
 6984W        W27264  10.435  12.457   4.711  0.0881 -0.0235  0.0766
 6985W        W27265   6.627   6.196  12.452 -0.0024 -0.2959 -0.1557
 6986W        W27266   9.158   0.465   2.681  0.0092  0.3361  0.5748
 6987W        W27267   9.705   4.935   0.702 -0.0107 -0.1510  0.1456
 6988W        W27268   1.338   4.807  16.579 -0.1998  0.0734  0.0464
 6989W        W27269  14.791   1.101  15.270 -0.0465  0.1742  0.1533
 6990W        W27270   6.462  10.300   1.174  0.2156  0.1072 -0.1146
 6991W        W27271   6.299   9.147   1.311  0.2504  0.1934  0.1523
 6992W        W27272  14.143   8.639   2.184 -0.0464  0.0557 -0.0652
 6993W        W27273   6.868   6.233   0.340 -0.1098  0.1387  0.1990
 6994W        W27274   9.174  12.467   2.222  0.1720  0.2338 -0.1453
 6995W        W27275   7.223   6.684   3.757  0.0223  0.0380 -0.0214
 6996W        W27276  17.452   6.441  16.699  0.1649 -0.1845  0.0439
 6997W        W27277  15.339  13.815  15.001 -0.0224 -0.3365 -0.1497
 6998W        W27278   8.203   1.645  15.007 -0.3105  0.3571  0.0686
 6999W        W27279  11.029   3.060  16.643  0.1927  0.1453  0.1633
 7000W        W27280  16.988  15.153   3.900  0.0901 -0.0223  0.0997
 7001W        W27281  16.435  17.297   2.361  0.0322 -0.2024  0.0427
 7002W        W27282  15.241   8.993   4.645  0.0699 -0.0174  0.2167
 7003W        W27283  11.898  11.850   1.098  0.0213  0.2329  0.1359
 7004W        W27284   6.334  15.922   4.843  0.0818  0.1310  0.0487
 7005W        W27285   9.308   0.870   2.054 -0.2420 -0.0847  0.1862
 7006W        W27286   2.181   9.109   0.968 -0.0222 -0.2855  0.0348
 7007W        W27287   9.055   6.694   2.214  0.3435 -0.0277 -0.0896
 7008W        W27288  15.712   8.636  14.279 -0.1646 -0.2348 -0.2399
 7009W        W27289  13.272  11.046   3.376 -0.0093 -0.1454 -0.3151
 7010W        W27290  10.870  10.801  15.658  0.0900 -0.1700  0.1244
 7011W        W27291   3.049  17.593   3.210  0.2078  0.0356  0.1018
 7012W        W27292  13.780  11.409  14.198 -0.1072 -0.2119 -0.2395
 7013W        W27293  16.224   8.940   0.413  0.2192  0.1030 -0.0280
 7014W        W27294  13.984   6.527  13.961  0.0755  0.1074  0.0626
 7015W        W27295   6.098   4.095   2.255  0.3372 -0.0594  0.1129
 7016W        W27296   6.019   5.886   1.274 -0.3656  0.1372  0.1044
 7017W        W27297   4.439   0.401   0.016  0.0349  0.1953  0.1581
 7018W        W27298  10.945   8.810  12.819 -0.2273  0.1361 -0.0474
 7019W        W27299   2.865   3.419  15.207 -0.2570 -0.0539  0.0486
 7020W        W27300  14.683  11.663   4.434 -0.0478  0.1629  0.0115
 7021W        W27301  10.141   1.627  14.644  0.0200 -0.1596  0.3210
 7022W        W27302  14.604   1.979   4.696 -0.1815  0.1214 -0.2749
 7023W        W27303  15.063  14.879   3.938 -0.0094  0.1244  0.1250
 7024W        W27304   1.693  15.592   4.180 -0.0408 -0.1807  0.1658
 7025W        W27305  16.743   5.126   3.411  0.0389 -0.2173  0.0809
 7026W        W27306   4.910  10.303   1.255 -0.1097 -0.0030 -0.0440
 7027W        W27307   3.024  13.086  15.381 -0.0115 -0.0296 -0.1681
 7028W        W27308   3.049   6.292   5.035  0.1070  0.2166  0.1735
 7029W        W27309  10.021  13.153   2.501 -0.2904 -0.2197 -0.2827
 7030W        W27310  13.578   6.920  15.349 -0.0651 -0.4396 -0.0157
 7031W        W27311  10.710  14.352   0.635 -0.1550  0.0780 -0.1080
 7032W        W27312  17.106   1.823  14.157  0.1165  0.0255 -0.0416
 7033W        W27313  12.759   9.890   3.263  0.1743  0.2476 -0.2013
 7034W        W27314   9.276   3.707   2.250  0.2025  0.2672  0.1450
 7035W        W27315   6.765   8.624   2.622 -0.1695  0.0923  0.0577
 7036W        W27316   4.586   5.188   4.516 -0.5051  0.1988  0.0378
 7037W        W27317   3.703   1.803  16.498  0.0800  0.0608 -0.2592
 7038W        W27318  12.520   1.039   3.543 -0.2641  0.0519 -0.0761
 7039W        W27319   0.218   9.029   4.844 -0.3296 -0.1358  0.2017
 7040W        W27320   0.833  14.015  13.700  0.1321 -0.0976  0.0761
 7041W        W27321   8.111   4.072   5.796  0.0205  0.1382 -0.1522
 7042W        W27322   3.959   3.901  13.424 -0.0371 -0.1536 -0.0215
 7043W        W27323  13.746   0.362  12.240 -0.0226 -0.2285 -0.1452
 7044W        W27324   9.176   8.301  12.608 -0.2422  0.2134  0.1947
 7045W        W27325  11.348   4.554  12.143 -0.1460  0.0080 -0.1877
 7046W        W27326   8.348   1.313   4.256  0.0288  0.1004 -0.0697
 7047W        W27327   7.864   3.208  14.484 -0.3334 -0.1934 -0.2275
 7048W        W27328   6.790  12.551  15.446  0.1335 -0.2036  0.0824
 7049W        W27329  14.170  12.550  16.598 -0.2054  0.2281  0.4767
 7050W        W27330   8.216   6.152   0.392  0.0446  0.0920 -0.1873
 7051W        W27331  17.695  10.963   1.395  0.1098 -0.0447  0.2141
 7052W        W27332   6.733   6.690   1.592  0.1319 -0.0158 -0.0413
 7053W        W27333  12.314  14.717  15.432  0.0271  0.0729 -0.0103
 7054W        W27334   3.122   5.878   2.425  0.2571  0.4824 -0.0495
 7055W        W27335   2.593  11.935   2.610 -0.0858  0.2880  0.1225
 7056W        W27336  13.314   7.967  16.212  0.0256 -0.0010 -0.1667
 7057W        W27337  12.016   2.513   0.733  0.2677 -0.2399  0.1752
 7058W        W27338   1.168   8.186  12.766  0.2832 -0.0490  0.1418
 7059W        W27339   5.622   8.009   0.959  0.0861  0.0520  0.0407
 7060W        W27340   1.364   1.107  16.008 -0.1946  0.0108 -0.0207
 7061W        W27341   0.596   2.428   2.028 -0.0711 -0.2266 -0.0319
 7062W        W27342   4.041   7.272  15.605  0.0778 -0.1661  0.2178
 7063W        W27343  13.800   8.228   1.795 -0.0770  0.1211  0.4187
 7064W        W27344   9.455   1.730   0.011 -0.2026 -0.0698 -0.0382
 7065W        W27345   1.563  11.325  12.215  0.0053 -0.1431 -0.2695
 7066W        W27346  17.532  13.997   3.530  0.2643  0.2722 -0.2346
 7067W        W27347  14.016  17.291  13.737  0.0416 -0.1381 -0.1874
 7068W        W27348  14.138  13.189   1.530 -0.0409 -0.3473 -0.0374
 7069W        W27349  15.153   8.213   0.469 -0.2049 -0.0641  0.0480
 7070W        W27350   1.258  13.754   4.972  0.1005 -0.0559  0.3371
 7071W        W27351  15.449   8.179  13.991 -0.1725  0.0614 -0.1712
 7072W        W27352  15.014  10.584  15.867 -0.2192 -0.0753  0.1348
 7073W        W27353  12.968  11.157   4.189 -0.1941  0.0792 -0.0021
 7074W        W27354  10.612  10.404   2.089 -0.0614 -0.0320  0.1629
 7075W        W27355  10.115   3.709  15.544  0.1146  0.0946 -0.0491
 7076W        W27356   4.619   3.853   4.086  0.0887 -0.1383 -0.0044
 7077W        W27357   8.825  12.918  12.717  0.2400 -0.0661 -0.0797
 7078W        W27358  10.909   5.565   3.212 -0.1195 -0.0254 -0.1188
 7079W        W27359   4.771  11.462   3.824 -0.2360  0.0531 -0.2667
 7080W        W27360   8.890  17.571   3.314 -0.1406 -0.0223  0.0234
 7081W        W27361   1.388   9.011  17.019 -0.1728 -0.1868  0.2808
 7082W        W27362   4.759  15.193   1.175  0.2221  0.2913 -0.1787
 7083W        W27363  16.134  17.001  15.128  0.0493  0.0973  0.3152
 7084W        W27364  11.153  15.508  10.698 -0.0819 -0.0645  0.2625
 7085W        W27365  12.409  10.172   4.608  0.2998 -0.1378  0.3665
 7086W        W27366   0.510  14.654  15.152  0.1841  0.0621  0.1078
 7087W        W27367   3.832   3.089  14.608  0.2152 -0.2014 -0.2906
 7088W        W27368   5.463  14.088   3.656 -0.0097  0.0765  0.1955
 7089W        W27369   2.834  11.998  14.218 -0.1153 -0.0675 -0.1521
 7090W        W27370  17.206  11.883  13.747  0.2658  0.1423 -0.0898
 7091W        W27371  13.145   1.189   4.571  0.3489 -0.1914  0.0104
 7092W        W27372  16.020   1.751   1.145 -0.0071 -0.0853  0.2153
 7093W        W27373   7.147  16.546   5.019  0.1976 -0.0398 -0.0696
 7094W        W27374   2.770   5.770  14.696  0.0889 -0.1565  0.0300
 7095W        W27375  17.211  15.708  12.847  0.1245 -0.1423 -0.1195
 7096W        W27376   6.834   7.680  14.283 -0.2829 -0.0669  0.0754
 7097W        W27377   7.264  17.427   2.869 -0.0015 -0.0444  0.2021
 7098W        W27378  15.274  11.811   1.677 -0.0786  0.1238  0.0255
 7099W        W27379  10.310   1.073   0.193 -0.0235 -0.1738  0.1928
 7100W        W27380   8.672  16.588  16.083  0.2618 -0.0737 -0.1036
 7101W        W27381   6.664   1.148  13.816  0.1630  0.2039  0.1773
 7102W        W27382  12.157  16.194  15.679 -0.1643  0.0544  0.1417
 7103W        W27383  14.386   5.910   2.490 -0.0366  0.0916 -0.0486
 7104W        W27384  14.852  11.396  13.812 -0.3898 -0.1362 -0.1684
 7105W        W27385   3.881   5.913  16.577 -0.0545  0.0098 -0.0410
 7106W        W27386  11.077  13.003   0.062 -0.1199 -0.1923 -0.2836
 7107W        W27387   1.488  12.106   1.915 -0.0426  0.0268  0.1337
 7108W        W27388   9.849   8.970   2.381 -0.1656 -0.3108 -0.2761
 7109W        W27389  15.840  15.315   2.736 -0.0806 -0.1165 -0.2327
 7110W        W27390  11.728   4.096   3.083  0.0169 -0.2059  0.1881
 7111W        W27391   1.994  12.976   1.018 -0.3767  0.0953  0.1907
 7112W        W27392  16.512   0.185  14.982  0.1026  0.2392 -0.0694
 7113W        W27393  12.564   0.532   4.258 -0.1050 -0.2772  0.0577
 7114W        W27394  15.831  15.564   4.163  0.2087 -0.2072 -0.1675
 7115W        W27395  17.162  10.772  14.853  0.0385  0.0533  0.1139
 7116W        W27396  14.541  12.278   1.030  0.0684 -0.0140  0.0811
 7117W        W27397   7.142  14.374  13.073 -0.2313 -0.0298  0.2085
 7118W        W27398   2.360   9.383   2.286  0.0514 -0.2880  0.1312
 7119W        W27399  14.961  10.450   3.699  0.1788  0.0376 -0.0925
 7120W        W27400   7.724   4.882  16.546 -0.0122  0.1415 -0.2097
 7121W        W27401   6.358   7.445   3.717 -0.0343 -0.0666  0.3117
 7122W        W27402   9.179   2.880   4.542 -0.0974  0.2899  0.0297
 7123W        W27403  17.604   4.901   4.706 -0.1010  0.1394  0.3670
 7124W        W27404   2.646   2.578  13.768  0.1764  0.0936  0.1193
 7125W        W27405   3.888   3.502  14.380 -0.0977 -0.1849 -0.2514
 7126W        W27406  17.136   6.179   4.876 -0.0138 -0.0739 -0.0308
 7127W        W27407   0.480  13.339  12.271  0.1156 -0.2546  0.0745
 7128W        W27408  17.278   7.471   1.930  0.1407  0.3238  0.2184
 7129W        W27409   0.796  10.450   4.178  0.1979  0.1298  0.0765
 7130W        W27410  10.039   9.130   3.783  0.1243 -0.1500  0.0512
 7131W        W27411  17.683  11.444  16.107 -0.0702  0.1915  0.0539
 7132W        W27412  17.380  16.971   2.598  0.1573  0.0829 -0.0199
 7133W        W27413   7.315  13.451   5.366 -0.0635 -0.1427  0.1417
 7134W        W27414   4.912   4.837  15.968 -0.2955  0.2837 -0.4522
 7135W        W27415  14.451   3.272   1.823 -0.2098 -0.1965  0.1039
 7136W        W27416  16.136   3.443   1.812 -0.1330  0.1176 -0.1197
 7137W        W27417   0.761   8.436   3.545  0.0602  0.1182  0.0977
 7138W        W27418  14.131   1.367   0.798  0.2337 -0.0781 -0.5018
 7139W        W27419   2.415  13.332  13.867  0.2602 -0.0769  0.1845
 7140W        W27420   7.540  11.530   2.095  0.2228 -0.4509  0.2326
 7141W        W27421  14.528  12.415  13.427  0.0627  0.1267 -0.0081
 7142W        W27422   4.210  16.982   0.055  0.0861  0.0382 -0.0937
 7143W        W27423  12.921   6.915  15.493  0.1514 -0.1157  0.2391
 7144W        W27424  12.802   1.455   1.874  0.2761  0.3397 -0.0523
 7145W        W27425   6.819   0.620   2.951 -0.2168 -0.0414 -0.0569
 7146W        W27426  12.839   8.023   4.927  0.0349  0.0914  0.0525
 7147W        W27427   3.188   5.848   0.738 -0.0090 -0.1281 -0.2311
 7148W        W27428   5.959   0.611   4.899 -0.1004 -0.2068  0.1456
 7149W        W27429   9.565   5.439  15.341 -0.3021  0.4819  0.1013
 7150W        W27430   7.284  10.025  12.414 -0.0522  0.0831 -0.1219
 7151W        W27431   9.703  13.935   1.401  0.2575 -0.1065  0.2356
 7152W        W27432   2.663  10.996  16.980  0.2823 -0.1030 -0.3016
 7153W        W27433  13.142  17.153  16.562  0.0250  0.0153  0.1276
 7154W        W27434   8.385  17.361   0.226 -0.0459 -0.1820  0.2085
 7155W        W27435   9.599   7.067  15.427  0.2719  0.0860 -0.2411
 7156W        W27436  14.601  16.593   4.795 -0.2349  0.2022 -0.4054
 7157W        W27437   7.466  13.657  12.689 -0.0121  0.0469  0.1907
 7158W        W27438   1.192   3.439  15.679  0.0667 -0.0676  0.2299
 7159W        W27439   6.182   3.905   3.966 -0.3001  0.0839  0.1546
 7160W        W27440  16.157  11.688   2.225 -0.3055 -0.1008  0.1569
 7161W        W27441   8.615  11.230   0.587 -0.1949 -0.1672 -0.0941
 7162W        W27442   2.572   5.591  13.068  0.1478  0.0356 -0.3731
 7163W        W27443  11.368  13.498   2.063  0.1754 -0.0437 -0.1519
 7164W        W27444  11.971  14.344   4.430  0.0035  0.0573  0.1090
 7165W        W27445   3.714   6.792  16.397 -0.0592  0.3243 -0.1454
 7166W        W27446   7.801   4.783  15.760 -0.2575 -0.0729 -0.1111
 7167W        W27447  15.012   1.110   4.868 -0.1053 -0.2548 -0.0399
 7168W        W27448   2.237   8.193  13.087  0.3212  0.0995  0.1038
 7169W        W27449  12.862  16.506   1.306  0.1413  0.3338  0.1717
 7170W        W27450   8.590   8.451   0.965  0.2463  0.5779  0.0654
 7171W        W27451  16.385  17.226   0.574  0.1644 -0.0319  0.1996
 7172W        W27452  13.457  13.280  14.845 -0.1351 -0.1523 -0.0386
 7173W        W27453  11.137  11.078  16.258 -0.0929  0.3562 -0.1479
 7174W        W27454   5.991  13.733  14.357 -0.1973 -0.0100 -0.2121
 7175W        W27455   3.631  16.546   4.756  0.2862  0.0725 -0.0789
 7176W        W27456   2.195   3.507  12.860 -0.2356  0.0334 -0.0279
 7177W        W27457  14.407  15.216  12.222 -0.1674  0.2772 -0.0177
 7178W        W27458  15.484   0.496   2.393  0.0492 -0.0857 -0.0828
 7179W        W27459  13.670   9.947   2.033  0.0861  0.1962  0.1265
 7180W        W27460  12.732   1.984  13.821  0.2438 -0.1493  0.1731
 7181W        W27461   2.481   7.767  12.942  0.3100 -0.0071  0.5886
 7182W        W27462   1.390  14.657  16.527  0.2321  0.3578 -0.0400
 7183W        W27463   2.175   1.115   4.634  0.0994  0.1294  0.0845
 7184W        W27464   0.636  15.666   2.048 -0.0153  0.2032 -0.1829
 7185W        W27465  16.281  17.663  16.336 -0.3889  0.0624  0.0167
 7186W        W27466  14.155  13.049   2.021 -0.2015  0.2063  0.0118
 7187W        W27467  12.114  15.695   4.138 -0.1282  0.1107  0.0762
 7188W        W27468  11.703   5.968  13.282  0.1051  0.0907 -0.1560
 7189W        W27469  14.337   3.500   0.974  0.0229  0.1239  0.2208
 7190W        W27470  17.192  17.422  13.225  0.3047  0.0529 -0.1308
 7191W        W27471   5.325   3.622   3.327  0.1663  0.0639 -0.0659
 7192W        W27472   8.712  15.258   0.778  0.1853 -0.0484  0.0547
 7193W        W27473  15.565   9.972   1.735  0.1556 -0.1406 -0.1266
 7194W        W27474  12.392   3.603  12.485  0.0277  0.1953 -0.0334
 7195W        W27475   8.165  17.237   4.871 -0.0042 -0.2044 -0.2314
 7196W        W27476   9.418   8.472  16.951 -0.3103 -0.1436  0.4007
 7197W        W27477   9.331   4.821  14.592  0.1444 -0.1154  0.1455
 7198W        W27478   9.747  14.096  14.449  0.5027 -0.0289  0.3985
 7199W        W27479   5.614   6.478  16.348  0.1808 -0.2451  0.2103
 7200W        W27480  14.708  15.206   0.451 -0.0445 -0.0987  0.1571
 7201W        W27481   9.162   1.929   3.158  0.3890 -0.0334  0.0998
 7202W        W27482   1.974   4.739   1.131 -0.0139 -0.1614 -0.2653
 7203W        W27483   8.164  10.509  13.822  0.0705  0.1657  0.0059
 7204W        W27484   1.109  10.667  13.435  0.1884  0.1866 -0.3151
 7205W        W27485   1.090   4.966  12.321  0.1688 -0.1760 -0.1153
 7206W        W27486  10.215  13.948  13.296  0.0548  0.0253  0.2235
 7207W        W27487   3.065   2.122   3.602  0.1191 -0.1522 -0.2569
 7208W        W27488   9.462   6.725  15.115  0.1526 -0.3755  0.4081
 7209W        W27489   0.704   3.479   2.321  0.0269 -0.0602 -0.2104
 7210W        W27490   4.614   4.093   3.199 -0.1407  0.0106  0.2114
 7211W        W27491   5.713  11.904   3.663  0.0200 -0.1538 -0.0427
 7212W        W27492  12.855   8.149   1.628 -0.0452  0.1526 -0.1955
 7213W        W27493  12.882  14.693   4.581  0.0113 -0.1526 -0.2691
 7214W        W27494  11.994   2.498  15.444  0.0068 -0.0113  0.0811
 7215W        W27495   4.922   5.825   4.882 -0.0169 -0.2921 -0.1680
 7216W        W27496   2.669  14.489  12.299 -0.0416 -0.2015 -0.1477
 7217W        W27497  13.605  15.991  14.643 -0.0651 -0.1434 -0.2677
 7218W        W27498   3.785   0.385   1.138  0.1251  0.5376  0.2854
 7219W        W27499  14.443   3.563  16.765 -0.3023 -0.0700 -0.0283
 7220W        W27500   8.847   1.735  14.397 -0.1056  0.1033 -0.2128
 7221W        W27501  10.230  13.386  14.211  0.5430 -0.0009  0.2378
 7222W        W27502  11.378  15.075  10.647 -0.1230  0.1021 -0.0867
 7223W        W27503   0.314  12.428  15.433  0.1804 -0.1331  0.0965
 7224W        W27504  14.417   9.744   0.643  0.0112  0.0952 -0.1194
 7225W        W27505   1.839   6.938  15.034 -0.2605 -0.0335  0.0316
 7226W        W27506  16.429  12.837   4.688  0.0435  0.3414 -0.0957
 7227W        W27507  14.822  13.308  13.266 -0.0018  0.3029  0.2270
 7228W        W27508  16.282  12.167  13.133 -0.2617  0.0056  0.0607
 7229W        W27509  13.776   9.995  14.431  0.0173  0.1166 -0.1182
 7230W        W27510  10.378   6.656   0.670  0.1640  0.2472 -0.1846
 7231W        W27511   5.059  13.818  15.451  0.2037  0.0240 -0.1420
 7232W        W27512   6.884   8.364  16.357 -0.1963  0.4537 -0.0736
 7233W        W27513  12.920   6.576   3.932  0.1330 -0.2503  0.0408
 7234W        W27514   6.762   9.665  14.545  0.1522  0.0512  0.1971
 7235W        W27515   5.952   3.209  12.838 -0.1860 -0.2440  0.2728
 7236W        W27516  15.890   8.149  15.102  0.0907  0.1266 -0.2821
 7237W        W27517  14.077   5.522  13.825  0.2627  0.2518 -0.0933
 7238W        W27518  17.217  15.395  13.308 -0.0321 -0.1498 -0.0360
 7239W        W27519  15.672   9.568   4.015 -0.0865 -0.2680 -0.1663
 7240W        W27520   6.570   8.831  14.095  0.1425  0.0474  0.3042
 7241W        W27521  12.986   1.803   1.464  0.1471 -0.3758  0.0645
 7242W        W27522   4.131   9.551   2.045 -0.0179  0.0861  0.2147
 7243W        W27523   5.823   9.813  15.845  0.0602 -0.2461  0.0901
 7244W        W27524  14.209  12.171   2.694  0.4958 -0.1955  0.1835
 7245W        W27525  14.738  14.992  13.080  0.0423  0.4486 -0.0543
 7246W        W27526  16.481   7.506  13.858  0.0227 -0.0136 -0.0007
 7247W        W27527   7.880  11.910  12.746  0.1851 -0.4346 -0.0205
 7248W        W27528   1.939   6.608   1.872 -0.1637 -0.0854 -0.2102
 7249W        W27529   3.257   2.910   2.068  0.2923  0.0194 -0.0236
 7250W        W27530  13.385   9.702   1.699 -0.1431 -0.1378  0.0765
 7251W        W27531  16.027  12.063   2.654 -0.1690  0.2466  0.0820
 7252W        W27532   4.832   6.837  15.214  0.2007  0.0551  0.1955
 7253W        W27533   0.533   4.477  16.383  0.2493  0.0788  0.0874
 7254W        W27534   5.785  11.130   4.051 -0.0722  0.0275  0.0182
 7255W        W27535   5.325   4.325  13.479 -0.0584 -0.1335 -0.1658
 7256W        W27536  17.116   1.325   3.740  0.0025 -0.4692 -0.0068
 7257W        W27537   9.424  16.163   1.317  0.0718  0.0039  0.0247
 7258W        W27538   8.822   2.724   3.610 -0.0908 -0.0246  0.1504
 7259W        W27539  14.898  11.020  12.495  0.0104 -0.2039  0.0105
 7260W        W27540   9.245  17.250  12.963 -0.0125  0.1836 -0.1562
 7261W        W27541   6.065  10.715   4.933  0.1368 -0.2452  0.1281
 7262W        W27542   2.523  14.675   2.476 -0.0159  0.1044 -0.0592
 7263W        W27543  12.481  15.726  14.431  0.0663 -0.2217 -0.1143
 7264W        W27544   4.668   1.393  13.588  0.1414 -0.1992 -0.0648
 7265W        W27545   8.546  14.524  15.139  0.1259 -0.0665 -0.2228
 7266W        W27546  15.912   5.691  14.662  0.0790  0.1955  0.2298
 7267W        W27547  10.604   9.168  13.067  0.0641  0.2525  0.0827
 7268W        W27548  15.743   8.586  13.772 -0.0276  0.0100  0.0616
 7269W        W27549  11.610   9.729   2.620  0.0505  0.0204  0.2896
 7270W        W27550   2.562  14.963  13.036  0.1644  0.2699  0.0391
 7271W        W27551  15.556   9.692   2.445 -0.0090  0.5617 -0.1044
 7272W        W27552  16.431   5.736  14.694 -0.0145 -0.0123 -0.1421
 7273W        W27553   0.380   3.713   0.638  0.0905  0.1044  0.2355
 7274W        W27554   5.240  10.357   2.764 -0.2470  0.1775 -0.1362
 7275W        W27555  17.222   7.660   3.229  0.0070 -0.1183  0.1475
 7276W        W27556  13.516  14.966   3.498  0.4594  0.1416  0.1282
 7277W        W27557   4.889  15.691  16.810 -0.0669  0.1616  0.1620
 7278W        W27558  13.428  14.003  13.911 -0.0503  0.2459 -0.2227
 7279W        W27559   9.650   6.848   0.990 -0.2870  0.0290  0.4143
 7280W        W27560   0.880  15.853   1.632  0.1558  0.0896 -0.0011
 7281W        W27561  15.804   6.480  12.821 -0.2392 -0.0534 -0.0159
 7282W        W27562  12.019   5.592   2.989 -0.1956 -0.2303  0.0699
 7283W        W27563   7.200   4.222  15.011  0.1186 -0.0890  0.3500
 7284W        W27564   8.625   4.821   2.036 -0.0334  0.0285  0.0807
 7285W        W27565  10.764  15.745   0.003 -0.0804  0.2084  0.2526
 7286W        W27566   0.148  14.334  16.796  0.0207 -0.0694  0.2214
 7287W        W27567   3.814  12.351   0.064  0.0605 -0.0351 -0.0200
 7288W        W27568  17.254   9.304  13.058  0.0811 -0.2161 -0.1979
 7289W        W27569  16.878  10.159  15.633  0.0301  0.0713  0.0214
 7290W        W27570  14.153   9.705   2.091  0.0155  0.0755 -0.2074
 7291W        W27571   2.007  10.388   2.393 -0.0903  0.0278 -0.0280
 7292W        W27572  10.534   5.184   4.040 -0.0954 -0.0196  0.0791
 7293W        W27573  10.718   2.676   1.031 -0.0055 -0.0140 -0.1349
 7294W        W27574  13.131   6.704   3.529  0.0228  0.0250 -0.2708
 7295W        W27575   9.407  13.008   5.941 -0.2237 -0.1386 -0.1180
 7296W        W27576  11.122  14.429   0.337  0.3580  0.0288 -0.0424
 7297W        W27577  17.734   7.405   3.185  0.0302 -0.0880 -0.2840
 7298W        W27578   1.011  14.063   3.418  0.1359  0.2048  0.0193
 7299W        W27579   0.119  13.406  17.013 -0.0956  0.0075  0.2265
 7300W        W27580   7.942  17.118  13.884 -0.0335  0.1761 -0.3298
 7301W        W27581  16.697   8.944   0.267 -0.3264  0.1193 -0.0426
 7302W        W27582   1.648   7.846   4.012 -0.0526  0.0158 -0.2472
 7303W        W27583  16.652   9.834   0.461 -0.0731  0.2008 -0.0698
 7304W        W27584   0.252   3.449   2.582  0.4577  0.1464 -0.1321
 7305W        W27585  10.129   9.722  13.805  0.3123  0.0516  0.2960
 7306W        W27586   8.395   3.896   0.692  0.2043 -0.1364 -0.1860
 7307W        W27587   4.892   2.708   1.893  0.0107  0.1481 -0.2186
 7308W        W27588   7.402  12.661   0.473 -0.1487 -0.1425  0.1266
 7309W        W27589   6.254   7.346  12.484  0.3323 -0.3073  0.1528
 7310W        W27590  15.056   9.341  16.878 -0.0087  0.0312 -0.0824
 7311W        W27591  10.986   4.419  13.427 -0.1025 -0.4463 -0.1366
 7312W        W27592   5.938  14.197   1.235  0.1902 -0.2295 -0.0996
 7313W        W27593   5.975   9.213  13.424  0.1956 -0.4002 -0.0840
 7314W        W27594   9.896   6.625   5.818  0.1548 -0.0712  0.0942
 7315W        W27595   4.236  11.034  15.626 -0.0014 -0.0670 -0.1838
 7316W        W27596  12.690  10.605  13.678  0.1021 -0.3336 -0.0142
 7317W        W27597  10.814   8.584   2.284  0.2772  0.2622 -0.2215
 7318W        W27598   5.814   5.871  14.694 -0.0689 -0.2129  0.0389
 7319W        W27599  15.812  15.529  16.346  0.0481 -0.1272 -0.1018
 7320W        W27600  14.697   6.060  13.606  0.3368  0.0845  0.3392
 7321W        W27601  13.440   6.039  13.637 -0.0611  0.2344  0.1571
 7322W        W27602   5.821  14.291  12.323  0.3173 -0.0281  0.0670
 7323W        W27603  16.673  17.490  12.940 -0.2755  0.0142 -0.0984
 7324W        W27604  15.917  14.594  16.595 -0.2635 -0.1225 -0.3120
 7325W        W27605  14.626  15.613  12.993 -0.1163  0.1061 -0.1348
 7326W        W27606   8.174   6.840  14.813 -0.2321 -0.0538  0.0250
 7327W        W27607   5.904   4.376  14.366 -0.1121 -0.2197 -0.1399
 7328W        W27608   5.552   6.710   0.776  0.0895 -0.2023 -0.2217
 7329W        W27609   3.069   3.862   2.300 -0.0611 -0.0090  0.0391
 7330W        W27610   7.025   2.942  16.390  0.0181  0.0012 -0.1027
 7331W        W27611  11.347   5.415  14.572  0.1485 -0.0242 -0.0751
 7332W        W27612  15.271  15.240   5.520  0.2001  0.0090 -0.0184
 7333W        W27613  12.685  15.742  12.751 -0.0199 -0.1883  0.0794
 7334W        W27614   5.231   5.709  13.953  0.0516  0.1209  0.0635
 7335W        W27615  10.768  11.976  15.147  0.1168 -0.3170  0.0677
 7336W        W27616   7.228   9.192  13.164 -0.1990 -0.1040 -0.2395
 7337W        W27617   0.038   3.265  14.520  0.0422 -0.0606 -0.3119
 7338W        W27618  14.802   6.911   1.703 -0.3473 -0.2897  0.0310
 7339W        W27619   2.921  12.690  14.337  0.3740 -0.4077 -0.2349
 7340W        W27620  17.301   1.521   1.041  0.2355  0.4072 -0.1399
 7341W        W27621   7.595  13.799   0.802  0.3926 -0.1052  0.0955
 7342W        W27622  14.684   4.669   1.720 -0.1355 -0.2220  0.0399
 7343W        W27623   2.618  12.320   3.904  0.1965 -0.1308  0.4789
 7344W        W27624   5.984  16.448   3.374 -0.0389  0.2194 -0.2416
 7345W        W27625   2.607   2.119  12.907  0.0120 -0.1640 -0.1316
 7346W        W27626  16.714   1.759   2.539  0.0424  0.1633  0.2441
 7347W        W27627   7.457  13.335  13.073  0.1480  0.0274 -0.0515
 7348W        W27628   1.596  13.559  14.292 -0.0807 -0.3294  0.0440
 7349W        W27629   0.849  13.588  14.968 -0.1691  0.0961 -0.1205
 7350W        W27630  16.191  10.970   2.734 -0.4143  0.0194  0.0178
 7351W        W27631  10.862   1.437  14.846 -0.3165 -0.0025  0.0077
 7352W        W27632   6.313  12.785  14.427 -0.0664  0.2783 -0.0318
 7353W        W27633  11.282   6.446  15.703 -0.0831  0.0245 -0.2210
 7354W        W27634   6.423  16.064  12.020 -0.1799 -0.0460 -0.0982
 7355W        W27635  13.799   0.847   3.532  0.2547  0.1488 -0.2059
 7356W        W27636   5.589  17.496  13.911  0.3081 -0.0267 -0.0569
 7357W        W27637   3.238   9.782  12.455  0.2246 -0.2062 -0.1198
 7358W        W27638  13.234  10.699  14.609 -0.2467  0.0871  0.1219
 7359W        W27639  13.879  14.409  13.081 -0.3231 -0.0125 -0.2215
 7360W        W27640  11.791   2.976  13.952 -0.0963 -0.3214 -0.6974
 7361W        W27641  16.678  11.200   3.301  0.1994 -0.0134 -0.0554
 7362W        W27642  13.470   8.090  13.951 -0.3820  0.1543  0.1116
 7363W        W27643   8.247  13.499  15.154  0.3249 -0.2180 -0.1400
 7364W        W27644   3.509   0.843   3.207  0.0452  0.0604 -0.0438
 7365W        W27645  11.950   2.237   4.544  0.2074 -0.2976  0.1359
 7366W        W27646   0.449  15.492  15.542  0.0254  0.2190  0.0298
 7367W        W27647   2.285  13.522  15.419  0.2494 -0.1972  0.0030
 7368W        W27648  11.151   2.187  14.200  0.2069  0.1398  0.0071
 7369W        W27649   7.174   5.478   4.309 -0.1233 -0.1044  0.0361
 7370W        W27650  14.931   4.925  12.477  0.2033  0.0271 -0.0286
 7371W        W27651   5.007   2.134   4.246  0.1400 -0.3045  0.2055
 7372W        W27652   3.544  12.338  12.510 -0.0269  0.0640  0.3175
 7373W        W27653   2.110  17.465  15.511 -0.0121  0.2984  0.1223
 7374W        W27654  16.759   2.915   2.940  0.1108  0.0526 -0.0483
 7375W        W27655   2.545   3.827   2.136  0.4614 -0.1826  0.1561
 7376W        W27656  17.206  14.222  16.163 -0.1112  0.0463 -0.2638
 7377W        W27657  14.971  11.274  14.792 -0.1453  0.2843  0.1325
 7378W        W27658   7.848  16.712   3.009  0.5482 -0.3795  0.0179
 7379W        W27659   0.456  17.120  15.542  0.0914 -0.2528  0.0093
 7380W        W27660   1.686   2.176   3.148 -0.0629 -0.3579 -0.0951
 7381W        W27661  17.383  16.527  14.613 -0.0768  0.0226  0.1171
 7382W        W27662   2.841   5.509   2.149  0.1342  0.2274 -0.1620
 7383W        W27663   8.171   0.026   4.670  0.1659  0.1124 -0.1284
 7384W        W27664   8.174  15.640  14.158 -0.1024 -0.3579  0.3220
 7385W        W27665   3.773   1.162   4.057 -0.0387 -0.0253  0.0206
 7386W        W27666  16.701  10.624  14.671  0.0434  0.0914  0.1322
 7387W        W27667   1.338  10.239  13.230 -0.1092 -0.2868  0.1429
 7388W        W27668  14.539   8.663  16.647 -0.2174  0.1655  0.1697
 7389W        W27669  16.695   1.040   0.924 -0.0769  0.0868 -0.4019
 7390W        W27670   2.120   2.773  15.489 -0.1079  0.2600  0.1549
 7391W        W27671   5.652  16.038   3.788  0.5228  0.3142  0.0507
 7392W        W27672  13.181  13.209  12.688 -0.1340 -0.2788  0.0512
 7393W        W27673   3.297   1.562  12.110  0.0708  0.2449  0.2965
 7394W        W27674   8.274   5.008   1.692  0.2199 -0.0563 -0.2831
 7395W        W27675   8.947   4.690  16.540  0.2267 -0.1117 -0.1316
 7396W        W27676  10.979   4.670  16.669  0.0553 -0.1314 -0.1630
 7397W        W27677   4.289   1.405  16.162  0.0876  0.0669  0.0489
 7398W        W27678   1.291   7.329  14.291 -0.0712 -0.2615 -0.0295
 7399W        W27679  15.403  14.962   0.066 -0.0174 -0.1629  0.2821
 7400W        W27680  15.906  10.576   2.517  0.0907 -0.0583 -0.0761
 7401W        W27681  15.743  15.898  11.877 -0.0697 -0.0686 -0.0987
 7402W        W27682  11.196   0.656  15.911 -0.2050 -0.1437 -0.0408
 7403W        W27683   6.966  11.284   3.827 -0.0363 -0.1190 -0.4403
 7404W        W27684   9.835   1.186  14.558 -0.1957  0.0120  0.0146
 7405W        W27685  13.786  16.604   1.585 -0.1521  0.1468  0.1197
 7406W        W27686   6.123  16.482  16.820 -0.0222  0.1746  0.1348
 7407W        W27687  14.038  10.998   1.551  0.0759  0.0569 -0.1401
 7408W        W27688  12.660   4.317   3.320 -0.0177 -0.0603  0.1364
 7409W        W27689   2.550  10.212   3.242  0.2887 -0.0286 -0.0336
 7410W        W27690   1.894   5.295   2.765 -0.3882 -0.1009  0.2186
 7411W        W27691  16.262   6.155   0.549 -0.1373 -0.4462  0.0101
 7412W        W27692  13.220  13.865  15.918 -0.0215 -0.1354 -0.3268
 7413W        W27693   2.646   5.179   4.493  0.0256 -0.0634 -0.0585
 7414W        W27694   3.017  11.713   1.688  0.4885  0.1076  0.5436
 7415W        W27695   0.639  16.538  12.502  0.0284  0.0705  0.0394
 7416W        W27696   6.592   2.279  16.549  0.3951 -0.1605  0.0090
 7417W        W27697  12.706  11.336   2.911 -0.1337  0.1357  0.1327
 7418W        W27698   6.803   9.481  13.267 -0.0539  0.1873 -0.2527
 7419W        W27699   6.214   4.556   0.213 -0.2886  0.0850 -0.0012
 7420W        W27700   3.710  14.016   4.744  0.2948 -0.0198 -0.1307
 7421W        W27701   5.254   0.920   0.557 -0.1947 -0.0437 -0.1210
 7422W        W27702   3.458   6.692   1.929  0.0747 -0.0797  0.0953
 7423W        W27703   7.058   5.323   3.219  0.0766  0.1657 -0.1557
 7424W        W27704   4.702   9.391   5.493  0.1250 -0.3713 -0.2946
 7425W        W27705   8.981  10.809   0.799 -0.0214  0.2694 -0.0120
 7426W        W27706   6.780   4.878   3.634 -0.1970  0.0697  0.0943
 7427W        W27707   6.730  13.994   3.959  0.0080 -0.0611  0.1814
 7428W        W27708  11.650  13.938  14.040  0.0194 -0.2548  0.0409
 7429W        W27709   4.549   1.533   0.534 -0.0910  0.0061  0.2260
 7430W        W27710  12.814   2.084   0.208  0.1956 -0.1572  0.1544
 7431W        W27711  11.794   6.823   0.606  0.0809  0.1909  0.3407
 7432W        W27712  16.132  17.612   0.276 -0.1345  0.0127  0.0846
 7433W        W27713   3.011   4.273   3.516  0.2097 -0.0867 -0.1332
 7434W        W27714  14.234   3.042  15.458 -0.0739 -0.2767 -0.1062
 7435W        W27715   2.361   9.154   2.967  0.1253  0.0407 -0.2193
 7436W        W27716   4.059  15.846   0.291  0.0543 -0.0286 -0.2911
 7437W        W27717  10.169   0.764  16.843 -0.0964 -0.5049  0.2147
 7438W        W27718  12.662   1.127  16.675 -0.1182 -0.0743 -0.0614
 7439W        W27719   9.821   6.130   2.414 -0.0097 -0.0297  0.0291
 7440W        W27720   7.811  10.108   1.324 -0.0885  0.0676  0.0704
 7441W        W27721   4.356   5.316   2.592  0.1323  0.0626  0.1060
 7442W        W27722  14.589  15.037   1.378 -0.3069 -0.0838 -0.2161
 7443W        W27723  12.589   5.091   3.613  0.1399  0.0455 -0.0277
 7444W        W27724   7.509   3.565   3.952 -0.2088  0.1164 -0.0023
 7445W        W27725  10.529  16.311  16.655 -0.1871 -0.0724  0.0777
 7446W        W27726  15.886   2.364  11.266  0.1020  0.0280  0.1803
 7447W        W27727   3.400  11.200  15.012  0.1803  0.3851  0.2138
 7448W        W27728   8.870   2.044  15.715  0.1648  0.1242 -0.0852
 7449W        W27729   1.049  12.015   4.369  0.2025 -0.0062  0.1787
 7450W        W27730  13.484   1.245  13.765  0.0860 -0.3331  0.2132
 7451W        W27731  10.391  13.391   1.086  0.2433  0.1920  0.2138
 7452W        W27732   3.472  13.538   1.671 -0.0272  0.0907  0.1866
 7453W        W27733   9.983  14.984   3.019 -0.0028 -0.2839 -0.0686
 7454W        W27734   2.178   6.501  15.086 -0.2043 -0.0571  0.0608
 7455W        W27735  12.075   5.053   2.994 -0.1055 -0.2617  0.0647
 7456W        W27736  11.016  17.003  14.554 -0.1194 -0.0905  0.1096
 7457W        W27737  14.930   0.332  16.532  0.0599 -0.0580 -0.0498
 7458W        W27738   8.767   0.759  15.139 -0.0412 -0.1997 -0.0156
 7459W        W27739  13.456  16.677   4.802 -0.1720  0.2041 -0.2807
 7460W        W27740  12.640   0.844  16.239  0.1710  0.1311  0.2849
 7461W        W27741   4.938   4.827  14.228 -0.1657 -0.0079 -0.0721
 7462W        W27742   4.834   5.075   0.771  0.2313 -0.1706  0.0807
 7463W        W27743   0.473   9.724   4.635  0.0522 -0.1152 -0.0796
 7464W        W27744  17.603   7.013   1.094  0.2345 -0.0034 -0.1341
 7465W        W27745   2.352  15.333   5.156  0.0818  0.2070  0.0507
 7466W        W27746   1.410  12.214   3.096 -0.0108 -0.2798  0.0802
 7467W        W27747  17.168  10.804   0.794  0.2926 -0.0730  0.3802
 7468W        W27748  14.681  15.232  13.993  0.2633 -0.1034  0.1879
 7469W        W27749  16.343  10.472   3.660  0.2355  0.0139  0.0928
 7470W        W27750  12.449  17.227  13.918 -0.0418 -0.0838  0.1552
 7471W        W27751  15.163   7.714   2.051  0.3555 -0.2206  0.1655
 7472W        W27752   8.390  16.319  13.414  0.0885  0.0339 -0.0228
 7473W        W27753   6.354   0.445   3.189 -0.0268  0.0111 -0.0872
 7474W        W27754   3.014  10.222   0.535 -0.0424 -0.1889 -0.1717
 7475W        W27755  11.929   8.443   4.874  0.0871  0.2652 -0.1480
 7476W        W27756   1.340   2.269  11.453 -0.1238  0.0468 -0.2987
 7477W        W27757   7.327   5.583   1.360  0.1355  0.0562 -0.1530
 7478W        W27758  14.428  11.526  13.548  0.0911  0.1756  0.2097
 7479W        W27759  12.580   2.271  15.179  0.0242  0.0088 -0.1269
 7480W        W27760  12.820   7.378   1.981 -0.2097 -0.0026 -0.1142
 7481W        W27761   1.419  10.900  13.777 -0.0475  0.3056  0.0547
 7482W        W27762   7.043  13.833   0.743  0.4553 -0.2623  0.0447
 7483W        W27763  11.217  17.556  13.191  0.3521 -0.0345 -0.2351
 7484W        W27764  10.192   7.965  13.511 -0.0027 -0.2419  0.0827
 7485W        W27765  16.157   1.284   2.068 -0.1613  0.3880  0.0489
 7486W        W27766  13.704  15.504   4.255 -0.0701  0.0014 -0.1824
 7487W        W27767   5.808   3.273  13.817  0.2709 -0.1685 -0.0559
 7488W        W27768   0.025  16.118   2.761 -0.1247 -0.4410  0.0996
 7489W        W27769  10.722  10.511  13.890 -0.2180  0.1981  0.1429
 7490W        W27770  13.918   5.210   4.241  0.0319  0.1393 -0.1881
 7491W        W27771  13.557   1.318   3.694  0.0725  0.0812 -0.0928
 7492W        W27772   7.724  10.726   0.298  0.3541  0.3990  0.0550
 7493W        W27773   6.696   7.499   1.759  0.3256  0.1088  0.0875
 7494W        W27774   2.634   6.610  14.653  0.1487 -0.2625 -0.1531
 7495W        W27775   3.734   8.878  15.607  0.1448  0.3020 -0.0932
 7496W        W27776  14.797  14.458   3.146  0.0228 -0.1654  0.0214
 7497W        W27777  16.998   5.685  16.896 -0.0507  0.0232 -0.2409
 7498W        W27778   7.568  16.950   2.136 -0.0863 -0.2668  0.0416
 7499W        W27779  16.211  13.654   2.984 -0.0322  0.1100  0.0850
 7500W        W27780  12.357   2.563  13.488 -0.0270 -0.1045  0.1131
 7501W        W27781  14.522   6.687  12.766  0.2079  0.3234  0.0644
 7502W        W27782  16.317   8.195  12.198  0.1450 -0.2340  0.1024
 7503W        W27783  12.449  12.806   3.668  0.2841 -0.0892  0.3574
 7504W        W27784   4.321   7.294   2.928 -0.0352 -0.0452 -0.0396
 7505W        W27785  12.355   9.242  15.941 -0.1666  0.0551 -0.0216
 7506W        W27786   2.583  11.082   2.165  0.1070 -0.2045 -0.0456
 7507W        W27787  12.414   0.647   3.211  0.0655  0.0545 -0.2356
 7508W        W27788   8.584  14.211   0.513 -0.2314 -0.1550 -0.0526
 7509W        W27789  17.375   9.351  14.948  0.1460 -0.0541  0.1901
 7510W        W27790   2.048  16.367  16.391 -0.1154 -0.0157  0.3666
 7511W        W27791  14.189  17.385   4.561  0.1566  0.1837 -0.2399
 7512W        W27792   1.096   5.799   1.488 -0.2064  0.3564 -0.1069
 7513W        W27793  11.871   2.129   2.927 -0.0451  0.1548  0.1429
 7514W        W27794   0.367   1.780  15.512 -0.0125  0.1457  0.0719
 7515W        W27795  10.213   5.942  12.730  0.1872 -0.2893  0.1166
 7516W        W27796   4.874  15.558   2.289  0.0922  0.0535  0.0623
 7517W        W27797   5.793   5.538   3.631  0.0973 -0.3567 -0.0829
 7518W        W27798  17.467  17.116   4.339  0.2680 -0.0280  0.1614
 7519W        W27799   8.304   4.924   1.107 -0.1061  0.1563 -0.1520
 7520W        W27800  12.417   9.226   4.942  0.2106 -0.1231  0.1478
 7521W        W27801   7.178  15.816   4.309 -0.4971  0.1004  0.0451
 7522W        W27802  12.693   9.897   0.881 -0.0302 -0.2217  0.1230
 7523W        W27803   3.541   5.779   2.808 -0.0814  0.1067  0.0915
 7524W        W27804   6.948  14.114   1.130 -0.0848 -0.0694  0.1885
 7525W        W27805   4.925  13.719   0.339 -0.1842  0.1000  0.0708
 7526W        W27806   7.341  13.099  15.758  0.0185 -0.2953 -0.0439
 7527W        W27807  11.959  13.918  16.384 -0.1580 -0.0603 -0.0223
 7528W        W27808  11.022  13.194  14.714 -0.1193  0.2697 -0.1021
 7529W        W27809  14.964  16.814  12.928 -0.2479 -0.1468 -0.2401
 7530W        W27810   9.109   0.471  14.886  0.2475  0.2007 -0.0553
 7531W        W27811  10.227   9.406  13.301  0.1521 -0.1731  0.0698
 7532W        W27812  10.861  15.012   4.844 -0.2952  0.2540 -0.1046
 7533W        W27813   4.970   7.280   3.173 -0.1327  0.2095  0.1238
 7534W        W27814  17.105   8.000  16.689  0.0972  0.0983 -0.2140
 7535W        W27815   8.654   9.275  12.702 -0.1813 -0.1241  0.0073
 7536W        W27816   2.970  14.068  12.470  0.3306  0.0906  0.1206
 7537W        W27817  12.152   8.295  14.209  0.0424  0.0786 -0.1768
 7538W        W27818  16.306  16.853   2.522  0.2440 -0.0689  0.0270
 7539W        W27819   7.128  16.984  14.097 -0.2696  0.0649  0.2075
 7540W        W27820  13.198   0.559  13.401  0.1493  0.0335 -0.0719
 7541W        W27821  17.673  16.773  15.835 -0.2220  0.3781  0.1456
 7542W        W27822   4.211   5.996   2.420 -0.0703 -0.0083 -0.2146
 7543W        W27823   5.924  15.483  16.690 -0.0970 -0.2425 -0.0094
 7544W        W27824   7.514  13.046  15.296  0.1983 -0.1680  0.0020
 7545W        W27825   6.763   4.391  13.633 -0.4063 -0.0974  0.1637
 7546W        W27826  11.557   4.256  12.556 -0.0566 -0.1164  0.0915
 7547W        W27827   9.194   6.347   0.383  0.2795  0.0199  0.1140
 7548W        W27828   2.661   3.038   1.900  0.0408 -0.3529 -0.3688
 7549W        W27829  14.927   7.963   0.104 -0.3196 -0.0401  0.0971
 7550W        W27830  15.753   5.965   0.555 -0.0246  0.0659 -0.3198
 7551W        W27831   0.463  11.175  15.581 -0.1265 -0.1013 -0.0556
 7552W        W27832  16.607  11.523  13.305 -0.1419  0.1048  0.0498
 7553W        W27833  14.298  16.135   4.566  0.0222 -0.0305 -0.1627
 7554W        W27834  14.024  11.291   0.231 -0.2312 -0.0823 -0.0414
 7555W        W27835  16.411   5.204  15.572  0.2251 -0.3143  0.2633
 7556W        W27836  17.239   8.541  16.673 -0.1380  0.1301  0.1953
 7557W        W27837  10.378  16.853  13.957 -0.1193 -0.3780  0.0234
 7558W        W27838   4.312   2.821   0.046  0.3715 -0.1334 -0.1470
 7559W        W27839  15.896  14.042   0.966 -0.3385 -0.1624  0.0462
 7560W        W27840  15.599  12.691   3.204  0.2874 -0.3803 -0.3370
 7561W        W27841   7.502  13.298   1.540  0.0030  0.0195  0.3013
 7562W        W27842  15.310   5.648   1.416 -0.0383 -0.2022  0.1950
 7563W        W27843  12.622  17.035   0.182 -0.0948  0.1622 -0.0972
 7564W        W27844  17.207   6.516  12.884 -0.0960  0.0547 -0.0404
 7565W        W27845   5.444  16.276   1.966  0.1159 -0.2112  0.3944
 7566W        W27846   2.463  11.431   4.201 -0.1131 -0.1121 -0.0501
 7567W        W27847   5.927  16.489  15.296 -0.1354  0.0405 -0.1391
 7568W        W27848  11.998   1.698  15.947 -0.2328  0.1685  0.1419
 7569W        W27849  16.486   7.974  14.104  0.2482 -0.0988 -0.0358
 7570W        W27850   1.969   8.021  16.122  0.1986  0.0530 -0.0224
 7571W        W27851  14.243   4.381  14.380 -0.3182  0.1230  0.2358
 7572W        W27852  13.527  14.225  14.879  0.0690  0.1816  0.2059
 7573W        W27853   2.451  10.078  15.313  0.1666 -0.2131  0.0198
 7574W        W27854   3.739  14.222   1.478  0.1968  0.1527  0.0325
 7575W        W27855  11.371  10.196  12.294  0.1057 -0.1130 -0.2156
 7576W        W27856   1.700  16.442   1.453 -0.0338  0.0213  0.0420
 7577W        W27857  16.336   5.453   1.085  0.0676  0.2040 -0.0859
 7578W        W27858   6.198   7.321   1.657  0.0449 -0.3314  0.0020
 7579W        W27859  17.295   5.479   0.435 -0.0683 -0.2608  0.1105
 7580W        W27860   5.601  14.474  12.747 -0.2386  0.0223 -0.1091
 7581W        W27861   9.146   3.170   3.825  0.2927  0.1630  0.0463
 7582W        W27862   8.637  16.952   0.580  0.1875 -0.1454  0.4392
 7583W        W27863   5.374  15.913   3.325 -0.0083 -0.0874 -0.4417
 7584W        W27864  11.445   3.761  16.787 -0.2065 -0.0240  0.0179
 7585W        W27865  10.165  11.416   2.537 -0.2275 -0.2502  0.2917
 7586W        W27866  15.277   6.094  15.308 -0.3619  0.1994  0.0237
 7587W        W27867  13.436   6.238   2.345  0.0158  0.5121 -0.0108
 7588W        W27868  13.993  16.493  14.396 -0.3575 -0.0535  0.2097
 7589W        W27869   7.991  16.834  16.417  0.0074  0.1726  0.3141
 7590W        W27870  10.245  16.025  12.706  0.1102 -0.0059 -0.3434
 7591W        W27871  17.267  17.635   3.382 -0.3440 -0.0795 -0.3515
 7592W        W27872   0.184   9.066  13.574 -0.1618 -0.1504 -0.0218
 7593W        W27873  11.529   8.335   3.847 -0.0844  0.0014  0.2915
 7594W        W27874  11.233   3.680   1.200  0.1793 -0.0772  0.0091
 7595W        W27875  15.828  15.757   3.664 -0.0351 -0.3947 -0.3045
 7596W        W27876   9.934  14.984   1.358  0.2202  0.1699  0.1587
 7597W        W27877   6.670   9.054   3.392  0.1228  0.0850  0.1501
 7598W        W27878  15.972   1.323   2.553 -0.0018  0.2951  0.0455
 7599W        W27879   1.446   2.855  13.522  0.1907 -0.0510  0.1655
 7600W        W27880  14.330   8.893   4.825  0.0293 -0.2435 -0.0120
 7601W        W27881   6.163  16.913   1.645 -0.0557  0.0715 -0.1895
 7602W        W27882   4.191  10.122   1.329  0.1442  0.4342  0.0129
 7603W        W27883   1.283  14.361   1.976  0.3515  0.2462  0.1015
 7604W        W27884   4.672  16.476  13.545 -0.1382 -0.1622  0.4097
 7605W        W27885  13.156   4.962  15.773 -0.1999 -0.1463 -0.3102
 7606W        W27886   2.378   2.124   1.897  0.2009 -0.4522  0.0775
 7607W        W27887  17.441   6.927  12.842  0.1583 -0.1180  0.3358
 7608W        W27888   1.994   6.933   0.623  0.0057  0.3152 -0.1775
 7609W        W27889  11.215   8.883   0.175 -0.0927 -0.0173  0.1200
 7610W        W27890   3.649   7.236  14.116 -0.1510  0.2383  0.0018
 7611W        W27891   2.635   8.508   3.333 -0.0476 -0.0971 -0.2678
 7612W        W27892  11.340   1.427  14.006 -0.1231  0.2503  0.3218
 7613W        W27893   2.902   0.193  14.574 -0.1511  0.4490 -0.0929
 7614W        W27894   4.013  16.702  14.204 -0.0056 -0.0298  0.1321
 7615W        W27895   8.149   1.407   3.801  0.1943  0.3421  0.2019
 7616W        W27896  14.979   9.146  14.013 -0.2683  0.0689  0.2028
 7617W        W27897  10.720   0.710  15.698  0.0994  0.0399 -0.5191
 7618W        W27898   8.955   1.508  16.624 -0.0083 -0.3039 -0.3159
 7619W        W27899  10.065   4.189   2.644  0.1462 -0.0261 -0.0162
 7620W        W27900   6.886   8.122  15.882 -0.0623 -0.0017 -0.1866
 7621W        W27901   1.183   6.896   4.902  0.0545  0.0733 -0.2676
 7622W        W27902   3.180  17.372  16.042 -0.3941 -0.1156  0.2963
 7623W        W27903   1.033   9.609  15.875  0.1824 -0.1330 -0.1185
 7624W        W27904   3.614   2.525  13.613  0.0524 -0.0983 -0.1117
 7625W        W27905   3.445   9.151   4.087  0.0305 -0.0785  0.0663
 7626W        W27906  14.984   4.038   3.338  0.0776  0.0913 -0.2179
 7627W        W27907   2.721   5.983   0.124 -0.2503 -0.2260  0.2855
 7628W        W27908  16.686   1.495   2.939  0.0079  0.3040  0.1407
 7629W        W27909  12.960  14.498   2.068 -0.1710  0.0839 -0.0859
 7630W        W27910   4.507  14.704   4.050  0.0406  0.0845 -0.2817
 7631W        W27911   7.707  15.579   1.160  0.0418  0.1857 -0.1739
 7632W        W27912   7.752   6.608  15.058  0.0597 -0.1562 -0.2053
 7633W        W27913   7.808   4.580   2.827  0.0772  0.2213  0.0369
 7634W        W27914  16.286  10.426  16.891 -0.1987 -0.0164 -0.2940
 7635W        W27915  10.226  15.279  10.733  0.1458  0.2637 -0.1268
 7636W        W27916   8.754   9.965  15.112 -0.1100 -0.2327 -0.1363
 7637W        W27917   7.298   7.903   1.203 -0.5734  0.0427  0.0615
 7638W        W27918   8.070   0.977   3.437  0.0307  0.1411  0.1949
 7639W        W27919   1.408   6.877  15.582  0.2626  0.1580  0.0864
 7640W        W27920   6.396  17.728   0.602 -0.1606 -0.2728 -0.0984
 7641W        W27921  12.269  15.605  15.342 -0.1855  0.0243  0.1921
 7642W        W27922  16.903  13.866  16.349 -0.0036 -0.2863  0.0101
 7643W        W27923  15.474   5.735  14.996 -0.0307  0.0197  0.0917
 7644W        W27924   5.778   8.146   4.018 -0.1329 -0.1536 -0.1421
 7645W        W27925  16.127   4.356  13.952 -0.0966 -0.0768 -0.0622
 7646W        W27926  16.648   3.113   0.771 -0.0408  0.1839 -0.1172
 7647W        W27927  14.856   2.984  14.021  0.2621 -0.0616  0.0662
 7648W        W27928   0.954   4.650  13.271  0.0058 -0.1039  0.0179
 7649W        W27929   0.968   6.027  16.429  0.3068  0.1981  0.2300
 7650W        W27930   1.045   4.844   3.859 -0.3391  0.2054  0.0887
 7651W        W27931  14.213   3.538   4.740  0.0879 -0.1328  0.0524
 7652W        W27932  10.001   2.439  15.112 -0.0945  0.3185  0.0213
 7653W        W27933   7.934   4.858  14.270  0.2104 -0.1683  0.0754
 7654W        W27934   1.609   0.874   5.035 -0.4436  0.0480  0.1593
 7655W        W27935  14.691   7.830   1.174 -0.1708  0.0688  0.2535
 7656W        W27936   1.426  13.661   0.266  0.1646  0.2242  0.1143
 7657W        W27937  10.631   8.233  13.227 -0.0883 -0.1883 -0.1866
 7658W        W27938   6.321  11.300   4.044 -0.0444  0.1659 -0.3482
 7659W        W27939  13.856   2.142   2.283  0.1353  0.0844  0.1070
 7660W        W27940   2.095  10.263   2.969  0.1343  0.0789  0.0756
 7661W        W27941  17.655   9.038   4.083 -0.2334 -0.1008  0.2425
 7662W        W27942   0.588  12.948  15.461  0.3884 -0.1501  0.0721
 7663W        W27943  14.008   8.461  15.720  0.2375 -0.1773 -0.1838
 7664W        W27944   1.413   8.880   1.574  0.0596  0.2284  0.0036
 7665W        W27945  11.895  14.314  16.762 -0.5797  0.0073  0.1197
 7666W        W27946  17.503  13.112   3.975 -0.1584  0.3582 -0.2583
 7667W        W27947   7.633   6.327  16.512 -0.2684  0.0597 -0.3021
 7668W        W27948   2.786   4.447   1.073  0.1409  0.4636 -0.0041
 7669W        W27949  15.877  15.591  12.877 -0.0701  0.1552  0.0865
 7670W        W27950   7.208  14.510   2.799 -0.1012 -0.2388 -0.0671
 7671W        W27951   7.421   2.724  12.596 -0.0726  0.1950  0.0079
 7672W        W27952   7.154   9.967   2.052 -0.1927 -0.0956  0.0863
 7673W        W27953   5.387   4.748   2.381  0.1348  0.0252  0.1155
 7674W        W27954   7.725  16.485  16.045 -0.0917 -0.0133 -0.1763
 7675W        W27955  16.393  13.367  12.814 -0.0049  0.0856 -0.1150
 7676W        W27956  16.543   2.809   4.709  0.0919  0.1863  0.1346
 7677W        W27957  13.986   7.069  14.016 -0.1067  0.0533  0.3300
 7678W        W27958   4.762  16.535  16.384 -0.0343 -0.0231 -0.0028
 7679W        W27959  10.515   7.528  14.361 -0.1280  0.0917  0.2301
 7680W        W27960   4.710  14.352  16.898 -0.0484 -0.0561  0.0687
 7681W        W27961  16.185   3.786   0.032  0.3403 -0.0916 -0.0589
 7682W        W27962   3.139  15.546   3.127  0.0003 -0.0655 -0.0275
 7683W        W27963  12.784  10.433  12.282 -0.2309  0.2710 -0.1882
 7684W        W27964  10.757   1.962  15.670 -0.1457 -0.0920 -0.1700
 7685W        W27965   5.116  16.783   3.042 -0.1770  0.1163 -0.0341
 7686W        W27966   4.125   7.161   3.708 -0.0994 -0.1634 -0.1320
 7687W        W27967   8.389   3.759  13.328  0.1490 -0.2112  0.0170
 7688W        W27968  15.125  11.531  13.353  0.0193  0.0705  0.2176
 7689W        W27969   2.304   5.483   0.470  0.3163 -0.1369  0.1486
 7690W        W27970   0.449  12.972  12.691 -0.1259  0.1110  0.0030
 7691W        W27971   2.691   4.130  16.633 -0.2957  0.0856 -0.1487
 7692W        W27972  12.022   2.708   1.526  0.3905  0.2619  0.0384
 7693W        W27973  14.131  10.062   0.976  0.4160 -0.0707  0.1950
 7694W        W27974  13.682   9.320   0.552 -0.2207  0.1677  0.0108
 7695W        W27975  10.901   4.343  11.840 -0.2392  0.0920 -0.1809
 7696W        W27976   9.090  17.248  15.297  0.0460  0.0616  0.0079
 7697W        W27977  12.920   2.308  14.235 -0.4617 -0.3435  0.1168
 7698W        W27978  14.725   6.929   3.721  0.1154  0.1931  0.2622
 7699W        W27979  14.644   8.544   2.858 -0.1165 -0.1218  0.0392
 7700W        W27980   2.589  11.111  14.382 -0.2129 -0.3337 -0.0951
 7701W        W27981   5.181   5.886  16.962  0.1035  0.1841 -0.0617
 7702W        W27982  13.557   0.887  16.180  0.4915  0.0007 -0.0335
 7703W        W27983  12.898   9.168  14.987  0.1104  0.1241 -0.0040
 7704W        W27984   9.135  14.059   1.534 -0.0263  0.0065  0.1856
 7705W        W27985  11.507  13.534   3.688  0.0019  0.2437 -0.2474
 7706W        W27986   3.902  11.240  12.069  0.0115  0.1286 -0.1270
 7707W        W27987   7.905   0.253   1.381 -0.1707 -0.3711 -0.0887
 7708W        W27988   1.550   9.333  15.564  0.0565 -0.0871  0.2279
 7709W        W27989   0.137   6.740  15.748  0.0582 -0.1250 -0.2335
 7710W        W27990   2.720   3.087  12.373 -0.0707  0.0340 -0.0730
 7711W        W27991  12.555  17.158   3.862  0.1692  0.0604 -0.2594
 7712W        W27992   7.107  11.991   4.846  0.0024  0.1010 -0.2648
 7713W        W27993   6.476   0.327   3.727  0.1723  0.1387 -0.0178
 7714W        W27994   8.625  15.997  13.735 -0.0916  0.0878 -0.1146
 7715W        W27995  13.755   8.069   2.703  0.2602  0.2556  0.3810
 7716W        W27996   5.245  15.433   1.985 -0.4245  0.1025  0.1834
 7717W        W27997   0.266   9.146   1.817  0.2827 -0.1186 -0.1316
 7718W        W27998  12.398   3.831  13.396  0.0185  0.0750  0.0019
 7719W        W27999   5.204  11.157  14.637  0.1158 -0.1515  0.1078
 7720W        W28000   5.370   7.207  16.120 -0.1839  0.0051 -0.0661
 7721W        W28001  11.051  11.857  15.634 -0.1892  0.2144 -0.2605
 7722W        W28002  15.640  12.044  12.855 -0.1191  0.2061  0.1153
 7723W        W28003   1.207   1.924  13.124  0.0635 -0.1929  0.3228
 7724W        W28004  14.191   1.839   0.568  0.2199  0.1695 -0.1589
 7725W        W28005   3.177  11.200   0.219  0.1487 -0.0677  0.2346
 7726W        W28006   8.253   8.352  13.060 -0.1059 -0.2720 -0.1233
 7727W        W28007   5.268   7.939   4.193  0.1180  0.0875 -0.0355
 7728W        W28008  14.343   5.974  12.271  0.2008 -0.0298 -0.1184
 7729W        W28009  15.328  16.484  12.329 -0.1447  0.0387 -0.2619
 7730W        W28010   5.189  12.401  13.824  0.1975 -0.1257 -0.2087
 7731W        W28011  10.510   6.988   4.755 -0.0409  0.2121 -0.0014
 7732W        W28012   7.766  17.482   1.062 -0.0418 -0.0194 -0.1641
 7733W        W28013  15.896   8.353  13.368  0.0327 -0.0458  0.2285
 7734W        W28014   7.318  17.390   0.798 -0.4465  0.1982  0.0096
 7735W        W28015  14.496   9.111  15.332  0.0760  0.0119  0.0225
 7736W        W28016   5.550  14.725   2.500 -0.0725 -0.2046 -0.2215
 7737W        W28017   3.004  14.582  16.820 -0.0250  0.0367 -0.1287
 7738W        W28018   2.833   3.184   2.821 -0.2475 -0.1732 -0.1050
 7739W        W28019   1.901   6.038   0.674 -0.3275 -0.1692 -0.2031
 7740W        W28020   5.538  14.776   5.041 -0.0002  0.0243  0.2293
 7741W        W28021  16.940  13.069  14.336 -0.0535  0.0621 -0.0107
 7742W        W28022   6.121  13.452   4.671 -0.1939 -0.1167 -0.0428
 7743W        W28023   1.869   8.842   4.174  0.1637  0.3523 -0.1906
 7744W        W28024   6.600   9.145   0.133  0.0135 -0.0132  0.1519
 7745W        W28025   2.977  11.193  13.318  0.0050  0.1357 -0.2921
 7746W        W28026  12.208  12.928   2.460 -0.0243 -0.2029 -0.4858
 7747W        W28027   5.812  12.968   0.956 -0.2381  0.1694  0.1258
 7748W        W28028   5.516   1.264  16.999  0.2071  0.1776 -0.2224
 7749W        W28029   1.546   1.480  12.580 -0.0370 -0.1412  0.1033
 7750W        W28030   6.777  15.524  14.248  0.1346  0.0998 -0.1235
 7751W        W28031   9.731  17.439   4.721  0.2424  0.2547 -0.1452
 7752W        W28032  10.152  15.353  13.940  0.0823 -0.0505 -0.2864
 7753W        W28033  16.434   3.974  14.059 -0.0364  0.1476  0.1839
 7754W        W28034   1.682   6.282   1.574  0.1083  0.1023  0.0169
 7755W        W28035   9.771   3.456  16.232  0.2737 -0.0302 -0.0657
 7756W        W28036   8.918  13.296  16.060 -0.0259  0.2286 -0.0544
 7757W        W28037  16.504  17.418   4.052 -0.0216  0.2476 -0.0752
 7758W        W28038  10.273   7.044  15.333  0.0618  0.2308  0.1733
 7759W        W28039  14.436  15.213   4.527 -0.0911 -0.0713  0.4213
 7760W        W28040  15.926  15.541   1.933 -0.2960  0.2418  0.4239
 7761W        W28041  16.770   8.525   1.535 -0.1563  0.3070 -0.1589
 7762W        W28042  17.204   2.417  16.518 -0.0119  0.0270 -0.4766
 7763W        W28043   5.886   0.719  15.120  0.1835  0.0739  0.1578
 7764W        W28044   0.596   5.593   3.181 -0.0531 -0.3599 -0.0080
 7765W        W28045  15.423  10.492  16.375 -0.3605  0.2676 -0.3309
 7766W        W28046  15.485   8.547   3.913  0.0050  0.1524  0.3550
 7767W        W28047   8.180  17.193   3.501 -0.2496  0.0630 -0.0616
 7768W        W28048  12.837   2.705  16.506 -0.0839 -0.2603 -0.1236
 7769W        W28049   6.549  16.223  15.279 -0.4034  0.0260 -0.1367
 7770W        W28050  10.774   1.402  12.726 -0.1241  0.0211  0.3863
 7771W        W28051  17.636  14.676   1.645 -0.2679 -0.0541 -0.3631
 7772W        W28052  14.644   4.686   4.083 -0.2999  0.0734  0.1166
 7773W        W28053   7.025  12.465   1.342  0.0238  0.1889 -0.1368
 7774W        W28054   9.654  14.906  13.140  0.1098  0.0573 -0.2902
 7775W        W28055   7.706   2.306  13.981 -0.2845  0.1396  0.0515
 7776W        W28056  10.417   9.620  12.902 -0.0780 -0.1380  0.2783
 7777W        W28057  10.902   3.755  14.039 -0.0177 -0.2997  0.1615
 7778W        W28058  11.490  15.442   3.014 -0.2722  0.1239 -0.0156
 7779W        W28059   3.161   2.814   0.299  0.1910 -0.1560  0.0666
 7780W        W28060   2.828   9.954  12.627  0.3026 -0.0600  0.0788
 7781W        W28061  17.202   5.630  16.447  0.0393  0.0905  0.0020
 7782W        W28062  13.868   3.438   0.449  0.0908 -0.0122  0.1682
 7783W        W28063   8.936  16.448  14.051 -0.0924 -0.0143 -0.0661
 7784W        W28064  14.919  11.905  11.965  0.1908  0.2454 -0.3466
 7785W        W28065   5.809   3.620   3.452  0.0600  0.1061  0.1283
 7786W        W28066  13.600   1.493  12.773  0.1644  0.1941  0.2578
 7787W        W28067  16.179   6.176  15.560  0.0485  0.0247 -0.2762
 7788W        W28068   1.898   3.927  16.191 -0.4010  0.1513 -0.1081
 7789W        W28069   3.098  17.130   3.407  0.0072  0.0699  0.0609
 7790W        W28070   3.019  14.750   4.247 -0.3075 -0.0429 -0.1232
 7791W        W28071  15.716   1.698  15.781  0.2265  0.0538  0.0075
 7792W        W28072  16.913   3.366  13.070 -0.1974  0.0999  0.3009
 7793W        W28073   4.481  10.708   2.785 -0.3925  0.0276 -0.0834
 7794W        W28074   8.801  12.419   1.898 -0.1858 -0.0943 -0.1064
 7795W        W28075   9.107   8.826  12.584  0.4795  0.1104  0.0150
 7796W        W28076   8.180  11.631   0.588 -0.1228  0.0390 -0.2159
 7797W        W28077   3.393  13.598   3.956  0.1493  0.2854  0.0481
 7798W        W28078   6.956  12.044  14.272  0.1313 -0.0328  0.3395
 7799W        W28079   0.419  11.769   4.188 -0.1101  0.0159 -0.1005
 7800W        W28080   8.308   1.724   0.745 -0.1343 -0.0529 -0.0539
 7801W        W28081   8.623  15.881   3.568  0.0149  0.1212 -0.0423
 7802W        W28082  11.631   2.592  13.583  0.2105  0.0058  0.2000
 7803W        W28083   5.078   5.527   1.637  0.1047 -0.2936 -0.0546
 7804W        W28084  13.970   7.901  13.923 -0.1319  0.0007 -0.2138
 7805W        W28085   3.139  14.691   4.821  0.2545  0.2497  0.0218
 7806W        W28086   8.718  16.723  14.978  0.0300 -0.2707 -0.1773
 7807W        W28087   4.311  11.508  14.094  0.1942  0.2432 -0.1226
 7808W        W28088   3.403   2.294  14.019 -0.0699  0.1014  0.0526
 7809W        W28089  16.073  13.357  13.246 -0.0855 -0.2429 -0.2386
 7810W        W28090   7.370   2.488  16.148  0.0818 -0.2598 -0.1078
 7811W        W28091   9.628   6.661   3.158  0.1243  0.1285  0.0939
 7812W        W28092  16.890  11.831   0.275  0.0800 -0.0761  0.1166
 7813W        W28093   4.239   3.081  11.471  0.2758 -0.2899  0.1833
 7814W        W28094   0.796   7.713  16.708  0.4337 -0.1825  0.2407
 7815W        W28095   7.099   4.565  12.007  0.2072  0.3727  0.0532
 7816W        W28096   7.117   5.881  16.095 -0.1090  0.3242 -0.0609
 7817W        W28097  15.166   2.691   2.228 -0.0631 -0.4008 -0.0826
 7818W        W28098  10.208  10.199   1.854  0.0565  0.1080 -0.0795
 7819W        W28099   8.173  11.695   1.095 -0.0720 -0.2064  0.0220
 7820W        W28100  10.877   9.119   1.517 -0.2969  0.3454 -0.0290
 7821W        W28101   7.431   7.853   1.984  0.2180  0.1073 -0.0606
 7822W        W28102  10.829  13.455  12.851 -0.1824 -0.0027 -0.0835
 7823W        W28103   7.834   1.599   1.015  0.2976  0.0434  0.0988
 7824W        W28104  17.206   7.988  12.966  0.1348  0.0626  0.0950
 7825W        W28105   3.870   0.310  16.256  0.2073  0.3336 -0.1210
 7826W        W28106   8.364   4.974  13.117  0.3620  0.2420  0.0860
 7827W        W28107  14.966  10.230  13.186 -0.2644  0.2462  0.1389
 7828W        W28108   3.331   1.863   4.568  0.3104 -0.0631  0.0689
 7829W        W28109   3.591   5.406   0.745 -0.2352  0.0915 -0.1691
 7830W        W28110   4.033  11.737  11.988 -0.1842 -0.0996  0.1291
 7831W        W28111  12.441  11.154   1.265  0.0675 -0.0396 -0.1174
 7832W        W28112   8.706   1.369   0.927  0.1449 -0.0260 -0.1434
 7833W        W28113   2.025   3.948   4.805 -0.0251  0.1289 -0.0883
 7834W        W28114   3.035  13.636  15.379 -0.2336  0.2418  0.1419
 7835W        W28115   5.735   5.127  15.262  0.1065 -0.0284 -0.0884
 7836W        W28116  14.598  16.024  12.642 -0.0539 -0.2928 -0.3566
 7837W        W28117  16.868  17.356   0.834  0.0777 -0.0146 -0.0597
 7838W        W28118   0.507  15.918   2.912 -0.2311  0.1542 -0.2119
 7839W        W28119  10.148   9.053  12.250  0.1137  0.1130  0.1736
 7840W        W28120   7.202  10.389  15.448 -0.0842 -0.2002  0.0800
 7841W        W28121  13.892  17.478   5.500 -0.0686  0.0904  0.1204
 7842W        W28122   8.755   3.904  15.529  0.0643 -0.0336  0.0440
 7843W        W28123  15.765  13.509  15.771 -0.0559  0.0926 -0.1143
 7844W        W28124  11.803   7.849   0.820 -0.1242 -0.1378  0.0561
 7845W        W28125   4.563   7.669  14.981 -0.1597 -0.3546  0.0178
 7846W        W28126   3.240  17.440   3.869  0.1481  0.1431  0.0731
 7847W        W28127  14.520   2.653  14.467 -0.2214  0.0094  0.0304
 7848W        W28128   8.561   6.070  16.741  0.2677  0.0987 -0.2797
 7849W        W28129  12.336  12.140  14.798  0.1665 -0.0670 -0.2302
 7850W        W28130   9.990  12.144   0.696 -0.1720  0.2039  0.1146
 7851W        W28131   5.644   6.124   0.019  0.0606 -0.2923 -0.0219
 7852W        W28132  14.570   1.418   5.063 -0.1124 -0.1191 -0.0950
 7853W        W28133   6.550  14.692  14.971 -0.0767  0.1208  0.0289
 7854W        W28134  11.675   6.937  12.183 -0.2045  0.2921  0.0032
 7855W        W28135   6.087   4.391   1.296  0.0280 -0.2373  0.0267
 7856W        W28136   7.835   0.687  16.318  0.4366 -0.0585  0.0361
 7857W        W28137   7.623   3.684   3.479 -0.0006  0.0833  0.2599
 7858W        W28138  14.672  14.401  15.141  0.0923  0.0940  0.2084
 7859W        W28139   8.910   0.589  13.506 -0.2304  0.0188 -0.2099
 7860W        W28140   4.432   6.711  15.488  0.0597  0.1899  0.1414
 7861W        W28141  13.006  14.474   3.607 -0.1231  0.0433  0.1184
 7862W        W28142  15.202  14.132  12.253  0.4789 -0.0607 -0.1967
 7863W        W28143  11.704  15.296   4.948 -0.2254  0.0005  0.0134
 7864W        W28144   4.330  13.333   1.450  0.0307  0.3108 -0.0185
 7865W        W28145   7.527  15.216  12.578  0.0506 -0.0305  0.0092
 7866W        W28146  12.459   5.821   2.643 -0.0740  0.0425  0.2025
 7867W        W28147   0.295   1.055  12.236  0.0104  0.0977  0.1704
 7868W        W28148   3.421   8.059   2.894 -0.2255  0.0191 -0.1466
 7869W        W28149   3.062   8.432  13.601 -0.1348 -0.1400  0.3329
 7870W        W28150   2.912   9.085  14.335  0.0855  0.2452 -0.0779
 7871W        W28151   9.181   1.887  14.866 -0.1214 -0.1563 -0.0906
 7872W        W28152   6.209  10.202   2.154 -0.4127  0.1309  0.2508
 7873W        W28153   5.970  12.678   3.610  0.4567  0.1265 -0.1169
 7874W        W28154  16.029   2.927   4.486  0.2496 -0.4151  0.2637
 7875W        W28155  16.869   7.652  12.833  0.0047 -0.0997 -0.2836
 7876W        W28156   5.126   3.465  15.998  0.2427  0.2821  0.2664
 7877W        W28157   2.708  15.621   0.687  0.0345 -0.1039  0.2195
 7878W        W28158  12.568   0.299   1.804 -0.1445  0.1365  0.0085
 7879W        W28159  14.313  13.958   3.987 -0.0735 -0.0556 -0.0318
 7880W        W28160   4.842   1.082  12.222  0.2844 -0.0433 -0.1900
 7881W        W28161  16.621  11.969   3.794 -0.0961  0.2094  0.1026
 7882W        W28162   2.118  14.542   0.957 -0.1087  0.0620  0.1686
 7883W        W28163  16.444  13.249   4.925  0.2142  0.0737 -0.1741
 7884W        W28164   6.016  11.234   1.067 -0.3543  0.1148 -0.1095
 7885W        W28165  13.216   7.718   0.633 -0.0602  0.3126 -0.1460
 7886W        W28166  12.979  12.027   4.220  0.0067 -0.3911 -0.0036
 7887W        W28167  13.347  17.728  14.264 -0.0751 -0.3292  0.0019
 7888W        W28168   7.305   1.243   4.910 -0.1428  0.0237  0.3463
 7889W        W28169  15.820   6.028   2.205 -0.0312 -0.0383  0.0117
 7890W        W28170  15.137  16.061  13.502  0.0699  0.0234 -0.0698
 7891W        W28171   6.134   6.472   2.470  0.1064 -0.0722 -0.1966
 7892W        W28172  15.159   8.860   4.156 -0.2163  0.1095 -0.0216
 7893W        W28173  16.060   0.432   1.534 -0.0836 -0.2646 -0.1343
 7894W        W28174   1.457   9.586   5.043  0.0457 -0.1458  0.2908
 7895W        W28175  14.369   5.746   4.891 -0.1166 -0.2661  0.0074
 7896W        W28176  10.314  15.634  12.400  0.4246  0.1179  0.0742
 7897W        W28177   9.603   4.860  15.036 -0.0198 -0.1641  0.0268
 7898W        W28178  12.019   4.437   4.359 -0.2155  0.1734 -0.1382
 7899W        W28179  16.003   6.907  12.530 -0.3019  0.0212  0.0761
 7900W        W28180   9.763   3.198   0.130 -0.0225  0.3195 -0.5172
 7901W        W28181  15.520   9.056  13.652 -0.2443  0.1139  0.0199
 7902W        W28182   2.307  16.401   4.113 -0.1314  0.2244 -0.1158
 7903W        W28183   3.003   7.804  16.204 -0.0607  0.4004  0.2583
 7904W        W28184   6.012  11.806  16.968  0.1304  0.0957  0.1578
 7905W        W28185  12.171  16.564  16.381 -0.0231 -0.3636  0.0447
 7906W        W28186  16.004  11.000  12.766  0.0318  0.0342  0.3658
 7907W        W28187   7.237   0.023  13.360 -0.2233 -0.0194  0.5834
 7908W        W28188  14.752   7.579  14.502 -0.2453  0.5497  0.2743
 7909W        W28189   1.342   1.078   0.942 -0.0820 -0.1159 -0.1187
 7910W        W28190   0.731   5.132  16.047 -0.2580 -0.0223  0.1313
 7911W        W28191  13.866   9.431  12.611 -0.3010  0.2916 -0.0696
 7912W        W28192   2.974  12.754   0.975 -0.1370  0.0393  0.0471
 7913W        W28193   4.649   7.421   1.643 -0.0138 -0.0352 -0.0360
 7914W        W28194   3.370   2.157   2.734 -0.2009  0.0267 -0.1104
 7915W        W28195  17.682   8.331   1.785  0.1391 -0.1650 -0.1419
 7916W        W28196  14.055   1.210   4.414  0.1049  0.2525 -0.4896
 7917W        W28197  10.351  11.058  12.599 -0.4956  0.0059  0.5703
 7918W        W28198   5.532   4.258  12.672 -0.1775 -0.1445  0.2084
 7919W        W28199  16.070  17.040  16.301 -0.1013  0.0386 -0.2472
 7920W        W28200  11.014   6.252   2.000 -0.1609  0.0168 -0.3349
 7921W        W28201   9.471   8.035   3.603 -0.0147 -0.2107  0.1989
 7922W        W28202  11.676   8.452  16.409 -0.0831  0.1931  0.1858
 7923W        W28203  15.940   7.816   3.512  0.1564  0.0780 -0.0263
 7924W        W28204   0.168  15.480   2.084  0.0011  0.0370  0.0881
 7925W        W28205  12.771  15.521  13.156 -0.0235  0.3509  0.1544
 7926W        W28206   9.163  13.192  13.413 -0.0322  0.0065  0.0887
 7927W        W28207   2.099   7.353  16.788 -0.0791 -0.0613 -0.0976
 7928W        W28208   1.791   8.093  13.455  0.0034  0.3081 -0.3711
 7929W        W28209   1.583   6.018   5.109  0.3523  0.1340  0.0150
 7930W        W28210  10.456  16.216  14.291  0.0993 -0.1824 -0.1325
 7931W        W28211   2.457  10.717   4.643  0.0917  0.0017 -0.0119
 7932W        W28212  10.863  12.915  15.684  0.0240  0.3137 -0.0776
 7933W        W28213   2.495   5.784  15.639 -0.1609 -0.0114  0.0553
 7934W        W28214  17.405  16.965   1.618  0.0014 -0.0504 -0.2334
 7935W        W28215  11.584   8.174  15.624  0.0135  0.1816 -0.0512
 7936W        W28216  11.207  10.073   2.320  0.1574 -0.1057  0.0188
 7937W        W28217   1.905  17.416   3.210  0.1967 -0.1967  0.0606
 7938W        W28218  11.270   5.072  12.029  0.5035 -0.1644 -0.2566
 7939W        W28219  12.670   6.053  15.376  0.1042  0.2165  0.3729
 7940W        W28220   6.227  14.644  15.405  0.1982  0.1884  0.0876
 7941W        W28221   1.237  11.295  14.065 -0.1662  0.1345 -0.1840
 7942W        W28222   3.960  17.591   3.132  0.0957 -0.0098 -0.0563
 7943W        W28223   4.299   2.575   2.718 -0.0100  0.0308  0.0908
 7944W        W28224  14.120   1.221   3.440 -0.0279  0.0996 -0.1537
 7945W        W28225  10.817   2.437   4.354  0.2351 -0.2330 -0.1512
 7946W        W28226  16.347  14.258   2.351  0.0060  0.0517  0.0616
 7947W        W28227  16.083   0.114   1.141  0.4244  0.2639 -0.2976
 7948W        W28228  13.819  10.513   1.753  0.1199  0.0508  0.1473
 7949W        W28229   1.017  17.216   4.955  0.0609  0.0916 -0.3988
 7950W        W28230   5.868  15.558   0.586 -0.0478  0.0824 -0.0980
 7951W        W28231  14.633   4.409  13.923  0.4211  0.1042 -0.0105
 7952W        W28232  13.444   2.158   3.376 -0.0171 -0.1843  0.0244
 7953W        W28233  15.043  16.709   2.263 -0.0955 -0.1946 -0.0059
 7954W        W28234  17.539  11.667   2.530  0.2352  0.0340  0.0104
 7955W        W28235  14.489  12.794  15.572  0.0181 -0.1879  0.1436
 7956W        W28236  12.413   6.266   3.145 -0.0931  0.0224 -0.1086
 7957W        W28237   5.701  13.060  15.839 -0.3218 -0.0582  0.1133
 7958W        W28238  15.667  17.316  13.209 -0.0700 -0.0566 -0.3740
 7959W        W28239   1.864  17.679   4.059 -0.1007 -0.2986  0.0080
 7960W        W28240   5.502   1.325   2.639  0.0428  0.0296  0.0804
 7961W        W28241   4.062  14.032  15.284  0.0623  0.2892 -0.3182
 7962W        W28242   4.085  14.837  12.929  0.0502  0.1396 -0.2665
 7963W        W28243   5.607  12.494  16.341 -0.3199  0.1283  0.1673
 7964W        W28244   9.611   4.843   1.203  0.2006  0.1966 -0.0556
 7965W        W28245   9.479   0.687   4.547  0.0264  0.1931  0.2130
 7966W        W28246  13.156  10.659   4.293  0.0283 -0.1201 -0.0075
 7967W        W28247   8.197  10.943   3.967 -0.1222  0.0812  0.1708
 7968W        W28248   6.589  14.875   3.046  0.0564  0.0115 -0.1832
 7969W        W28249   1.660  10.539   3.726 -0.0097  0.1451  0.1168
 7970W        W28250  10.989  15.364   3.017  0.2100 -0.1063  0.4423
 7971W        W28251  11.145   3.183  15.051 -0.0773  0.1715  0.0609
 7972W        W28252   0.214  13.648   2.439  0.0316 -0.0258 -0.1206
 7973W        W28253  15.589   8.204   3.196 -0.1094 -0.1860 -0.0911
 7974W        W28254   7.092   0.517  15.921 -0.1129 -0.0318 -0.2407
 7975W        W28255   7.667   5.064   2.946  0.1152 -0.0341 -0.3077
 7976W        W28256   0.471   2.218  13.523  0.0072 -0.0313  0.0384
 7977W        W28257   0.696   8.047   2.174  0.0880 -0.0430 -0.1708
 7978W        W28258  12.772   1.169  13.680 -0.2505 -0.0956 -0.0131
 7979W        W28259   1.367   1.613   1.107  0.1376  0.0445 -0.0144
 7980W        W28260  11.340   0.123   2.655 -0.2135  0.0583  0.2553
 7981W        W28261  17.377   4.173   1.690 -0.1384  0.0235  0.3494
 7982W        W28262   9.525  13.446  12.091  0.0302  0.0435  0.0352
 7983W        W28263   1.370  12.871  12.836  0.3075 -0.2274 -0.2976
 7984W        W28264   4.073   9.848  14.667  0.0587 -0.2506  0.2126
 7985W        W28265  13.013  15.406  13.620  0.0672  0.0529  0.0906
 7986W        W28266  11.823  13.166  11.975  0.1783  0.1985  0.1338
 7987W        W28267  17.484   0.133   0.305  0.1915  0.1442  0.1324
 7988W        W28268   0.580   3.089   2.697  0.2797 -0.0227 -0.2740
 7989W        W28269   8.155   2.491   1.175  0.3813 -0.0409  0.0116
 7990W        W28270   6.594   7.912  16.931 -0.2230 -0.0530 -0.0546
 7991W        W28271  13.730   5.721   2.975  0.1154  0.2131 -0.2218
 7992W        W28272   1.289   9.343   0.536  0.1292 -0.2638  0.0241
 7993W        W28273   5.443  12.994  15.292 -0.3500 -0.1942 -0.1140
 7994W        W28274   4.182   8.939  14.621  0.1754  0.1774  0.2050
 7995W        W28275  17.637   8.350   4.129  0.1632  0.1508  0.0058
 7996W        W28276   5.065   4.308   5.074  0.0646 -0.0624  0.0000
 7997W        W28277   5.547  17.708   3.783 -0.0933  0.0129 -0.2197
 7998W        W28278   5.800  17.301  12.876  0.1295  0.0061 -0.1161
 7999W        W28279  14.185  17.031  12.969 -0.0869  0.2703  0.2511
 8000W        W28280   4.196   4.418  14.850 -0.2754  0.1135  0.3499
 8001W        W28281   7.162  17.277  16.560  0.0473  0.1356 -0.0113
 8002W        W28282   6.334  17.462   3.837 -0.1038 -0.1423  0.3246
 8003W        W28283   4.185   9.079   1.912  0.1298  0.2995  0.0836
 8004W        W28284   0.548   5.421  16.814  0.4300 -0.2395  0.0739
 8005W        W28285  12.782   9.089   2.625  0.1044  0.1713  0.1246
 8006W        W28286   9.379   1.406  13.210 -0.1272 -0.1615 -0.1438
 8007W        W28287  12.195   4.044  12.611  0.3419  0.0013 -0.1214
 8008W        W28288   8.108  17.625   3.711  0.0750  0.0541 -0.0727
 8009W        W28289  11.676   8.947   1.986 -0.2653 -0.1920 -0.1790
 8010W        W28290   4.096  17.279  16.168  0.0304 -0.2080 -0.1438
 8011W        W28291   8.945   7.244   0.551  0.0882  0.0155  0.1346
 8012W        W28292  12.418   9.235  13.671 -0.2089  0.1725  0.3896
 8013W        W28293   8.156  15.349  12.669 -0.0733  0.0118  0.0656
 8014W        W28294  15.567   7.875   1.224  0.2207  0.0071  0.2007
 8015W        W28295  15.237  16.714   3.950  0.1971  0.2038 -0.4058
 8016W        W28296   7.171   4.826  12.522 -0.2752  0.1039 -0.0571
 8017W        W28297   6.797   3.332  16.025  0.0630 -0.0833  0.6215
 8018W        W28298  12.305   8.008   0.238 -0.0636 -0.0218  0.1737
 8019W        W28299   3.380   0.167  12.515  0.1237 -0.2428 -0.2305
 8020W        W28300   4.200  14.415  16.992  0.3550  0.0966 -0.1267
 8021W        W28301   1.580   9.711   0.792 -0.0254 -0.1339  0.1199
 8022W        W28302  12.109  14.569   1.580 -0.2813 -0.2467 -0.0757
 8023W        W28303   5.879   4.992   3.998 -0.2812 -0.0561 -0.1031
 8024W        W28304  17.636   2.838  15.761  0.1420 -0.1942  0.1848
 8025W        W28305  15.778  16.467  12.619  0.2061 -0.1285 -0.3550
 8026W        W28306  11.439  16.172   4.411 -0.0782 -0.1591  0.0936
 8027W        W28307   8.192   8.040  14.971  0.0565 -0.1764 -0.2988
 8028W        W28308  10.978  15.269  16.558 -0.0652  0.2329 -0.1383
 8029W        W28309   7.436  10.488   4.317 -0.0322  0.1004 -0.3085
 8030W        W28310  13.003  12.707  16.884  0.1449 -0.2198 -0.1756
 8031W        W28311   9.708   2.142   1.072 -0.1396 -0.3069 -0.0056
 8032W        W28312   8.516  13.308  13.467 -0.1062 -0.1281 -0.2134
 8033W        W28313  15.145   3.439  13.318  0.0297  0.1658 -0.0027
 8034W        W28314   0.544   1.735  13.845  0.0605  0.2535 -0.1835
 8035W        W28315   5.026   1.828   2.592 -0.0118  0.2087 -0.0835
 8036W        W28316   1.731   6.247  14.910 -0.1210  0.2777 -0.1797
 8037W        W28317  16.921   4.020  15.470 -0.1754 -0.0147 -0.0591
 8038W        W28318   6.209   5.965  12.188  0.1702  0.0436 -0.1496
 8039W        W28319  12.710   6.753  15.053  0.1509 -0.0166 -0.1274
 8040W        W28320   6.732  10.998   0.672  0.2397 -0.0400 -0.0085
 8041W        W28321   6.823   3.622   1.692 -0.2605 -0.1211  0.1770
 8042W        W28322   5.409   5.629   5.037  0.0799 -0.2112 -0.0227
 8043W        W28323   0.825   8.957  15.144  0.0913 -0.0774  0.0477
 8044W        W28324  10.850  17.725   4.077  0.0980 -0.0751 -0.1889
 8045W        W28325   1.825  13.197  16.479  0.1359  0.0097 -0.1339
 8046W        W28326   0.247   8.297   4.516 -0.1868  0.0415 -0.0151
 8047W        W28327  17.566  10.532   3.934 -0.1058  0.0499  0.1269
 8048W        W28328  16.792   4.902   0.950  0.3477  0.0647 -0.2225
 8049W        W28329   2.928  13.550   5.200 -0.0046  0.1958  0.0252
 8050W        W28330   9.721   4.471  14.632 -0.0054  0.1463  0.2288
 8051W        W28331   0.814   1.952   4.763  0.2182  0.2995  0.3518
 8052W        W28332  14.986   1.470   4.028  0.1300 -0.2085  0.0868
 8053W        W28333   3.101   6.867   5.097  0.3393 -0.2619  0.0547
 8054W        W28334   3.766  15.110   3.447  0.0607  0.0602 -0.0252
 8055W        W28335   0.124  12.425   2.957 -0.0298 -0.1624  0.0570
 8056W        W28336   8.177   1.442   3.297 -0.1975  0.2683 -0.0923
 8057W        W28337  13.994   1.918  12.718 -0.1407  0.0095 -0.4668
 8058W        W28338   7.771  10.491  14.178  0.0037  0.0150 -0.0502
 8059W        W28339   0.722  15.915   0.006 -0.0065  0.2326 -0.0064
 8060W        W28340  17.104  14.592  15.396  0.0142  0.1702 -0.0878
 8061W        W28341  10.718   2.508   3.898  0.1995  0.0557 -0.1857
 8062W        W28342   7.772   3.287   0.849 -0.0794  0.2748 -0.1359
 8063W        W28343   8.684  11.232  14.306  0.2784  0.1287 -0.2037
 8064W        W28344  17.381   3.496   3.931  0.1919  0.1649 -0.3013
 8065W        W28345   7.338  12.614  15.422 -0.3248 -0.1677 -0.6196
 8066W        W28346   5.586   0.620   4.488  0.3618 -0.0269 -0.1377
 8067W        W28347   8.600  14.736   1.842  0.0565  0.2811 -0.3578
 8068W        W28348  11.818  10.381  16.102  0.1144  0.0846  0.1227
 8069W        W28349  14.516   1.727   2.821 -0.2374 -0.1223  0.1671
 8070W        W28350   4.294   0.407  13.055 -0.0148 -0.1883  0.0459
 8071W        W28351   5.030   0.891   0.986  0.1232 -0.1623  0.1391
 8072W        W28352   1.819   5.017   0.236  0.2577  0.1205 -0.0152
 8073W        W28353  14.313  15.560  12.562  0.0954 -0.2775 -0.0038
 8074W        W28354  12.673   3.042  16.156  0.2050 -0.0434 -0.3514
 8075W        W28355   3.051   1.451   0.884  0.0238 -0.2806 -0.1417
 8076W        W28356  16.852   8.677  13.377  0.1559  0.4011  0.0960
 8077W        W28357  14.224  13.465   3.849  0.2471  0.3308 -0.1378
 8078W        W28358  12.197   4.025  15.150  0.1633 -0.0703 -0.3382
 8079W        W28359  10.513  10.937   0.276  0.4702 -0.2009  0.2255
 8080W        W28360   7.967   3.898   4.795 -0.2213  0.1196  0.2446
 8081W        W28361   3.259  10.731  14.951  0.1313  0.0953 -0.3728
 8082W        W28362   7.703   8.328   1.196 -0.4552  0.0203  0.3256
 8083W        W28363  10.647  10.956   1.378  0.0540  0.0134  0.1977
 8084W        W28364  11.914  13.573  12.264 -0.1266 -0.1370 -0.1795
 8085W        W28365   0.720   4.837  14.541  0.1006 -0.0344  0.2274
 8086W        W28366  11.924   2.491  14.052  0.1432  0.2816 -0.2047
 8087W        W28367   5.433   7.359   0.231  0.1710 -0.2721  0.1881
 8088W        W28368   6.537   6.921  16.889 -0.0157  0.0759 -0.0883
 8089W        W28369  15.018  17.073   1.835 -0.2275 -0.0757 -0.0940
 8090W        W28370   2.155   8.621   2.244  0.0546  0.1102  0.1125
 8091W        W28371  11.286   6.912   0.457 -0.2057 -0.1481  0.0719
 8092W        W28372   8.370   7.153   2.884  0.1103 -0.0544  0.1735
 8093W        W28373  11.026  14.128  15.016 -0.2145  0.2176  0.2657
 8094W        W28374   7.349   7.614  13.031 -0.0754 -0.0527 -0.1079
 8095W        W28375   7.959   5.294  15.829  0.2495  0.1012  0.0829
 8096W        W28376   8.702   9.758  16.935 -0.0518 -0.0446 -0.3542
 8097W        W28377   8.661  15.779   2.329 -0.5226  0.1977 -0.2647
 8098W        W28378   2.588   0.638  13.752  0.1823 -0.0450  0.0050
 8099W        W28379   6.313  14.607   1.633  0.2380 -0.2449  0.1559
 8100W        W28380  17.090  13.780  15.868 -0.0903 -0.0459  0.0047
 8101W        W28381   5.252  14.249  13.414  0.0555 -0.1459  0.1143
 8102W        W28382  16.952   7.021  12.065  0.1099 -0.0136  0.1116
 8103W        W28383   8.168   4.684  17.005  0.0913 -0.0294 -0.2110
 8104W        W28384   5.518   8.921   2.790 -0.5160 -0.3478 -0.2170
 8105W        W28385  17.251   8.393   0.793  0.1871 -0.0713 -0.1093
 8106W        W28386  16.346   0.663  15.265 -0.2219  0.2172  0.4265
 8107W        W28387  14.965  14.609  12.869  0.0994 -0.0225  0.2287
 8108W        W28388  14.231   1.711   4.373 -0.2260 -0.0549 -0.2011
 8109W        W28389  10.756   3.233   0.032  0.1217 -0.1502 -0.0928
 8110W        W28390  11.452  14.872  13.819 -0.2416 -0.1961  0.2402
 8111W        W28391   8.251   2.976  14.786  0.1901 -0.4502  0.1354
 8112W        W28392   9.565   2.719  14.397 -0.1294  0.0786  0.2337
 8113W        W28393   9.326   5.575   1.546  0.0682  0.0011  0.2349
 8114W        W28394   9.041   6.874   0.866  0.1119  0.0892 -0.1200
 8115W        W28395   5.658   6.409  15.509 -0.2034  0.1110  0.0985
 8116W        W28396   9.989  10.846  15.779 -0.1483  0.0125  0.1023
 8117W        W28397   6.338   0.774   3.596 -0.1102  0.1642 -0.0327
 8118W        W28398   8.718  14.599  14.662  0.2302 -0.0157  0.1212
 8119W        W28399  13.336   6.667  12.247 -0.0384 -0.2361 -0.0444
 8120W        W28400   5.441  12.453  14.594 -0.1300 -0.2092 -0.1187
 8121W        W28401   2.787  17.025   5.021  0.3230 -0.0435 -0.0564
 8122W        W28402   2.933   7.874  12.901  0.2929 -0.1492  0.0958
 8123W        W28403   2.860  13.501  12.572  0.2247 -0.1123  0.1662
 8124W        W28404   3.962   0.769  16.385  0.1999 -0.1061 -0.1009
 8125W        W28405   0.858  14.746  16.411  0.1751 -0.3378 -0.0593
 8126W        W28406  17.258   0.108  12.931 -0.0367 -0.1160  0.1039
 8127W        W28407   6.919   7.659  14.740  0.1327  0.1441 -0.0773
 8128W        W28408  16.083   8.719   3.172 -0.4156 -0.1271  0.0777
 8129W        W28409   0.418   9.901   1.249 -0.1719  0.3209  0.3490
 8130W        W28410   1.290   5.303   1.396  0.1785 -0.1618 -0.1839
 8131W        W28411   7.690   3.458  16.360  0.2665 -0.1046 -0.1256
 8132W        W28412  16.504   3.134   4.362  0.0056 -0.3295 -0.1397
 8133W        W28413  17.147   8.093  11.804  0.1066 -0.0110 -0.1953
 8134W        W28414   8.992   3.454   4.727 -0.1236  0.4879  0.1728
 8135W        W28415   4.289   3.050  16.354  0.2636 -0.4499 -0.0163
 8136W        W28416   0.667  11.206  12.587 -0.0667 -0.0495  0.0453
 8137W        W28417   2.879   0.770   0.404  0.0914 -0.1095  0.0460
 8138W        W28418   3.387   9.960   3.151  0.2531 -0.2201  0.0175
 8139W        W28419  16.189   5.694   0.220 -0.2444  0.2486  0.0068
 8140W        W28420   3.079   4.819  14.826  0.0822  0.3187 -0.1135
 8141W        W28421  10.875   5.497  14.772  0.0992 -0.0188  0.1417
 8142W        W28422   4.605  11.531  13.242 -0.0136 -0.1300  0.1007
 8143W        W28423   7.292  10.412   0.635 -0.1629  0.3735 -0.2099
 8144W        W28424   4.004   3.097   0.327 -0.3539 -0.1062  0.0860
 8145W        W28425  13.715   3.108  15.531 -0.1574  0.2333  0.0277
 8146W        W28426  10.960   1.647   4.705  0.1288  0.0095  0.2568
 8147W        W28427  10.256   3.985   0.904 -0.0612 -0.0157  0.1045
 8148W        W28428   7.482  16.387   0.156  0.2870 -0.0016  0.3244
 8149W        W28429  11.577   9.243  12.595  0.0646  0.0694 -0.0351
 8150W        W28430  17.080   2.492  12.530 -0.1088 -0.0669 -0.2043
 8151W        W28431   7.698   4.420  13.424 -0.2066  0.0134 -0.1647
 8152W        W28432   2.911  12.751  12.962  0.2773 -0.1080  0.0039
 8153W        W28433   8.522   8.060   3.878 -0.2090 -0.0592 -0.2674
 8154W        W28434  13.830  16.781   4.046 -0.0536  0.0579 -0.1692
 8155W        W28435  10.581  17.326  15.051  0.0887 -0.3805 -0.1437
 8156W        W28436   4.784   1.505  14.150  0.0764 -0.0818  0.1121
 8157W        W28437  16.888   4.253  16.410  0.1287 -0.1464  0.0576
 8158W        W28438  16.625   5.136  16.460  0.0085 -0.1135  0.1435
 8159W        W28439   7.984  16.469   4.283  0.0401 -0.0697 -0.2633
 8160W        W28440  17.547  13.913  17.017 -0.2701 -0.1008 -0.3336
 8161W        W28441   4.276   9.115  14.160 -0.0595  0.0490  0.1907
 8162W        W28442  10.042  14.623   3.946 -0.0685  0.1234  0.1788
 8163W        W28443  13.720   2.419   2.679 -0.1660 -0.3351  0.0164
 8164W        W28444   9.586   9.388   0.125  0.0583 -0.3125 -0.2705
 8165W        W28445   0.463  13.210  16.483  0.0226 -0.1522  0.0570
 8166W        W28446   5.997  15.008  16.878 -0.3434 -0.0748 -0.3527
 8167W        W28447  15.565  10.093   3.146  0.1242 -0.0251 -0.2668
 8168W        W28448   5.221   6.757  12.263 -0.1491  0.1644  0.0310
 8169W        W28449  11.038   5.690   1.404 -0.1350  0.1766  0.1333
 8170W        W28450  12.133  17.005  12.277 -0.3159  0.2067  0.1090
 8171W        W28451   1.328  16.211   1.771  0.0239 -0.0522 -0.0333
 8172W        W28452   8.293   7.461   4.423 -0.5801 -0.0174 -0.0399
 8173W        W28453   7.484  12.453   2.295  0.0480  0.2928  0.0429
 8174W        W28454  12.201   2.462   3.155  0.1272 -0.0714  0.1387
 8175W        W28455  11.745  16.124  13.660  0.0540  0.0308 -0.2017
 8176W        W28456   6.002   9.228   2.483 -0.0518  0.1965  0.0874
 8177W        W28457  10.432  14.496   0.172  0.1386  0.1478  0.1062
 8178W        W28458   6.334  10.053  13.197 -0.3968 -0.0085  0.1514
 8179W        W28459   9.618   5.922   0.262 -0.0206  0.4503  0.0472
 8180W        W28460   3.996  13.625  16.842  0.0547 -0.2114 -0.0923
 8181W        W28461   0.823   0.483   4.258  0.0216  0.4446  0.1070
 8182W        W28462   9.170   9.115  13.506  0.2677 -0.2305 -0.3451
 8183W        W28463  15.414   1.680   3.169 -0.2074 -0.1633  0.0871
 8184W        W28464  10.303   7.898  16.110  0.0831 -0.3893 -0.0955
 8185W        W28465   7.123  14.661   1.371 -0.3560  0.2388 -0.0443
 8186W        W28466   7.792   9.169  15.908  0.1804 -0.2857  0.0918
 8187W        W28467  12.656   7.558  14.583  0.1056  0.0312  0.0662
 8188W        W28468  15.897  12.018  12.408 -0.2575 -0.2427 -0.0281
 8189W        W28469   9.937  13.785  15.226  0.1623 -0.0082 -0.2065
 8190W        W28470   4.592   9.954   1.064 -0.2509 -0.2237  0.1901
 8191W        W28471   5.918   3.125   3.663 -0.1006 -0.0148  0.2019
 8192W        W28472   1.125   8.694  12.400 -0.1167 -0.3112 -0.0278
 8193W        W28473  10.158   1.519  16.872 -0.1955  0.1804 -0.0530
 8194W        W28474  12.899   7.558  12.161  0.0087 -0.1101 -0.3586
 8195W        W28475  14.228   3.786   0.181 -0.3641  0.2672  0.3030
 8196W        W28476  14.993   5.935  12.760 -0.0246  0.2726 -0.0131
 8197W        W28477  13.833  17.613   2.228 -0.0519  0.0184  0.2818
 8198W        W28478   8.944  13.018  16.928  0.1746 -0.0720 -0.2851
 8199W        W28479   0.939   4.610   2.047  0.0659 -0.0959 -0.2457
 8200W        W28480   5.062   5.869  11.688  0.0135  0.0157 -0.0648
 8201W        W28481  10.260  17.061  15.305 -0.2856  0.1058 -0.1498
 8202W        W28482  14.943  15.514  16.521 -0.1348 -0.4201 -0.0960
 8203W        W28483  11.438  13.544  14.274 -0.2022 -0.2968  0.2370
 8204W        W28484  12.550  13.346  16.476 -0.2149 -0.0336  0.1219
 8205W        W28485  15.092   2.440   0.547  0.0618  0.1449 -0.4264
 8206W        W28486  13.632  12.216   4.404 -0.0673 -0.0260 -0.1071
 8207W        W28487  15.218   6.225  12.404  0.1075 -0.1832  0.0769
 8208W        W28488   9.247   6.203  15.192  0.2452 -0.0487 -0.0253
 8209W        W28489  15.062   1.767  16.648 -0.2236  0.0835 -0.2162
 8210W        W28490  11.651  14.506   0.628  0.0857  0.0312  0.0551
 8211W        W28491  11.284  14.054  12.797 -0.0162 -0.2021 -0.1731
 8212W        W28492   0.400   3.732  13.788  0.0355 -0.1910 -0.0705
 8213W        W28493   2.107   2.361   2.748 -0.1762  0.2982  0.0788
 8214W        W28494   5.854  10.226   3.376  0.2378 -0.1953 -0.2090
 8215W        W28495  15.265  10.896   2.564  0.0517 -0.0419 -0.0132
 8216W        W28496   8.803  11.978  12.949  0.1478  0.2448 -0.1790
 8217W        W28497   4.151   6.744  14.613 -0.0448  0.0423  0.0148
 8218W        W28498  10.779   8.034  15.162  0.1684 -0.3099  0.3698
 8219W        W28499  11.555   0.352  16.965 -0.2161  0.1483 -0.1005
 8220W        W28500  16.302  10.569  12.743 -0.3616  0.1166 -0.0967
 8221W        W28501  12.335   6.850  13.341 -0.2161 -0.0443 -0.1050
 8222W        W28502  13.998  16.197  14.842 -0.2686  0.2981 -0.0909
 8223W        W28503   9.968  17.257  12.347 -0.1870  0.3205 -0.3461
 8224W        W28504   2.596  14.910  15.980 -0.0458 -0.2701 -0.0261
 8225W        W28505  10.659  11.525  12.562  0.0090 -0.2119 -0.0438
 8226W        W28506  12.490   9.549  12.821 -0.0407 -0.1541 -0.1844
 8227W        W28507  13.550  14.572   3.752  0.0781 -0.3675  0.0362
 8228W        W28508  10.938   8.345  15.700 -0.2023 -0.1957  0.0964
 8229W        W28509   6.193   8.505  14.357 -0.2227  0.1297 -0.7606
 8230W        W28510   5.647   6.377   2.391  0.3212 -0.0569 -0.3424
 8231W        W28511   2.627  13.658  15.750 -0.1183  0.1949  0.0176
 8232W        W28512  16.360   7.771   3.184  0.1607 -0.2557  0.1124
 8233W        W28513  14.942  12.513   0.667 -0.0352  0.0380  0.0881
 8234W        W28514  11.174  16.595  15.292  0.0216 -0.3254 -0.3186
 8235W        W28515   3.485   3.774   1.934 -0.0448 -0.1501  0.0364
 8236W        W28516   0.177   1.231   4.288 -0.1536  0.2178  0.0393
 8237W        W28517  14.573   2.925  12.332  0.1155  0.0985  0.2056
 8238W        W28518   1.014  13.560  15.926 -0.1770 -0.3248 -0.2677
 8239W        W28519  16.156  11.824   1.737  0.1881  0.0958  0.0617
 8240W        W28520   7.031   5.571  15.355  0.1095 -0.0483 -0.0374
 8241W        W28521   5.730  10.018   0.306 -0.1101  0.1454 -0.1220
 8242W        W28522  12.198  16.464  14.367  0.0146 -0.2385  0.1993
 8243W        W28523  10.809   3.312   3.296 -0.0451  0.0011  0.0106
 8244W        W28524   2.812  15.959  16.368 -0.1256  0.0456  0.1130
 8245W        W28525   7.060  11.648   3.017 -0.1084 -0.1795 -0.1006
 8246W        W28526   3.562   1.522  15.571 -0.1403 -0.0775 -0.2583
 8247W        W28527  13.240  10.820  13.145 -0.0245 -0.1034 -0.0775
 8248W        W28528  11.391   9.866   3.674 -0.2503  0.2406 -0.0841
 8249W        W28529   9.530   2.079   3.494  0.2169 -0.0543  0.2523
 8250W        W28530   0.423  15.818   1.241 -0.1427  0.1837 -0.1732
 8251W        W28531  10.364  13.612   3.628  0.0398  0.0575  0.2655
 8252W        W28532   3.656   5.899   0.518  0.1658 -0.2002  0.0916
 8253W        W28533  12.657   9.374   3.422 -0.4467  0.0837  0.0354
 8254W        W28534  12.345  17.087  16.179  0.3401 -0.0551 -0.2943
 8255W        W28535   1.803   4.233  13.320 -0.3284  0.0468  0.2164
 8256W        W28536   0.160   4.149  15.750  0.1342  0.0314  0.2792
 8257W        W28537   7.536  15.808  16.227 -0.0339  0.0750 -0.2906
 8258W        W28538  13.431   2.864  12.892  0.0471  0.3011  0.0204
 8259W        W28539   1.894   7.073   0.128 -0.1165  0.0938 -0.1686
 8260W        W28540   9.357   8.390   1.757 -0.1394 -0.1248  0.0545
 8261W        W28541  17.545   4.624  12.691 -0.0702  0.1576 -0.0279
 8262W        W28542   3.051  10.405   3.265 -0.0774  0.1762  0.5818
 8263W        W28543   3.516  10.493  16.838 -0.0032 -0.0266  0.0695
 8264W        W28544  17.456   0.301   4.657 -0.0986  0.1947  0.0590
 8265W        W28545  16.739   8.491   2.684  0.5002 -0.0485 -0.0449
 8266W        W28546   0.565   0.134  16.259 -0.0661 -0.0688 -0.0094
 8267W        W28547   3.296   8.510   1.985 -0.5483 -0.0325 -0.0433
 8268W        W28548   2.970  16.322  15.122  0.0183 -0.0825 -0.0900
 8269W        W28549  16.311  15.143  12.563  0.1034  0.3359 -0.2067
 8270W        W28550  14.292   6.368   2.857 -0.3663  0.2984 -0.0990
 8271W        W28551   1.267  12.847   5.299 -0.0615  0.1851  0.1101
 8272W        W28552  17.311   2.518   4.619 -0.0209 -0.3099  0.4356
 8273W        W28553   1.722   7.864   1.634  0.1609  0.1935  0.3292
 8274W        W28554  15.278  13.164   2.732 -0.0780 -0.1046  0.0562
 8275W        W28555   6.805  14.843   2.069  0.0548  0.0397  0.1106
 8276W        W28556   3.608   4.429  13.365 -0.1062  0.0089  0.0782
 8277W        W28557   8.344   5.920  13.401 -0.1724  0.0401 -0.0870
 8278W        W28558   1.352   9.995   3.081  0.1308 -0.0671  0.1156
 8279W        W28559   8.738   2.172  16.595  0.0549  0.1171 -0.0080
 8280W        W28560  11.879  10.157  15.627  0.3203  0.0426 -0.0359
 8281W        W28561  12.832   7.728  14.133  0.1748 -0.1602  0.2576
 8282W        W28562  15.780   6.392  16.166  0.0133 -0.0424  0.0638
 8283W        W28563  12.118   8.852   4.649 -0.2924  0.2033 -0.2459
 8284W        W28564  15.561   6.994  15.699 -0.0139 -0.1832 -0.1064
 8285W        W28565   5.311   7.006  14.667 -0.1631  0.2842  0.2652
 8286W        W28566  10.544  16.725   0.670 -0.2208  0.0172  0.2697
 8287W        W28567  10.015   8.090   0.744  0.0412 -0.0115 -0.0154
 8288W        W28568  16.674  12.867   2.309 -0.0138 -0.2517 -0.1081
 8289W        W28569  16.479  14.106   4.352  0.0470 -0.1481 -0.2045
 8290W        W28570  15.888  16.527   0.844  0.1212 -0.0040  0.2536
 8291W        W28571   3.613  16.236  12.179  0.2283 -0.0485  0.0051
 8292W        W28572  15.090  15.670   4.385 -0.1873 -0.2829  0.2058
 8293W        W28573   3.368  12.152   0.164 -0.0109 -0.2166 -0.1425
 8294W        W28574  11.761  10.419   4.018 -0.3146  0.1432 -0.1487
 8295W        W28575   8.283   1.867   3.571  0.1641 -0.3806  0.1375
 8296W        W28576   5.841   5.593  12.666 -0.3396  0.2142 -0.0427
 8297W        W28577   2.930   3.920   0.914 -0.1961 -0.0062 -0.1433
 8298W        W28578   0.433   0.223   2.229 -0.1702 -0.3448  0.3495
 8299W        W28579   7.063   9.016   1.702 -0.0817 -0.0277  0.0472
 8300W        W28580   6.709   5.220  16.613 -0.1181 -0.0525 -0.3490
 8301W        W28581  10.522   8.599   5.610  0.2155  0.0882  0.3998
 8302W        W28582   1.184   1.295   3.644  0.0058 -0.0610 -0.1713
 8303W        W28583   1.545  15.962   3.256 -0.2562 -0.1257 -0.0736
 8304W        W28584  11.064   1.039   0.161  0.2589 -0.0438  0.0270
 8305W        W28585   2.883   2.131   1.857 -0.0172 -0.0524  0.2985
 8306W        W28586   9.518   8.621  12.423 -0.0034  0.2867  0.1009
 8307W        W28587   6.753  14.484   1.676  0.1808  0.1053  0.2599
 8308W        W28588   7.138   4.718  14.890 -0.0815  0.2348 -0.2640
 8309W        W28589  16.747   7.415  15.013  0.0938 -0.3997  0.0422
 8310W        W28590  11.942   2.974  13.404  0.0724  0.0203 -0.0402
 8311W        W28591  12.181   3.382   3.629 -0.0131  0.0659 -0.0002
 8312W        W28592   6.843  10.774  15.495  0.0004  0.0811 -0.0671
 8313W        W28593   6.824  15.798  12.758 -0.1564 -0.0174  0.0420
 8314W        W28594  10.396  15.899  11.915 -0.0905 -0.1231  0.3891
 8315W        W28595   5.389   2.912   1.828  0.1849 -0.1004  0.1367
 8316W        W28596   0.664   6.581  14.554  0.1988  0.0847 -0.2888
 8317W        W28597  10.589   1.819   0.205  0.1677 -0.0635 -0.0622
 8318W        W28598   9.626  12.416  13.976 -0.1422 -0.0575 -0.1167
 8319W        W28599  15.249   2.195   1.193  0.0675 -0.0007 -0.2460
 8320W        W28600  14.829  17.458   1.515  0.0837 -0.1354  0.2971
 8321W        W28601  15.876   3.545  15.313  0.0018  0.1415 -0.1819
 8322W        W28602   2.790  17.578   3.634  0.2384 -0.0258 -0.1775
 8323W        W28603   5.997   5.793   5.983  0.0465  0.0046  0.3893
 8324W        W28604  15.582   1.867   0.296  0.0897  0.1296 -0.1106
 8325W        W28605   2.523  15.384   0.312 -0.0039  0.3660  0.2223
 8326W        W28606   4.437  12.011  13.241 -0.3415 -0.0978  0.1468
 8327W        W28607  13.744  13.091   0.157  0.0391  0.1797 -0.0675
 8328W        W28608   0.926   9.388  16.356 -0.0715 -0.1707  0.2165
 8329W        W28609   7.714  10.081  13.333 -0.0044 -0.0121  0.0371
 8330W        W28610   4.512   1.969   3.928  0.0715  0.0100 -0.1415
 8331W        W28611   7.332  13.925  16.518  0.1671 -0.2940  0.0974
 8332W        W28612  10.583   5.299   2.246 -0.0209 -0.1941 -0.0164
 8333W        W28613   9.361  16.058   0.828 -0.1757 -0.0759 -0.2771
 8334W        W28614  14.010  14.811   3.921 -0.2463 -0.0211  0.1116
 8335W        W28615   4.090  10.142   3.708 -0.2391 -0.2017 -0.3009
 8336W        W28616  11.497   7.913   2.666 -0.3612 -0.0230 -0.1118
 8337W        W28617  14.126   9.171   0.919 -0.3815  0.2034 -0.1196
 8338W        W28618   3.588  17.135   3.297 -0.1908 -0.0265 -0.1779
 8339W        W28619   9.010   5.884  14.358 -0.0089 -0.2332 -0.0534
 8340W        W28620  12.318   7.128  12.926 -0.2521 -0.1056 -0.1160
 8341W        W28621  13.676   4.550   3.352  0.0691 -0.0466 -0.1100
 8342W        W28622  15.471   4.285  15.149 -0.0109 -0.1373 -0.2359
 8343W        W28623   7.574  16.830  14.118  0.1117  0.0804 -0.0329
 8344W        W28624   0.381  17.426  16.453 -0.2975  0.2135  0.6212
 8345W        W28625   1.370  11.265   3.494  0.0021 -0.4619 -0.3573
 8346W        W28626   8.213   5.291  13.923 -0.1634 -0.0765 -0.0719
 8347W        W28627   8.065  15.160   5.155  0.0213 -0.3543 -0.2074
 8348W        W28628  15.511  14.702  12.830  0.1557  0.1798 -0.0431
 8349W        W28629   9.965   9.897  12.971 -0.4149 -0.1021  0.3481
 8350W        W28630   8.391   4.401   1.933  0.1916 -0.0300 -0.0224
 8351W        W28631   3.917   1.406   2.635  0.0927  0.1790 -0.2333
 8352W        W28632  11.972  12.796  13.179  0.0298  0.1288 -0.0188
 8353W        W28633  12.011   9.676   0.040 -0.1960 -0.3120 -0.0141
 8354W        W28634   4.058   2.779   0.734  0.2202 -0.4644  0.1629
 8355W        W28635  12.424  15.030   0.559  0.0138 -0.0885 -0.1089
 8356W        W28636  13.101   6.212   1.360  0.0467 -0.5984  0.1678
 8357W        W28637   4.992   5.639  16.603  0.1690 -0.0179 -0.0173
 8358W        W28638   0.202   0.085  14.386  0.2313 -0.2230  0.2935
 8359W        W28639  13.877   1.232  16.527  0.2470 -0.0787 -0.1839
 8360W        W28640  16.265  13.606  14.768 -0.0699 -0.1411  0.0954
 8361W        W28641  12.281   9.333  13.185 -0.1513  0.2210 -0.0232
 8362W        W28642  16.239   9.056   5.739  0.0063  0.4083 -0.0841
 8363W        W28643   4.846   6.637   2.209 -0.1258  0.0433  0.0951
 8364W        W28644  17.109  11.654  13.229 -0.0685  0.1195 -0.5845
 8365W        W28645   4.254   1.473  12.815 -0.0656 -0.0969  0.2872
 8366W        W28646  13.803  17.056  15.854 -0.1778  0.4644  0.0093
 8367W        W28647  11.540   8.059   5.015 -0.0715  0.0171  0.1615
 8368W        W28648  15.271   3.403   1.724 -0.2892 -0.0793 -0.0840
 8369W        W28649  10.576  15.164  16.236  0.1443 -0.2590  0.0582
 8370W        W28650   3.187  14.576   3.810 -0.2918 -0.0302 -0.0589
 8371W        W28651  10.784   6.170  13.911  0.0902  0.0683  0.0549
 8372W        W28652  13.979   2.140  15.168 -0.0932 -0.0720  0.1942
 8373W        W28653  14.576   7.719   1.758  0.3131 -0.1771  0.0871
 8374W        W28654  10.095  13.923   0.126 -0.2025  0.0484 -0.0128
 8375W        W28655   5.787   8.345   4.540  0.0027 -0.1242  0.0362
 8376W        W28656  13.908   2.033   1.524 -0.0820 -0.0120  0.1121
 8377W        W28657   4.943  14.953   3.219 -0.1935  0.2603  0.0817
 8378W        W28658  16.228   4.146   4.393 -0.2854  0.4087 -0.0284
 8379W        W28659  10.585   6.421   3.126  0.0475 -0.0845 -0.2745
 8380W        W28660   5.511   7.194   0.719 -0.0084 -0.0917  0.2986
 8381W        W28661  14.656   7.764  13.669 -0.0534 -0.0490  0.0471
 8382W        W28662   1.701  12.215   3.593 -0.2190 -0.1994  0.0287
 8383W        W28663  17.016   0.567  12.212 -0.2288 -0.1053 -0.0910
 8384W        W28664   1.434   4.848   1.298  0.1527  0.0285  0.0223
 8385W        W28665   3.584   4.216   3.366  0.1303 -0.0057 -0.0814
 8386W        W28666  17.662   7.911   3.219  0.0446 -0.1595  0.1419
 8387W        W28667  15.354  12.563   0.412  0.2462 -0.0460 -0.2232
 8388W        W28668  11.390   9.218   4.831 -0.0042  0.2163 -0.0529
 8389W        W28669   8.579   5.885   4.709  0.0197  0.2056  0.0524
 8390W        W28670   0.646   6.274   0.530 -0.0519  0.1558 -0.1569
 8391W        W28671   7.444  14.886   2.587 -0.0322 -0.0861 -0.0016
 8392W        W28672  10.734  12.739  14.817  0.2527 -0.1398 -0.1023
 8393W        W28673   2.332   0.164  13.727  0.2620  0.1476  0.3457
 8394W        W28674  11.809   4.825   4.074 -0.0180 -0.2398 -0.2448
 8395W        W28675   5.319   0.534  12.891 -0.0076 -0.1277 -0.0354
 8396W        W28676  12.577   8.983  12.959 -0.2407 -0.4258 -0.0592
 8397W        W28677   0.747   5.932   2.410 -0.1945  0.1509  0.1766
 8398W        W28678   1.209   7.475  13.320 -0.0252 -0.0788  0.1084
 8399W        W28679  11.746   0.293   4.471  0.0324 -0.1310 -0.2390
 8400W        W28680   1.358   5.535   1.905  0.1094  0.2045  0.0476
 8401W        W28681   7.935   0.805   2.267 -0.0596 -0.1226 -0.0039
 8402W        W28682   9.136   1.351  12.247  0.1784  0.1344  0.0509
 8403W        W28683  10.486  13.155  14.637 -0.1225  0.1014 -0.0583
 8404W        W28684  16.346  14.413  13.071 -0.0893 -0.3862  0.1360
 8405W        W28685  10.993  12.529   1.708 -0.2215 -0.1422  0.0891
 8406W        W28686   1.614  16.301  16.182 -0.1615 -0.1309  0.0674
 8407W        W28687  17.426   2.993   0.076 -0.0482  0.1809  0.0205
 8408W        W28688  15.782  10.626  12.527 -0.0687 -0.2274  0.1515
 8409W        W28689  16.897  16.581   2.702  0.1479 -0.2047 -0.0660
 8410W        W28690  16.825   7.096  13.225  0.1280  0.2110 -0.1261
 8411W        W28691   1.562   4.078  15.525 -0.3138  0.0324 -0.0951
 8412W        W28692  13.851   9.666   5.383 -0.1884 -0.3280  0.3772
 8413W        W28693   0.215  16.651   2.659  0.1994 -0.1284  0.3168
 8414W        W28694   6.821   5.601  15.792  0.1877  0.1491  0.1498
 8415W        W28695   2.961  17.403   0.896 -0.2035  0.0159 -0.2780
 8416W        W28696   6.622   3.161  14.683  0.0998  0.1252 -0.2039
 8417W        W28697   3.459   4.772   4.579 -0.2971 -0.0443 -0.3570
 8418W        W28698  10.056  12.300   3.244  0.0577  0.2099 -0.0244
 8419W        W28699   0.747  12.452   3.573  0.0782  0.1708 -0.1811
 8420W        W28700  14.880  16.638  15.210  0.1202  0.0574  0.0086
 8421W        W28701  11.646  14.396   2.243  0.0721 -0.1767  0.0714
 8422W        W28702   8.980   8.790  16.055 -0.2701  0.0902  0.0989
 8423W        W28703   0.164  16.425   4.574 -0.1081 -0.3000 -0.1185
 8424W        W28704  14.686   6.581   0.282  0.2004  0.2335 -0.1690
 8425W        W28705  10.293   7.562  16.489 -0.0618 -0.1196  0.1320
 8426W        W28706   6.231   3.186   4.097  0.2744 -0.0855  0.0150
 8427W        W28707   3.096   3.458  13.620  0.1299 -0.2887  0.4838
 8428W        W28708  15.580   0.542  14.608 -0.0940  0.2354  0.0793
 8429W        W28709   1.254   1.142  12.825 -0.1931  0.2885  0.0013
 8430W        W28710   1.463   8.327  16.454 -0.1574 -0.2738  0.0039
 8431W        W28711  16.577   2.562   0.654 -0.0099 -0.0038 -0.0329
 8432W        W28712   5.846   7.610   1.960 -0.0504  0.1434 -0.3578
 8433W        W28713  10.768  12.276  15.617 -0.0459 -0.1029 -0.3343
 8434W        W28714   8.082   1.264  15.338  0.0602  0.0702 -0.0280
 8435W        W28715   4.606   4.485   2.161 -0.1063  0.0009  0.1314
 8436W        W28716  10.102  16.550   4.967 -0.0115 -0.2126  0.2915
 8437W        W28717   4.771  15.458  13.508  0.0497 -0.0007 -0.0527
 8438W        W28718   2.438  11.958  14.601  0.2600  0.0943 -0.0376
 8439W        W28719   7.329   6.521   0.968  0.2030 -0.2366  0.0812
 8440W        W28720  17.251   8.586   2.830 -0.0114  0.0280  0.1573
 8441W        W28721   6.413   6.896   0.801  0.0124 -0.1602 -0.0259
 8442W        W28722   0.340   1.231   2.152  0.2221  0.1739 -0.1759
 8443W        W28723  15.176   2.876  12.425  0.2343  0.0483 -0.0905
 8444W        W28724   0.679  13.093   1.963  0.2123  0.0034  0.0120
 8445W        W28725  14.689  13.342   2.131 -0.1513  0.1930  0.0244
 8446W        W28726   9.563  10.703   3.837  0.0418 -0.0412  0.0139
 8447W        W28727  17.147  13.728  16.756 -0.1931  0.1828  0.1033
 8448W        W28728  10.396  10.539  15.686 -0.1331 -0.0499 -0.1045
 8449W        W28729  14.035   0.284  12.628  0.1323 -0.1570  0.0007
 8450W        W28730   0.690  12.257   4.087  0.0976  0.2248  0.0556
 8451W        W28731   9.843  13.480  13.865 -0.0085  0.0962  0.1445
 8452W        W28732  16.083  13.764  16.152 -0.1087  0.0657 -0.2007
 8453W        W28733   5.351  10.258  16.077  0.0879  0.0620 -0.1543
 8454W        W28734  15.382  12.060  11.995 -0.0360  0.1442 -0.5383
 8455W        W28735   1.850  15.291  13.842 -0.1052  0.0319  0.3132
 8456W        W28736   1.205  17.697  16.552 -0.5565 -0.2634 -0.1341
 8457W        W28737   1.803  13.305  15.512 -0.0821 -0.0607  0.3695
 8458W        W28738  12.057   1.128  15.006  0.0484  0.3356 -0.0509
 8459W        W28739  13.424   0.293   2.764 -0.0059 -0.3474 -0.0403
 8460W        W28740  14.686   3.431  15.221 -0.3398 -0.0521 -0.2001
 8461W        W28741  13.253  15.716  13.096  0.0724 -0.0828  0.3636
 8462W        W28742   8.441   5.912  16.248  0.0011  0.1405 -0.1578
 8463W        W28743  11.660  11.512  13.666  0.1781 -0.0659 -0.1182
 8464W        W28744   4.740   1.984  14.778  0.0345 -0.2804 -0.2060
 8465W        W28745   3.469  14.103  14.231 -0.0135  0.0142 -0.1837
 8466W        W28746  15.319   1.398  15.286 -0.1010  0.0443 -0.4437
 8467W        W28747   2.329  11.852   3.087 -0.1473  0.0253 -0.0226
 8468W        W28748   1.215  12.578   2.706 -0.1908  0.1285 -0.0002
 8469W        W28749   0.050   8.755   1.508  0.0688 -0.0738 -0.0798
 8470W        W28750  15.222   3.531   3.420 -0.1838 -0.2552 -0.1075
 8471W        W28751   0.975  14.702  15.362 -0.1706  0.1389 -0.4112
 8472W        W28752   8.224   8.259  16.541  0.1531  0.1508  0.2766
 8473W        W28753   2.236   1.344   3.686  0.1618  0.0406  0.1438
 8474W        W28754   4.263  17.105   4.517 -0.1692  0.1664  0.1005
 8475W        W28755   2.313   5.288   1.944  0.3618  0.0668 -0.0384
 8476W        W28756   5.463  13.942  13.070 -0.0601  0.0252 -0.0469
 8477W        W28757   6.526   9.901   4.124  0.0569  0.0799  0.1305
 8478W        W28758  12.350  11.352  12.463  0.1976  0.1862  0.0931
 8479W        W28759  17.392  14.608   3.008  0.2889  0.3877  0.0534
 8480W        W28760   6.846  12.934   1.090 -0.4253  0.3502 -0.0452
 8481W        W28761  15.384  17.692  16.524 -0.0094 -0.0886 -0.0158
 8482W        W28762   9.511   4.470   0.763  0.1617  0.2619  0.0464
 8483W        W28763   0.324   8.715  15.975 -0.1305  0.2465  0.1329
 8484W        W28764   2.091   7.100   4.841  0.0861 -0.2668  0.2325
 8485W        W28765   0.840   7.968   3.350 -0.1781  0.2685  0.2548
 8486W        W28766   4.872  13.997   0.719  0.1597  0.1285 -0.0445
 8487W        W28767   5.274  11.225   2.477  0.1005 -0.1156  0.0610
 8488W        W28768   3.897  17.673  15.359 -0.2070 -0.1717 -0.1940
 8489W        W28769   8.372  13.038   2.905  0.0363  0.1246  0.3300
 8490W        W28770   5.279   9.463   0.055  0.0170 -0.2428  0.2201
 8491W        W28771  16.053  12.490   4.643  0.1724 -0.0920  0.1450
 8492W        W28772   1.855   2.373  15.436 -0.0121  0.3610  0.3701
 8493W        W28773  15.859   9.441  13.596  0.0304 -0.1131  0.1463
 8494W        W28774   0.305  15.458  12.184 -0.0783 -0.0795 -0.0852
 8495W        W28775   6.187  14.678  15.983 -0.0855 -0.0390 -0.0323
 8496W        W28776   9.392   3.925  11.923  0.2664  0.0156 -0.0310
 8497W        W28777   6.747   4.146  16.021 -0.1083  0.3878  0.1907
 8498W        W28778  11.013  13.892  15.995  0.0913 -0.1262  0.0138
 8499W        W28779  10.179   1.311   3.139 -0.1822 -0.2447 -0.1601
 8500W        W28780  12.510  14.208  12.176 -0.1107  0.0582 -0.0774
 8501W        W28781   0.496   9.952   0.088  0.1385 -0.0634 -0.0461
 8502W        W28782   5.921   5.128  12.462 -0.3294  0.0319  0.1160
 8503W        W28783  16.735   4.106  12.148  0.0923 -0.1317 -0.1044
 8504W        W28784  10.983   9.709  14.584 -0.3147  0.0690 -0.2863
 8505W        W28785  15.894   4.625  15.428 -0.1415 -0.4818  0.0699
 8506W        W28786   1.730  13.668  13.003 -0.2465 -0.0022  0.0193
 8507W        W28787   2.080   2.990   2.767  0.1447 -0.1334 -0.1826
 8508W        W28788   0.049  13.441   4.810  0.1942 -0.1402 -0.0610
 8509W        W28789  14.239   4.926   1.620 -0.1618  0.1265 -0.0772
 8510W        W28790  11.055   4.345   4.284  0.1287  0.4132  0.1536
 8511W        W28791  14.515   7.220   3.105 -0.0118  0.1171  0.3008
 8512W        W28792   1.794  10.430  16.534  0.2045  0.0660 -0.1552
 8513W        W28793   9.716   2.512  13.167  0.1613  0.2870  0.1012
 8514W        W28794   9.978   3.466   1.863  0.0486 -0.0228 -0.2527
 8515W        W28795   6.659   4.027   3.491  0.2856 -0.0074  0.2108
 8516W        W28796   5.590  12.073   0.058  0.1357 -0.0381 -0.1429
 8517W        W28797   1.499  17.643   1.147 -0.2816  0.1962 -0.1316
 8518W        W28798  14.173  12.263   0.250 -0.0377  0.1253  0.0581
 8519W        W28799  12.079  14.897   0.960 -0.0226 -0.0837 -0.1344
 8520W        W28800   4.548   7.567   0.291  0.0750  0.2252 -0.2787
 8521W        W28801   1.742   3.842  13.710 -0.3100 -0.0181 -0.3194
 8522W        W28802  16.329   2.256  13.170 -0.3795  0.2206  0.1496
 8523W        W28803   3.433  13.773   4.419 -0.1066 -0.0050 -0.2871
 8524W        W28804   3.281  17.223  13.653 -0.3167  0.0193  0.1836
 8525W        W28805   4.708  12.500  14.982  0.0316  0.1378  0.0990
 8526W        W28806   3.572  16.160   4.053  0.2224 -0.0501  0.3186
 8527W        W28807  12.180  10.494   2.425  0.1745  0.0183  0.0013
 8528W        W28808  17.237  10.286   3.150 -0.2089  0.0524  0.1366
 8529W        W28809   0.712   0.628  14.869 -0.0608  0.1904  0.0413
 8530W        W28810   1.515   6.894   4.477 -0.2207 -0.0001  0.4749
 8531W        W28811   0.414  13.373   1.596 -0.0345  0.0450  0.2394
 8532W        W28812  15.184   8.948  16.088  0.0891 -0.0142  0.2473
 8533W        W28813  12.376   6.117  14.482 -0.0513 -0.0838  0.2358
 8534W        W28814  12.061   4.035  14.633 -0.2318 -0.0789  0.0674
 8535W        W28815   6.589   9.544   0.485  0.0616 -0.1146  0.1206
 8536W        W28816   2.474   7.296  13.369  0.0586  0.0515 -0.4671
 8537W        W28817  15.120   2.572  11.042  0.2152  0.1017  0.1198
 8538W        W28818   9.962  16.281   2.477 -0.2429 -0.1237  0.2226
 8539W        W28819   4.872  14.044  14.840 -0.1300 -0.0736 -0.1343
 8540W        W28820  15.153  17.290   3.888  0.5295  0.2619 -0.1543
 8541W        W28821   8.268  15.383   1.937 -0.0668  0.2752  0.1384
 8542W        W28822   0.805  14.962   1.460 -0.0309 -0.1853  0.1860
 8543W        W28823  14.389   7.236  16.208 -0.2515  0.0219  0.1892
 8544W        W28824  10.624   7.569   3.659 -0.2378  0.0103  0.0945
 8545W        W28825  17.552  10.932   2.993  0.0290 -0.1806 -0.1743
 8546W        W28826  10.546  12.382   0.394  0.1604 -0.2019 -0.1972
 8547W        W28827   2.460  17.702  14.201 -0.3585  0.2754 -0.1192
 8548W        W28828   7.740   5.569  12.818  0.2736 -0.1970 -0.2243
 8549W        W28829  13.133  16.332   4.025 -0.0736  0.1080  0.0588
 8550W        W28830  16.798  10.415   4.534  0.3232  0.2106 -0.1772
 8551W        W28831  10.711   9.625   2.449  0.0178  0.3129  0.1081
 8552W        W28832  16.248   6.525  16.887 -0.0602  0.1603 -0.2571
 8553W        W28833  10.487   6.582  14.227  0.0445  0.1095 -0.2320
 8554W        W28834   2.403   0.072  12.473 -0.0226  0.2491 -0.0862
 8555W        W28835   5.224  10.398  15.099 -0.2657 -0.0112  0.0117
 8556W        W28836   4.344  14.675   4.517 -0.2730 -0.1261 -0.1545
 8557W        W28837  16.279   3.014   0.425  0.2948 -0.1659  0.0394
 8558W        W28838  10.189  11.707  14.366 -0.2644  0.0453  0.1906
 8559W        W28839   3.471   3.732   0.075 -0.0545  0.1713  0.0706
 8560W        W28840  16.809  15.463   4.775  0.1769  0.1292  0.2284
 8561W        W28841  14.134  16.586  13.913 -0.3000 -0.0055  0.1899
 8562W        W28842  10.243   6.508   4.783 -0.2093  0.0173  0.0167
 8563W        W28843   5.323  15.435   2.507  0.2055  0.2408  0.0561
 8564W        W28844   8.004   5.980  16.448 -0.0134 -0.2882 -0.1382
 8565W        W28845   2.957  13.971   0.473  0.0206 -0.2121 -0.0659
 8566W        W28846   7.605  13.664  14.234 -0.1644  0.0172 -0.0108
 8567W        W28847   4.829   0.066  12.497 -0.0853 -0.0336 -0.1646
 8568W        W28848  14.593   0.190   2.178  0.2728 -0.1327 -0.2707
 8569W        W28849  10.445   6.191   0.865  0.2954 -0.2674 -0.2468
 8570W        W28850  13.493  15.480  15.867 -0.0849  0.1855  0.0357
 8571W        W28851  12.332   7.815   0.678 -0.1000  0.2511 -0.0799
 8572W        W28852  10.700   2.556   4.920  0.0747 -0.3158 -0.1186
 8573W        W28853   4.494   7.383  16.159  0.0792  0.1504  0.3017
 8574W        W28854   1.169   1.576   1.983  0.1292  0.1882 -0.0832
 8575W        W28855   1.984  17.727  14.039  0.2256  0.0603 -0.2516
 8576W        W28856  11.388   7.262   2.672 -0.2611 -0.0615  0.0256
 8577W        W28857  15.855   5.286   5.002  0.2723  0.0177  0.1235
 8578W        W28858   2.588  13.920   5.115 -0.4104 -0.0049  0.0133
 8579W        W28859   4.777   2.746   3.538  0.2239 -0.0658 -0.1412
 8580W        W28860  10.561   4.743  11.981  0.0961 -0.2233  0.1365
 8581W        W28861  15.277  12.952   4.732 -0.0934 -0.0654  0.2383
 8582W        W28862   6.038  10.352  12.976  0.0472 -0.2522  0.0474
 8583W        W28863   8.727   7.155  15.887 -0.2406 -0.0167  0.1537
 8584W        W28864   7.388   3.401  14.328 -0.0373  0.0284 -0.1277
 8585W        W28865   4.653   2.451  14.433 -0.0490  0.0508  0.0845
 8586W        W28866   8.844   6.077   2.932  0.1472 -0.0251  0.1852
 8587W        W28867  11.392   3.670   4.391 -0.0883  0.0544 -0.3050
 8588W        W28868   4.312   8.843   3.157  0.2219  0.2186 -0.2147
 8589W        W28869  11.858   5.596  14.086 -0.1611 -0.0634  0.1995
 8590W        W28870   0.488   7.999  14.342  0.0601  0.1758  0.1325
 8591W        W28871   9.906  14.233   1.047  0.5912 -0.2393  0.3540
 8592W        W28872   9.523  11.844  15.088 -0.2633 -0.1031  0.2607
 8593W        W28873   9.234  13.072  12.266  0.0079  0.1042  0.1314
 8594W        W28874   5.258   9.228  14.982 -0.0936 -0.0766 -0.0393
 8595W        W28875  12.554  15.552   0.694  0.1392  0.0799 -0.0136
 8596W        W28876   5.088   4.044   0.341 -0.0840  0.0267  0.2420
 8597W        W28877   8.622   9.106   4.115 -0.0832 -0.0765 -0.2108
 8598W        W28878   6.174  10.363  14.450  0.2258 -0.1566  0.0895
 8599W        W28879   1.073   3.165  14.787 -0.2803  0.1230 -0.0964
 8600W        W28880  16.572  11.484   2.855 -0.1052  0.0897  0.0173
 8601W        W28881  17.242   7.408   1.143  0.1668 -0.1808 -0.0580
 8602W        W28882  12.704  11.855  15.031  0.1535  0.1791 -0.2580
 8603W        W28883  13.752  11.360   1.705 -0.0251  0.1474  0.3138
 8604W        W28884   1.884   5.553   4.242  0.1309 -0.2229 -0.0303
 8605W        W28885  11.813   5.934   0.838  0.0752 -0.0461  0.0323
 8606W        W28886  14.301  15.068  15.646  0.0806 -0.0388  0.2304
 8607W        W28887   8.826  12.048  14.444 -0.0261  0.1078  0.2021
 8608W        W28888  14.173  11.448   0.680 -0.0428  0.0248 -0.1498
 8609W        W28889   4.831   0.681  15.685 -0.0220  0.0087  0.0542
 8610W        W28890  10.944   2.147   2.505 -0.1583  0.0748  0.1438
 8611W        W28891   8.118  10.019   3.984 -0.0456  0.2106  0.1034
 8612W        W28892   0.177   7.010   0.654 -0.0695 -0.0874 -0.2491
 8613W        W28893  14.196   3.643  15.139 -0.1791  0.0775 -0.0208
 8614W        W28894   8.637   1.211   3.599  0.3647  0.4282 -0.1021
 8615W        W28895  14.825   2.422   3.579  0.1706 -0.2552  0.3348
 8616W        W28896   7.505   5.645   0.867  0.0435 -0.3486 -0.2116
 8617W        W28897   8.461   2.652   4.123  0.0910  0.1759  0.1042
 8618W        W28898  13.067  10.036   2.932 -0.2064  0.1015  0.0718
 8619W        W28899  13.299   5.254  15.033 -0.1824  0.3778 -0.0658
 8620W        W28900   2.410   4.782  16.205  0.2759 -0.3530  0.2880
 8621W        W28901   3.906   8.530   0.858 -0.3323  0.0008 -0.5302
 8622W        W28902   1.341   7.794   0.155 -0.1438  0.2406  0.1174
 8623W        W28903   7.299   6.479   2.304  0.0442 -0.0074 -0.0229
 8624W        W28904   4.758   0.851  15.216  0.0218  0.0123 -0.3056
 8625W        W28905   2.650   9.794   2.582  0.1791 -0.1108  0.1357
 8626W        W28906   5.009  15.109  16.853  0.3291 -0.1213  0.1095
 8627W        W28907  13.420   3.958  16.682  0.1065  0.1688  0.0040
 8628W        W28908   3.814  15.172  14.778 -0.3005  0.1096 -0.1405
 8629W        W28909  14.854   8.807  15.594 -0.2045 -0.0870  0.3623
 8630W        W28910   1.463  11.154  15.402 -0.0023 -0.2117 -0.2437
 8631W        W28911  12.711  12.456  12.870  0.2611  0.1679  0.2593
 8632W        W28912  16.074  16.399   4.484  0.0072 -0.1543  0.0876
 8633W        W28913   5.508   0.265  15.184  0.1085  0.1467 -0.0655
 8634W        W28914   7.900   8.295   4.383 -0.0981  0.4262 -0.2485
 8635W        W28915   1.333   2.663  15.749 -0.0798 -0.0834  0.3812
 8636W        W28916   4.682   1.311  13.030 -0.1435 -0.3242 -0.0320
 8637W        W28917   3.287  17.342   2.130  0.3018 -0.2334 -0.1340
 8638W        W28918   5.555   5.500  12.256 -0.2574 -0.1152  0.7879
 8639W        W28919   3.747  12.356  14.439 -0.1697 -0.0597 -0.0755
 8640W        W28920   7.949   2.320   4.818 -0.1162 -0.0948 -0.0810
 8641W        W28921   3.632   7.888  15.834  0.0414  0.0165 -0.3101
 8642W        W28922  17.301   7.922  13.485 -0.0497  0.0097 -0.0188
 8643W        W28923  12.170  11.382   4.669 -0.1452 -0.0553 -0.0723
 8644W        W28924  16.261   9.782  13.303 -0.0090 -0.0150 -0.2255
 8645W        W28925   0.225  17.048  16.762  0.2813 -0.0698 -0.0714
 8646W        W28926   8.454   4.259  14.057  0.1859  0.1495  0.0766
 8647W        W28927   0.978   3.230   1.883 -0.1581  0.1279  0.3568
 8648W        W28928  13.907   5.591   4.575  0.0689  0.2602 -0.0530
 8649W        W28929   0.009  10.819  14.665 -0.0730 -0.3903 -0.5714
 8650W        W28930   1.075  11.953   4.934  0.2356 -0.2597 -0.0699
 8651W        W28931  13.803   4.271  12.229 -0.0866 -0.0921  0.1288
 8652W        W28932  13.195  15.975   0.093  0.1604 -0.1463  0.0520
 8653W        W28933   9.443   8.030  16.726  0.2240 -0.0066 -0.1652
 8654W        W28934   2.435  12.426  16.366 -0.0743  0.0243  0.2618
 8655W        W28935  16.452  14.708   0.854 -0.0901  0.0541  0.1780
 8656W        W28936  16.835   7.680   1.990 -0.1810 -0.2857 -0.0006
 8657W        W28937  11.958   1.952  14.317  0.1865 -0.3548 -0.1069
 8658W        W28938   7.268   9.564   0.705 -0.0417 -0.0238  0.0863
 8659W        W28939   1.123  16.891   0.831  0.1348 -0.0513  0.0773
 8660W        W28940  11.969   3.885   3.593  0.0552  0.3373  0.0510
 8661W        W28941   1.515   1.769   2.313 -0.0301 -0.0008  0.0103
 8662W        W28942  17.531  11.921  16.473 -0.1500  0.1812  0.0019
 8663W        W28943   4.528   4.031  14.746 -0.1285 -0.1152 -0.2618
 8664W        W28944   5.472  16.617   4.568 -0.0767 -0.3061 -0.3445
 8665W        W28945   9.463  10.298  14.781  0.1669 -0.0598 -0.0224
 8666W        W28946   8.484  10.607  13.282 -0.0139 -0.0717  0.0952
 8667W        W28947  12.101  16.797   4.887 -0.3416 -0.1501  0.2410
 8668W        W28948   8.667   7.268   3.498  0.3968 -0.3229 -0.0500
 8669W        W28949  15.191  10.103  14.141  0.1247  0.1261 -0.2527
 8670W        W28950  16.121   5.890  15.098 -0.2033 -0.2384  0.1116
 8671W        W28951  17.082   6.683  16.294 -0.0170  0.1120 -0.0805
 8672W        W28952   1.970   1.483  14.769 -0.0324 -0.1895 -0.4973
 8673W        W28953  12.913   3.262  12.193 -0.0363 -0.1062  0.1530
 8674W        W28954   3.913  13.547   2.608  0.1835 -0.0906 -0.0124
 8675W        W28955   2.788   5.755  13.744  0.1818 -0.2259 -0.2726
 8676W        W28956   0.330   2.148   4.779  0.3855 -0.0573 -0.1393
 8677W        W28957   1.383   0.645  12.708  0.1575 -0.1505  0.0758
 8678W        W28958  13.797  17.516  13.263 -0.1001 -0.0071 -0.0499
 8679W        W28959  10.980  13.102  11.867 -0.2298  0.0338  0.0461
 8680W        W28960  16.337  12.858  14.986  0.1606  0.0898  0.0745
 8681W        W28961   7.446   2.519  14.370  0.0459  0.1875 -0.1299
 8682W        W28962  13.813  14.138   3.659  0.1557  0.2864  0.1495
 8683W        W28963  11.462  17.732   1.982  0.1153  0.1332  0.1358
 8684W        W28964  11.584   5.485   4.745 -0.3802 -0.0826 -0.1353
 8685W        W28965   2.486  17.087  16.707  0.0743  0.1209 -0.1225
 8686W        W28966   3.843  16.640   1.198  0.2586  0.0237  0.0412
 8687W        W28967  12.120   2.872   5.598  0.1560 -0.1710  0.0052
 8688W        W28968   7.890  17.058   1.243  0.0588  0.0062 -0.0070
 8689W        W28969  10.083  11.518   3.946 -0.1169  0.2299  0.0274
 8690W        W28970  13.116   4.620   4.096  0.0018  0.1830  0.0278
 8691W        W28971  12.640  15.493   4.239 -0.1452  0.0248  0.3325
 8692W        W28972  15.078   7.022   4.385 -0.0538  0.0881  0.0388
 8693W        W28973  12.829   7.164   1.482  0.0927  0.0847  0.1664
 8694W        W28974  14.649   1.916  14.104  0.2358 -0.3536  0.0797
 8695W        W28975   6.757   6.416  13.943 -0.1029 -0.3139 -0.2902
 8696W        W28976  13.689  12.250   3.583  0.1404 -0.1322 -0.1482
 8697W        W28977   1.966  14.777  12.994  0.1461  0.2215 -0.0716
 8698W        W28978  11.472  16.385   0.015  0.1249  0.1916 -0.0683
 8699W        W28979  14.803   2.553   2.618 -0.1490 -0.0582 -0.0555
 8700W        W28980  13.577  17.681   0.774 -0.0319  0.0127 -0.0467
 8701W        W28981   7.925   9.855   0.479 -0.1594 -0.1671 -0.2875
 8702W        W28982   8.782   6.056   0.437 -0.0692 -0.0309 -0.0391
 8703W        W28983   7.058   7.614   2.628  0.2667 -0.1071  0.1991
 8704W        W28984  12.614   2.933  13.272  0.1741 -0.1103  0.1234
 8705W        W28985   3.070  16.684  13.334  0.0779 -0.2743 -0.1524
 8706W        W28986  14.580   6.849  13.307 -0.0701  0.0511  0.0698
 8707W        W28987  15.739  12.506   3.667 -0.1672  0.0679  0.0312
 8708W        W28988   9.778  12.267  15.703 -0.0747 -0.3896 -0.1639
 8709W        W28989  10.041   2.166   2.912 -0.0319 -0.1383 -0.0088
 8710W        W28990  12.720   4.393   4.852 -0.0516 -0.0647  0.1584
 8711W        W28991   2.345  15.327   3.022  0.1206 -0.0761  0.0157
 8712W        W28992   7.819   3.473   1.350 -0.2208  0.0281 -0.0921
 8713W        W28993  13.718  15.309  15.350 -0.0947 -0.0028  0.1407
 8714W        W28994  12.225   7.575   1.374  0.0086  0.0569  0.0611
 8715W        W28995   5.711   5.398   3.181 -0.0700 -0.2710  0.2907
 8716W        W28996   9.455   0.396   2.275  0.1483 -0.1991  0.1282
 8717W        W28997   3.061  14.597   2.439 -0.0327 -0.3058 -0.0395
 8718W        W28998  12.302   9.027  12.600 -0.2996 -0.0063  0.1399
 8719W        W28999   6.003   1.255  13.915 -0.1135 -0.2238  0.0212
 8720W        W29000   6.570   8.176  14.576 -0.1713 -0.1737  0.3181
 8721W        W29001   1.211   8.199   2.786  0.2163  0.1098 -0.2560
 8722W        W29002  10.027   5.497   2.008  0.1628 -0.1806 -0.1649
 8723W        W29003   1.733   4.018   0.501  0.3291  0.2673 -0.0473
 8724W        W29004   1.056  13.963   2.914  0.0025  0.4878 -0.0116
 8725W        W29005  11.969  17.335  13.980 -0.2554 -0.3499 -0.1519
 8726W        W29006   0.328   1.371  12.786 -0.1403  0.4043  0.0564
 8727W        W29007  16.871   1.065  16.374  0.1524 -0.0472 -0.2215
 8728W        W29008  13.208  14.179   3.005 -0.0456 -0.5923 -0.1392
 8729W        W29009   9.174  13.928  15.789 -0.0874 -0.2495 -0.0429
 8730W        W29010   1.986   0.960   2.710 -0.0109  0.1034 -0.0831
 8731W        W29011  12.729  11.311  14.718  0.0935  0.2094  0.0337
 8732W        W29012   1.754   8.505  15.246  0.3179  0.3729 -0.4655
 8733W        W29013  16.989   3.899  14.557 -0.0162  0.2686  0.1907
 8734W        W29014   9.870   7.642   1.505 -0.0311  0.1892  0.1183
 8735W        W29015   9.775  16.430   0.461  0.0847 -0.1893 -0.1378
 8736W        W29016   8.155  16.368   3.830 -0.0038 -0.2041  0.1297
 8737W        W29017  16.447   8.906   3.961 -0.0690 -0.0479 -0.1855
 8738W        W29018  15.206  16.228   3.687 -0.0216  0.0848  0.1266
 8739W        W29019   3.479  14.982   1.053  0.1671 -0.1382  0.1739
 8740W        W29020  16.889  10.488  13.496 -0.1793 -0.0278 -0.1696
 8741W        W29021   7.365   1.003   2.823 -0.0101  0.3249  0.1006
 8742W        W29022  14.163   7.045   0.418 -0.0625  0.0055  0.0179
 8743W        W29023   7.895   6.062  12.861 -0.1246 -0.0153 -0.0524
 8744W        W29024   8.419  14.987  12.380 -0.1694  0.2400 -0.0922
 8745W        W29025  16.499  11.395   4.660 -0.1051 -0.2527  0.0163
 8746W        W29026   9.267  11.225  14.408 -0.0271 -0.1454 -0.1129
 8747W        W29027  12.135  16.735  15.388  0.1117  0.0141 -0.1862
 8748W        W29028   5.121  16.786   0.868 -0.0768 -0.0009 -0.0307
 8749W        W29029   0.016   1.106  15.946  0.1145  0.1677  0.0593
 8750W        W29030   5.454   8.515  13.563 -0.1551 -0.0636 -0.3579
 8751W        W29031  16.048  13.840  13.409  0.4491 -0.2898  0.3159
 8752W        W29032  10.291   0.040   4.490  0.0799  0.3544  0.0326
 8753W        W29033   4.679  11.700   2.580  0.1300  0.0006  0.0234
 8754W        W29034   8.450  10.397  15.129  0.2917  0.0251 -0.0032
 8755W        W29035   3.515   1.365   4.490  0.1547 -0.0916 -0.1062
 8756W        W29036  17.480   9.571   3.507 -0.2574 -0.1484  0.2142
 8757W        W29037   2.827  13.985  16.995  0.2628 -0.2191 -0.1486
 8758W        W29038   5.096   7.593  14.920  0.3083  0.2723  0.0301
 8759W        W29039   7.146   4.434   3.730 -0.0680  0.0828 -0.1339
 8760W        W29040   0.740   8.505  15.255 -0.1023  0.1828  0.4670
 8761W        W29041   2.410   4.918   3.796 -0.0355  0.2698  0.1432
 8762W        W29042   9.859   0.335  13.269 -0.0042  0.0771 -0.2746
 8763W        W29043   1.287   8.865  16.507  0.1612  0.0584 -0.1491
 8764W        W29044  13.693  13.509   1.541 -0.1330  0.0122 -0.1855
 8765W        W29045   6.031   1.586  15.006  0.0014  0.0796  0.0015
 8766W        W29046   2.639  17.215  16.267  0.0323  0.0945 -0.2504
 8767W        W29047   7.709   7.815  16.489 -0.0358  0.1376 -0.1478
 8768W        W29048   4.727  17.469   1.412  0.2148  0.1645 -0.0997
 8769W        W29049   6.761   8.438  13.659  0.2816  0.0482 -0.0294
 8770W        W29050   7.026   4.103  12.208 -0.2133 -0.2893 -0.0414
 8771W        W29051   1.842  10.159  16.136  0.1080 -0.0851  0.0820
 8772W        W29052  13.560   4.106   0.497  0.1668  0.1444 -0.1873
 8773W        W29053  10.928   7.182   0.185  0.0027 -0.2349 -0.2407
 8774W        W29054   4.632  13.262   1.897 -0.2494  0.0438 -0.1661
 8775W        W29055  15.828   0.814  15.007  0.1649  0.2795  0.1223
 8776W        W29056  16.939  11.979  14.520 -0.1728 -0.3148  0.4386
 8777W        W29057  15.619   7.336   2.737 -0.3584 -0.1384  0.0883
 8778W        W29058  11.369   7.055  16.865  0.0948  0.2842  0.0893
 8779W        W29059   3.498  11.323   2.596  0.4377 -0.0778  0.2048
 8780W        W29060  13.464  16.244   3.285  0.1377 -0.1543 -0.1536
 8781W        W29061   2.132  10.629   3.878 -0.1070 -0.3251  0.0373
 8782W        W29062  17.564   4.292  12.276 -0.2378  0.2524  0.0347
 8783W        W29063   4.664  11.878   0.387  0.1208  0.1145 -0.3779
 8784W        W29064  10.949   1.782  14.390  0.0238 -0.0254 -0.2173
 8785W        W29065   0.691   2.921   4.642 -0.1293 -0.0628  0.0863
 8786W        W29066   6.485   6.361   0.772 -0.0573  0.1896  0.0782
 8787W        W29067   1.438   3.861  16.007  0.0842  0.1371  0.0376
 8788W        W29068  11.530   3.177  16.661 -0.1806 -0.0709 -0.0869
 8789W        W29069   6.736  13.814  15.017 -0.0378 -0.1523 -0.2540
 8790W        W29070   6.321   6.821  14.843 -0.0823  0.3138 -0.0932
 8791W        W29071  16.468   6.369   2.827  0.1017  0.2761  0.2996
 8792W        W29072   2.009  17.538   0.921 -0.0234  0.0393 -0.1822
 8793W        W29073  17.049   1.439  16.685 -0.1310 -0.0888  0.0477
 8794W        W29074  14.886   6.077  14.814 -0.0308  0.0144  0.0789
 8795W        W29075  17.669   3.694  13.498  0.1228  0.0802  0.0238
 8796W        W29076   1.938   7.576   0.423  0.0388 -0.0191 -0.2961
 8797W        W29077   3.953   1.571   3.813  0.0819 -0.1030  0.0751
 8798W        W29078   4.912   9.409   0.700 -0.0328 -0.0883  0.2038
 8799W        W29079  12.886   8.913   3.550  0.1387  0.0587 -0.1203
 8800W        W29080   5.652  12.667  13.640  0.1250 -0.1811  0.0737
 8801W        W29081  11.681  15.142   1.620  0.0333  0.1332 -0.0120
 8802W        W29082   0.439   3.467   1.408 -0.4183  0.1762 -0.1224
 8803W        W29083  10.402   8.168  17.010  0.1061 -0.3790  0.2337
 8804W        W29084  17.449   7.153   2.285  0.0385  0.3016 -0.0545
 8805W        W29085  17.096  17.562   0.244  0.0391  0.1407 -0.0152
 8806W        W29086   2.089  14.136  11.566 -0.0017  0.0881  0.0103
 8807W        W29087   8.495  16.894   0.099 -0.0339 -0.2704  0.0732
 8808W        W29088   0.984   8.421  16.518 -0.0614  0.0216  0.3755
 8809W        W29089  10.117  11.926  15.936  0.0366  0.1011 -0.2802
 8810W        W29090  16.420   6.996   0.281  0.2373 -0.1243  0.4027
 8811W        W29091   7.026  15.500   2.850 -0.0713  0.0095  0.2417
 8812W        W29092  17.125   4.651   0.084  0.5156 -0.0864  0.0520
 8813W        W29093   6.055   9.512   1.597  0.0351 -0.2823  0.0335
 8814W        W29094  12.750   0.321  16.098 -0.1889 -0.1296  0.1228
 8815W        W29095  14.353   3.848   4.216 -0.0571  0.0779  0.0073
 8816W        W29096  15.871  15.083   0.532 -0.2232 -0.2029 -0.0702
 8817W        W29097  14.687  10.106  13.949  0.2549 -0.3043  0.1628
 8818W        W29098   8.103   4.966   5.110 -0.2484 -0.0110 -0.2064
 8819W        W29099   5.952  16.589   5.387  0.0319  0.0524 -0.5991
 8820W        W29100   7.137   5.182  15.831 -0.0553  0.4146  0.1731
 8821W        W29101   0.401   0.701   1.410 -0.0921  0.1211 -0.2119
 8822W        W29102  16.055   7.980   0.520  0.3474 -0.0697 -0.1597
 8823W        W29103  13.925  12.887   5.104  0.0648 -0.0595  0.3196
 8824W        W29104  17.457   4.142  13.410 -0.0602 -0.1539  0.2093
 8825W        W29105  15.870   4.044  15.405  0.1059 -0.2549  0.0752
 8826W        W29106  12.102  14.065  14.318 -0.2063  0.1509 -0.4686
 8827W        W29107   5.867   2.048  13.632  0.0657  0.0210 -0.2322
 8828W        W29108   8.067  12.256   3.897 -0.0648  0.0362 -0.1529
 8829W        W29109  14.246   5.179  12.780  0.1946 -0.2852  0.2807
 8830W        W29110  17.258  13.861   1.370  0.0739 -0.1362  0.0596
 8831W        W29111  17.643   6.452   3.555 -0.3067 -0.0946 -0.1103
 8832W        W29112   8.054  13.803  14.808  0.1075 -0.2151  0.0544
 8833W        W29113   4.437  16.051  15.951  0.0545 -0.3337 -0.1662
 8834W        W29114   0.537  16.121  14.701  0.0177  0.1608  0.1392
 8835W        W29115   0.344   5.380   1.497 -0.1053 -0.0577 -0.0130
 8836W        W29116   2.634  16.771   0.882  0.0067 -0.3372 -0.0816
 8837W        W29117   2.052  14.289   0.537  0.1361 -0.0233 -0.2799
 8838W        W29118   6.511   9.155   2.884  0.0132 -0.1152  0.1551
 8839W        W29119   6.127   4.564  16.686  0.0880  0.2229  0.1491
 8840W        W29120   9.321   6.526  15.634  0.1300 -0.0594 -0.0603
 8841W        W29121  13.833  16.527   3.546 -0.2528 -0.1403 -0.3899
 8842W        W29122  10.025  10.694   2.919  0.1103 -0.0606  0.1996
 8843W        W29123  14.400   7.528  12.576  0.1095  0.0011  0.1370
 8844W        W29124  17.233  15.937  15.485 -0.2929 -0.3878 -0.3117
 8845W        W29125   4.362  14.774   1.245 -0.2159 -0.1120  0.0126
 8846W        W29126  14.035  10.212   5.227 -0.4453 -0.1704  0.1174
 8847W        W29127   4.736  14.164  13.066 -0.0792 -0.0141  0.1888
 8848W        W29128  11.345  10.417  13.535 -0.0104  0.0441  0.0496
 8849W        W29129   3.836  15.145  13.475 -0.2121  0.1330 -0.0246
 8850W        W29130   1.850   5.270   1.386  0.1055 -0.2297  0.0802
 8851W        W29131   6.149   2.137   2.237  0.1671 -0.0838 -0.0629
 8852W        W29132   5.091   0.654   5.147 -0.0555 -0.0538 -0.2023
 8853W        W29133   9.480  11.809  14.012  0.3352 -0.0090 -0.1026
 8854W        W29134  16.968  13.014  15.208 -0.4459  0.0825  0.1791
 8855W        W29135  17.103  12.580   0.799  0.0551 -0.0285  0.2306
 8856W        W29136   6.516   9.673   1.986  0.2490  0.2807 -0.0299
 8857W        W29137  11.284   5.194  13.623  0.0246  0.0656  0.2910
 8858W        W29138  17.014   0.880  16.828  0.0832 -0.0322 -0.0915
 8859W        W29139   9.034  12.070   1.270  0.4221  0.1373 -0.0275
 8860W        W29140   8.148   2.722  15.686 -0.0217 -0.2696  0.0273
 8861W        W29141  14.286  13.401  13.072 -0.1458  0.0568  0.0703
 8862W        W29142   1.286   5.641   4.247  0.0994 -0.0152  0.0537
 8863W        W29143   0.433  13.003  17.002 -0.0509 -0.1769  0.0854
 8864W        W29144   8.256   0.567   1.307  0.0131  0.2338 -0.0507
 8865W        W29145  14.295   9.261   4.138  0.2611  0.2372  0.1120
 8866W        W29146   8.566   8.527  16.685  0.1797  0.1038  0.0274
 8867W        W29147  14.252  11.107   2.549 -0.1724  0.0408 -0.1972
 8868W        W29148  13.002   3.453   0.007  0.0293 -0.1753 -0.0901
 8869W        W29149  17.559   4.760   4.209  0.0357 -0.1542 -0.3697
 8870W        W29150   3.816   1.353  15.043 -0.1345  0.1629 -0.2224
 8871W        W29151  10.755   8.017   1.707  0.2021 -0.3068 -0.2943
 8872W        W29152   1.360  16.159  16.995 -0.2989  0.0171 -0.0674
 8873W        W29153  11.556   1.570  12.060  0.2083  0.2371 -0.3279
 8874W        W29154  16.452  15.822   4.450 -0.1041 -0.1993  0.1967
 8875W        W29155  16.578  17.703  16.836  0.1108 -0.0840 -0.0819
 8876W        W29156   9.361   5.770   4.179  0.1837 -0.1366 -0.0900
 8877W        W29157   5.399  17.192  14.516  0.1634  0.2066  0.0216
 8878W        W29158  17.475  17.436  13.642 -0.1669  0.1339 -0.1204
 8879W        W29159   4.777   6.560   2.700 -0.1441 -0.1539  0.0884
 8880W        W29160  13.423   5.628   4.330  0.3123 -0.1126  0.0656
 8881W        W29161   5.226   8.174   3.277  0.1392 -0.2260  0.1036
 8882W        W29162   1.837   3.103  13.335 -0.1072  0.1843  0.2757
 8883W        W29163   1.227   9.420   1.054  0.1350 -0.2257  0.0047
 8884W        W29164  12.858   9.405   4.098  0.0185  0.0138  0.0235
 8885W        W29165  13.798   9.470   4.231  0.3146 -0.3327 -0.0683
 8886W        W29166   9.021   6.091   4.474  0.0304 -0.0667 -0.1395
 8887W        W29167   7.097   5.330  14.866 -0.1146 -0.1341 -0.1003
 8888W        W29168  14.063   7.486   0.803 -0.1453 -0.1203 -0.0972
 8889W        W29169  10.416   1.466  13.169 -0.2199  0.0064  0.1125
 8890W        W29170   8.774   1.181   4.072 -0.1491 -0.0912 -0.0775
 8891W        W29171   8.666   1.862  14.932 -0.1558 -0.2891 -0.0388
 8892W        W29172   3.181  14.843  16.299  0.0268 -0.0607  0.1125
 8893W        W29173   1.294   9.395  12.555 -0.1852 -0.0580  0.1267
 8894W        W29174  10.368   3.796  13.397 -0.2032 -0.2627 -0.0485
 8895W        W29175  16.159   3.622   3.485  0.2754  0.1188 -0.2355
 8896W        W29176   8.335  11.895  14.728  0.1278 -0.1800  0.0944
 8897W        W29177   2.639   2.998  12.841 -0.1770  0.2294 -0.0784
 8898W        W29178  14.056   0.750  12.300 -0.0665  0.1280 -0.0163
 8899W        W29179  12.678   8.961  14.608 -0.2433  0.0938 -0.0795
 8900W        W29180   3.113   4.066  16.352  0.1185 -0.2951  0.2559
 8901W        W29181  16.227   2.209   4.135 -0.2240 -0.0826 -0.1393
 8902W        W29182  10.452   8.989  13.545 -0.0728 -0.0499 -0.0930
 8903W        W29183  13.011  15.749   4.552 -0.0371  0.2730 -0.1693
 8904W        W29184  16.163   4.915  12.457 -0.1487 -0.0224 -0.1654
 8905W        W29185   1.908  12.897   1.486  0.1596 -0.2687  0.0604
 8906W        W29186   4.927  12.897   3.691 -0.1169  0.2950 -0.0504
 8907W        W29187  16.892  13.349  16.611  0.1266  0.0512 -0.1485
 8908W        W29188   5.847   6.076  12.896  0.1476  0.1269 -0.3237
 8909W        W29189  16.862   6.980  13.726 -0.0113 -0.0449 -0.2234
 8910W        W29190   3.187  15.958  14.948 -0.2290  0.0566  0.1327
 8911W        W29191  15.987   8.197   2.087 -0.2224 -0.1813  0.2496
 8912W        W29192  14.383  17.650  12.536  0.1061 -0.2034  0.5004
 8913W        W29193   2.799   0.334  14.103 -0.2932  0.1926 -0.2475
 8914W        W29194   9.917   7.604   3.267  0.0924  0.2623 -0.1045
 8915W        W29195  11.441  12.360  16.224  0.0993 -0.2203  0.0531
 8916W        W29196   8.525  13.716   0.019 -0.1824 -0.0131 -0.0128
 8917W        W29197  15.339  15.815  16.374 -0.0051  0.0155  0.4182
 8918W        W29198  14.964   9.750   3.037 -0.4345 -0.1250  0.2671
 8919W        W29199  17.089   5.277   4.659  0.3696 -0.0389 -0.1497
 8920W        W29200   7.355  11.442   3.417  0.1563 -0.1659 -0.2094
 8921W        W29201  16.360   6.095  13.675  0.0861 -0.1548  0.0767
 8922W        W29202  11.251   5.777  14.931 -0.2770  0.0951  0.1865
 8923W        W29203  17.063   5.051  13.620 -0.1586 -0.1235  0.0154
 8924W        W29204  11.371   4.697  12.705 -0.1287  0.1836  0.2864
 8925W        W29205   6.761  15.254   4.978  0.1582  0.2981  0.0005
 8926W        W29206  16.185  17.453  13.147  0.0880 -0.0291  0.1495
 8927W        W29207  14.661   8.167  16.743  0.1508 -0.1901 -0.2087
 8928W        W29208  13.703  14.366   1.722 -0.0018  0.2531  0.1811
 8929W        W29209  10.540   4.458  16.848  0.1388 -0.0192  0.0857
 8930W        W29210   9.432  17.723   1.627  0.2038 -0.0228  0.0317
 8931W        W29211   9.792   7.188   0.150  0.1130 -0.2336 -0.0864
 8932W        W29212   5.695  14.634  14.627 -0.2902 -0.0110  0.1969
 8933W        W29213   3.859   3.553   4.627  0.0672 -0.2084 -0.0234
 8934W        W29214   9.650  13.768  14.833  0.1503  0.3239 -0.2586
 8935W        W29215  11.737   4.154  12.048  0.2984 -0.0839 -0.1902
 8936W        W29216  12.306   7.564   2.417  0.1191  0.0192  0.2316
 8937W        W29217   5.291  10.991   1.754 -0.1472 -0.1838 -0.2241
 8938W        W29218  12.284  12.965   4.620 -0.1160 -0.1050  0.0517
 8939W        W29219   1.477  13.931   3.179  0.2599 -0.0958 -0.0352
 8940W        W29220   3.453   0.236  15.647 -0.0097 -0.0508  0.0589
 8941W        W29221   1.736   2.157  14.302 -0.3633 -0.2011  0.1379
 8942W        W29222   3.968  11.695   4.646  0.1240 -0.2524 -0.1120
 8943W        W29223  10.142   4.717  13.527  0.0930 -0.1523 -0.4804
 8944W        W29224  15.053   8.671   1.561  0.0598  0.3600  0.0634
 8945W        W29225   6.314  12.235   0.129  0.0323  0.1254 -0.1779
 8946W        W29226   3.932   7.877  13.404  0.2943  0.3078  0.3759
 8947W        W29227  14.213   7.077   3.780 -0.0394 -0.1145 -0.0740
 8948W        W29228  15.673  16.593   2.142  0.1887 -0.4360  0.0414
 8949W        W29229   6.530  12.393  12.324  0.0588 -0.1762  0.0581
 8950W        W29230   0.233   0.894  13.418 -0.1229  0.0892  0.1650
 8951W        W29231   3.140  16.336  12.285  0.2285 -0.1701  0.0413
 8952W        W29232   7.167   6.774  13.967 -0.0403 -0.2213 -0.0635
 8953W        W29233  16.935   0.606   4.546  0.0007 -0.2768 -0.3428
 8954W        W29234  13.886  15.347   0.170 -0.0416 -0.1556  0.0101
 8955W        W29235   9.715  14.382   0.078  0.0320  0.0874 -0.0100
 8956W        W29236  14.249   8.844   2.651  0.0176  0.0338  0.2670
 8957W        W29237   2.965  15.205   4.659 -0.3320 -0.2066  0.1903
 8958W        W29238   5.336   8.130   0.014 -0.0068 -0.1513  0.5849
 8959W        W29239   0.996   2.578   1.234  0.0790 -0.1281 -0.2496
 8960W        W29240   7.530   3.885   1.107  0.3936  0.0540 -0.1112
 8961W        W29241   6.956   3.416  14.094  0.2975 -0.3449 -0.0565
 8962W        W29242  15.252  16.882  12.033 -0.2041 -0.2861 -0.0028
 8963W        W29243  14.278   4.454  13.542  0.2641  0.2128 -0.1622
 8964W        W29244   3.333  16.127  15.617  0.1571  0.1538  0.2461
 8965W        W29245   6.486  16.136   3.280  0.0760 -0.0175 -0.0043
 8966W        W29246   2.167  16.075  14.978 -0.1681 -0.0299  0.2718
 8967W        W29247   1.401   4.510   1.775  0.0520  0.0776 -0.1645
 8968W        W29248   7.992   2.457  12.340  0.2513  0.0867  0.2734
 8969W        W29249  10.853  10.224  12.453  0.0111  0.0349 -0.2023
 8970W        W29250   5.349   5.082  12.267 -0.1266  0.2029  0.1681
 8971W        W29251   2.277   0.188   3.922 -0.3270 -0.0188 -0.0548
 8972W        W29252  11.954   5.740   1.829 -0.0070 -0.0696  0.0920
 8973W        W29253  13.784  11.090   2.511  0.1563 -0.0197  0.0829
 8974W        W29254   7.076  15.068   3.168  0.0509 -0.1937  0.2071
 8975W        W29255   8.997  15.543  12.936 -0.0084 -0.2928  0.0122
 8976W        W29256   7.677   4.003  12.244 -0.1111 -0.0125 -0.1906
 8977W        W29257   9.076   0.565   3.130 -0.3533  0.0722 -0.2226
 8978W        W29258   9.532  16.698  12.437  0.3289  0.3549 -0.1097
 8979W        W29259   2.220   1.599  16.445 -0.1320 -0.0745  0.0053
 8980W        W29260   5.386  10.688   4.143  0.2160 -0.1040 -0.1780
 8981W        W29261   5.721  16.722  12.750  0.1587 -0.1519 -0.0552
 8982W        W29262   4.108   6.025  16.079  0.0004  0.2950 -0.0411
 8983W        W29263   7.011  12.229  16.326 -0.0535 -0.1451 -0.0415
 8984W        W29264   5.331   6.163   4.824 -0.5292  0.3120 -0.2168
 8985W        W29265   0.195  11.590  14.312 -0.0514  0.0127  0.1877
 8986W        W29266  16.387   5.995  13.178  0.1444  0.0767  0.1943
 8987W        W29267   2.354   1.823  12.220 -0.1381 -0.0945  0.1111
 8988W        W29268   1.135  11.213  15.821  0.0336 -0.1346  0.1486
 8989W        W29269  14.617  12.603  16.766  0.2889 -0.1017  0.1090
 8990W        W29270  12.826   9.066  13.388  0.2256 -0.0882  0.0742
 8991W        W29271   0.145   4.751  12.211 -0.0648 -0.0050  0.2429
 8992W        W29272  16.313  12.769   0.607 -0.0202  0.1079  0.1963
 8993W        W29273  12.285  11.543   2.573  0.1338 -0.1827 -0.1228
 8994W        W29274  12.664  13.311  12.743  0.0062 -0.3043  0.1869
 8995W        W29275   9.700  11.955   1.081 -0.0285  0.1582  0.2949
 8996W        W29276  11.793   6.572  14.132 -0.1605 -0.1913  0.0975
 8997W        W29277   2.947   8.577  14.369  0.1581  0.0785  0.2480
 8998W        W29278  12.369   0.939   3.995 -0.0001  0.1038  0.0713
 8999W        W29279  10.039  11.192   0.954 -0.0187  0.0204 -0.3589
 9000W        W29280  11.058   5.199  15.838 -0.1462 -0.0199  0.0475
 9001W        W29281   4.702  17.706   4.700  0.4193  0.0148  0.1316
 9002W        W29282  14.389   5.489  12.111  0.1097  0.2232 -0.1798
 9003W        W29283   0.532  17.071   2.093 -0.3808  0.0790 -0.1064
 9004W        W29284  14.127   4.143  16.175  0.3164 -0.0671  0.0701
 9005W        W29285   6.434  16.862   2.745 -0.1594  0.0127  0.0821
 9006W        W29286  12.923   6.265  14.978 -0.1198 -0.0767  0.3702
 9007W        W29287  13.519  13.420   2.606 -0.0556 -0.1568  0.2431
 9008W        W29288  12.830  15.674  15.328  0.1504 -0.1409  0.0326
 9009W        W29289   2.491  13.024   1.220 -0.0258  0.0031 -0.0867
 9010W        W29290  12.284  16.360   2.731 -0.1473 -0.0063 -0.2037
 9011W        W29291  14.019  15.988   0.036  0.0668  0.2485  0.1215
 9012W        W29292  12.802  12.448   4.021 -0.1591 -0.1226  0.1875
 9013W        W29293   6.252  15.820  15.488  0.2318  0.0706 -0.1552
 9014W        W29294   7.244  11.790  12.137 -0.2706 -0.0291 -0.1713
 9015W        W29295  10.592   0.585   1.365 -0.1437 -0.0395  0.0373
 9016W        W29296   5.280  11.946  12.464 -0.3558 -0.0893  0.0420
 9017W        W29297   4.049  13.833  12.622  0.1739 -0.2325  0.0547
 9018W        W29298   7.948  14.219  15.655 -0.2842  0.3383  0.3236
 9019W        W29299  17.205  13.169  16.224  0.0603 -0.0149  0.1410
 9020W        W29300  15.805  10.091   2.713 -0.1550  0.1255  0.1717
 9021W        W29301  16.985  12.068   4.608  0.2202 -0.1391  0.0791
 9022W        W29302   4.698  11.350  15.971  0.0261 -0.0379  0.0340
 9023W        W29303   6.505   4.903  13.611 -0.1737  0.0746  0.5135
 9024W        W29304  15.165  17.265  14.293 -0.1157  0.0269 -0.2703
 9025W        W29305  14.048   3.386  15.974  0.2313 -0.0704 -0.0294
 9026W        W29306   7.039   0.422  14.986  0.0550  0.1098  0.0452
 9027W        W29307   6.275  15.360   1.589  0.0094  0.1961 -0.1215
 9028W        W29308   6.715  14.668  12.267 -0.0500 -0.0823  0.0524
 9029W        W29309   3.167   7.522   3.989 -0.2857 -0.1761  0.1612
 9030W        W29310   0.657  12.599  15.832  0.1633  0.0038 -0.1915
 9031W        W29311   0.729   3.105  15.172 -0.4275  0.2420 -0.0308
 9032W        W29312   9.823  15.648  15.185 -0.0042 -0.0370  0.0101
 9033W        W29313   9.049   7.472  14.655  0.2435  0.3644  0.0051
 9034W        W29314   9.661  16.486  15.433  0.0948 -0.1868 -0.1558
 9035W        W29315   0.088  15.857  16.924 -0.0167  0.1085 -0.1920
 9036W        W29316   6.831  17.484  13.511 -0.0587  0.0783 -0.0475
 9037W        W29317   8.368   6.898  12.096  0.0672 -0.3726 -0.0207
 9038W        W29318   9.276   2.639  16.670  0.1541  0.0026  0.1215
 9039W        W29319   9.625   5.740  12.430  0.1210  0.5066 -0.2040
 9040W        W29320   6.378  17.324  16.136  0.2227  0.0237 -0.0132
 9041W        W29321  12.701   5.421   1.904  0.0516  0.0792  0.0208
 9042W        W29322   4.269  14.373  13.805  0.0101  0.1283  0.0306
 9043W        W29323   0.915   6.045  11.273  0.0084  0.0429 -0.0491
 9044W        W29324  17.037   6.901  15.699  0.0870  0.0722 -0.0004
 9045W        W29325   4.071  15.319  13.054 -0.0189 -0.0116 -0.0458
 9046W        W29326  16.420   4.077  15.360 -0.0501  0.2068 -0.3946
 9047W        W29327  14.321  13.343   4.677  0.1159  0.0425 -0.0195
 9048W        W29328   9.963   3.191  16.625 -0.3664  0.0300  0.1589
 9049W        W29329  13.055   2.597  15.457  0.2091 -0.0453  0.0112
 9050W        W29330  14.133   7.523  15.903  0.1131  0.1658 -0.0798
 9051W        W29331   9.201  13.028   0.369  0.1794  0.1426 -0.2010
 9052W        W29332  13.958   5.088   0.406 -0.0996 -0.0269  0.0341
 9053W        W29333  11.449  12.648  16.888  0.0237  0.0396 -0.2238
 9054W        W29334  17.099   4.444  14.504 -0.0066 -0.0223 -0.1390
 9055W        W29335   4.793  17.350  13.246  0.1387 -0.2299 -0.5091
 9056W        W29336   1.635   1.264   3.193  0.3092 -0.1103  0.2752
 9057W        W29337   9.330   6.506   4.555  0.1573 -0.0471 -0.1487
 9058W        W29338  16.183   6.416  12.324 -0.0720  0.2466 -0.0314
 9059W        W29339   6.141   0.662  12.805 -0.2920 -0.1415  0.1725
 9060W        W29340   4.873   3.818  16.337 -0.3674 -0.0393  0.1968
 9061W        W29341  15.649   0.098  14.808  0.0668  0.0718 -0.2942
 9062W        W29342   1.802  16.696   1.981 -0.0602 -0.2238 -0.0642
 9063W        W29343  12.137   8.041  16.454  0.1582 -0.1303  0.0490
 9064W        W29344   1.628  12.692   0.310  0.1197 -0.1470 -0.3158
 9065W        W29345   1.609  11.181   2.714  0.2347 -0.0152 -0.1260
 9066W        W29346  15.735  10.917  16.428  0.0263 -0.0550  0.0442
 9067W        W29347  10.913  10.182   0.124  0.1047  0.1095  0.1859
 9068W        W29348  14.588  15.691  12.151 -0.1221 -0.1139  0.0319
 9069W        W29349   1.327  16.037  12.772  0.0834  0.3381  0.1205
 9070W        W29350   7.747   8.092  12.861 -0.3342  0.1668 -0.1577
 9071W        W29351   0.209  11.943  13.068  0.1011 -0.0459  0.0291
 9072W        W29352   0.597  15.536   3.270 -0.0175  0.1081  0.0762
 9073W        W29353  11.761   3.426  13.273  0.2003 -0.1369  0.0573
 9074W        W29354  13.573  11.369  13.760  0.0187  0.2089 -0.2175
 9075W        W29355   1.486   3.471  11.398 -0.1628  0.4927 -0.2618
 9076W        W29356   7.894  10.330   0.726 -0.2829  0.0590 -0.2292
 9077W        W29357   6.511   6.168   4.674  0.0181 -0.1128 -0.3842
 9078W        W29358  11.530  12.092   1.495  0.1719 -0.0109  0.0584
 9079W        W29359  17.557  10.764   3.465 -0.2189 -0.0782  0.1512
 9080W        W29360  15.021  16.140   0.477 -0.3289  0.0244  0.1326
 9081W        W29361  15.314  17.382   0.628 -0.2818 -0.0526  0.0822
 9082W        W29362   1.695   6.210   2.054 -0.0635  0.4566  0.0310
 9083W        W29363   5.206  12.444   1.905 -0.0025  0.1589  0.3694
 9084W        W29364   4.530  11.814  13.701  0.2303 -0.1027 -0.2164
 9085W        W29365   8.824   8.941   0.899 -0.0357 -0.0213 -0.0566
 9086W        W29366   6.948  16.903  12.925 -0.3309  0.0929  0.0840
 9087W        W29367  15.841   4.689   3.360  0.3364 -0.1523 -0.3472
 9088W        W29368  14.522  14.320   5.712  0.1561  0.1328  0.0831
 9089W        W29369   6.001  16.043   2.734 -0.2513 -0.0430  0.0034
 9090W        W29370   3.499  12.642   3.563 -0.2257 -0.0078  0.3140
 9091W        W29371  15.906  13.081   1.512 -0.0817  0.1188 -0.4023
 9092W        W29372   0.028  12.459   4.476  0.2465  0.0291  0.0925
 9093W        W29373  16.614   1.456   3.755  0.1718  0.0664 -0.1440
 9094W        W29374  10.417  13.770   1.842 -0.0301 -0.0616 -0.2838
 9095W        W29375   5.283   9.938  12.453  0.0771 -0.0594  0.0527
 9096W        W29376   1.593  14.046  14.127  0.0633  0.1078 -0.0625
 9097W        W29377  14.277   4.685   0.500  0.2882 -0.1453  0.2943
 9098W        W29378  11.176   7.697   4.983  0.1681 -0.0559 -0.0594
 9099W        W29379   8.811   5.712  15.801  0.0859 -0.0525  0.1010
 9100W        W29380   0.248  14.657  13.118  0.1076 -0.2599  0.1658
 9101W        W29381  10.777   8.268  16.244  0.0885  0.2066  0.0330
 9102W        W29382  13.130  15.500  16.997  0.0038  0.0921  0.3386
 9103W        W29383  14.295   3.184   3.325  0.1944  0.1966  0.1690
 9104W        W29384  14.454   6.002  16.450 -0.2539 -0.0477  0.2784
 9105W        W29385  14.478  10.129   1.262  0.2740  0.0740 -0.1342
 9106W        W29386   1.300   2.178  14.080  0.1415 -0.1306 -0.0194
 9107W        W29387   8.881  16.823  13.705 -0.0000  0.0479  0.0679
 9108W        W29388  16.344   8.351  16.562  0.2237  0.0922  0.0556
 9109W        W29389  10.421  13.016   6.038  0.3363  0.0046 -0.1440
 9110W        W29390  17.032   7.256   4.675 -0.3348 -0.2531  0.0338
 9111W        W29391   7.258   1.456  13.361 -0.1148  0.1780 -0.0156
 9112W        W29392  11.266  13.425  16.071 -0.2769 -0.3386  0.2469
 9113W        W29393   9.782   6.566   1.479  0.2516 -0.2273 -0.0502
 9114W        W29394   0.274   2.892   0.045 -0.1341  0.0472  0.1593
 9115W        W29395   3.785  12.113  16.616  0.3953  0.0482  0.1808
 9116W        W29396   9.791   3.111   2.938 -0.1631  0.1608 -0.2594
 9117W        W29397   7.223   3.405  16.217 -0.1657  0.1190 -0.0509
 9118W        W29398  10.135  16.454  15.793  0.2915 -0.0590  0.3819
 9119W        W29399   9.548   3.430  14.876  0.0672  0.2753 -0.0139
 9120W        W29400  11.789   7.381   3.003  0.3037  0.0630  0.0967
 9121W        W29401   1.745  15.600   3.675  0.1041 -0.1273 -0.1137
 9122W        W29402  16.116   3.469  12.819  0.1994  0.0531  0.2684
 9123W        W29403   7.125   0.254  12.906 -0.2248 -0.1660 -0.1524
 9124W        W29404   3.308  15.847  14.422  0.1441 -0.2428  0.0359
 9125W        W29405  10.310  11.760  16.486  0.2648 -0.0474 -0.1788
 9126W        W29406   4.344   2.156   4.340  0.2170 -0.0933 -0.0943
 9127W        W29407   1.959   9.662   4.973  0.3651  0.1262  0.3661
 9128W        W29408   9.067   3.982  16.107  0.3413  0.2227  0.0827
 9129W        W29409  11.818  14.267  16.007 -0.1166 -0.1612 -0.2613
 9130W        W29410  10.204  17.701  13.170 -0.0602 -0.3722  0.5471
 9131W        W29411  10.214  14.228  12.840  0.0085  0.4499 -0.1522
 9132W        W29412   9.488   2.379   3.967  0.3989 -0.1044 -0.2371
 9133W        W29413  14.883   4.421  16.239  0.1222  0.0988  0.1864
 9134W        W29414   3.542   4.218   1.668  0.1811  0.1034 -0.2010
 9135W        W29415   9.359   2.149  13.385  0.2319  0.2050 -0.3845
 9136W        W29416   6.601  14.632   4.517  0.1321  0.0500 -0.2449
 9137W        W29417  11.608   3.095   1.883 -0.3400 -0.0149  0.1565
 9138W        W29418  13.037  10.128   0.070 -0.4868  0.0562 -0.4391
 9139W        W29419   3.411   3.386   2.209  0.1541 -0.2800  0.1756
 9140W        W29420  13.701   3.951  13.648 -0.0059  0.2134  0.3431
 9141W        W29421   2.278   7.348   4.468 -0.2025 -0.1011 -0.0635
 9142W        W29422   7.873  12.407   2.736  0.0797 -0.0727 -0.2944
 9143W        W29423   8.391  17.549   3.186 -0.0083  0.0047 -0.0140
 9144W        W29424  11.875   4.400  13.437  0.1976  0.2603 -0.0340
 9145W        W29425  11.783  14.539   2.720  0.1724 -0.0722  0.0341
 9146W        W29426  16.406  13.183   0.321  0.3250 -0.0985  0.2207
 9147W        W29427  10.329   5.586   2.561 -0.2190 -0.1183  0.1036
 9148W        W29428  16.074  10.686   1.466 -0.1535  0.2455 -0.2058
 9149W        W29429   8.020   2.705  13.845 -0.0977 -0.0237 -0.0128
 9150W        W29430   7.995  15.102   3.469  0.0237  0.2717  0.1736
 9151W        W29431   8.395  16.428  15.324  0.3395  0.0697  0.3380
 9152W        W29432  13.269  15.594   2.814  0.3383 -0.2103  0.2899
 9153W        W29433   2.045  10.445  14.416  0.0571  0.0873 -0.0130
 9154W        W29434  12.448  10.014   3.699 -0.0316 -0.0629 -0.0243
 9155W        W29435   4.498  12.578  13.101 -0.0617  0.0224 -0.1103
 9156W        W29436   8.818   2.974  13.265  0.3136  0.0859 -0.1056
 9157W        W29437  10.817  16.622  13.268  0.1750 -0.0294  0.0728
 9158W        W29438  16.974   8.277  13.842 -0.0015  0.0295  0.4561
 9159W        W29439   5.297   7.047   1.607  0.2335  0.1176  0.0679
 9160W        W29440   9.342   0.167   0.687  0.2832 -0.0285 -0.0345
 9161W        W29441   2.654  10.320  13.293  0.0583 -0.1891 -0.4370
 9162W        W29442   6.736  12.760   4.878 -0.0798  0.0448 -0.0848
 9163W        W29443   9.413   1.943  12.697 -0.1083  0.0170  0.3649
 9164W        W29444  16.758   7.367   3.933 -0.2293 -0.1623 -0.1350
 9165W        W29445   8.598   5.073  16.329 -0.0141  0.0699 -0.0513
 9166W        W29446  13.242   4.644  16.163 -0.1831 -0.1125  0.0355
 9167W        W29447  16.153  14.266  12.505 -0.2491  0.3664 -0.1384
 9168W        W29448   9.919   7.128   3.140 -0.0346  0.2101 -0.1023
 9169W        W29449  16.756  13.944  14.499  0.0464  0.0989  0.2594
 9170W        W29450   7.824  15.912  14.427  0.1181 -0.0956 -0.0656
 9171W        W29451   8.611  12.110   4.056  0.2262 -0.1125  0.1319
 9172W        W29452   2.558  14.134  16.556 -0.2869  0.3124 -0.0180
 9173W        W29453   8.843  17.398   2.840  0.1637 -0.0665  0.0021
 9174W        W29454  11.988   3.032  14.799  0.1624 -0.1330 -0.1555
 9175W        W29455   5.034   3.552   0.339  0.2291 -0.1019 -0.0584
 9176W        W29456  15.689  11.096  14.070  0.2705 -0.2897 -0.0749
 9177W        W29457   1.216   7.754  15.344  0.3599  0.2970  0.1489
 9178W        W29458   1.345   7.804  16.669  0.0422  0.0849 -0.1004
 9179W        W29459  16.917  13.777  13.498 -0.2275  0.2052 -0.1842
 9180W        W29460  14.100   1.431   0.328 -0.0713 -0.1865  0.1747
 9181W        W29461   6.797   2.158  13.015  0.0544  0.1105 -0.0921
 9182W        W29462  11.201   2.489   4.674 -0.0905 -0.1614 -0.0913
 9183W        W29463  16.406   2.079  17.017  0.0021 -0.1846 -0.1106
 9184W        W29464  17.082   8.454  12.944  0.0916 -0.0056  0.1554
 9185W        W29465  11.933  14.193   1.934  0.2002 -0.0814 -0.0654
 9186W        W29466  15.870  13.029   3.529 -0.1881 -0.0453 -0.1435
 9187W        W29467   4.467   7.727   1.242 -0.3522  0.0580  0.0954
 9188W        W29468   6.585   7.137   3.377 -0.0447  0.0679 -0.1310
 9189W        W29469  12.574   0.696   0.002  0.0353  0.0898 -0.1308
 9190W        W29470   5.749   6.102  13.844 -0.0680 -0.0673  0.1870
 9191W        W29471  13.419  11.483   2.553 -0.0861 -0.3750 -0.0476
 9192W        W29472   6.790  11.628   0.361  0.2508  0.3817 -0.1911
 9193W        W29473   3.248   9.036   4.551 -0.0451 -0.1734  0.2823
 9194W        W29474   3.821  10.996   4.178  0.1283  0.2854  0.1135
 9195W        W29475  11.028   3.245   1.505  0.2766 -0.0967 -0.1364
 9196W        W29476   5.766  12.849   1.825 -0.1375  0.1652 -0.2969
 9197W        W29477  11.049   8.229  13.545  0.0941 -0.2267 -0.0016
 9198W        W29478  14.560   8.649   1.397 -0.2219  0.3116 -0.0542
 9199W        W29479   4.009  15.014  15.171 -0.1984 -0.1179  0.1084
 9200W        W29480   5.604  16.139  14.543  0.1479  0.2059  0.3396
 9201W        W29481  13.341  12.100   0.898  0.2505  0.0189  0.1573
 9202W        W29482   7.631   5.557   3.106 -0.4461  0.2210  0.2724
 9203W        W29483  15.713  11.627  12.174  0.0353  0.0334  0.0324
 9204W        W29484  14.299   6.509  12.368 -0.0486 -0.1464  0.0635
 9205W        W29485  16.224   8.417  13.801 -0.2456 -0.2468  0.0225
 9206W        W29486  12.488   2.073  13.404  0.1630 -0.6060  0.2640
 9207W        W29487  14.884   6.326   3.154  0.0389  0.0312  0.0975
 9208W        W29488   6.722   2.563   3.418 -0.0349  0.0135  0.1955
 9209W        W29489  10.750   7.666  13.460 -0.0702  0.1978  0.0165
 9210W        W29490  15.870   5.476   0.658 -0.2152 -0.0458 -0.2446
 9211W        W29491   7.166  13.174  13.494 -0.0202 -0.0533 -0.2705
 9212W        W29492   1.403  12.371  13.916  0.2727 -0.1469 -0.0646
 9213W        W29493  15.322  16.113   1.533  0.0761  0.1756  0.0683
 9214W        W29494   9.675   0.997   3.850  0.2412 -0.0725  0.0696
 9215W        W29495  10.235   4.451  14.046 -0.0128  0.1504  0.2787
 9216W        W29496   5.090  11.272   3.453 -0.0791  0.0408  0.1479
 9217W        W29497   4.288   6.065  14.149  0.4454  0.0248 -0.1519
 9218W        W29498   6.856   2.425  16.097 -0.0438 -0.1373 -0.0848
 9219W        W29499   1.484   9.178   2.515  0.1020 -0.2209  0.2677
 9220W        W29500  14.136  11.843   2.331  0.3411  0.0551 -0.0687
 9221W        W29501   1.423   9.340  14.224 -0.1642 -0.1264 -0.2188
 9222W        W29502   4.465  11.543  11.720  0.3005  0.3115  0.2437
 9223W        W29503  16.124   6.811   4.913  0.1621  0.1042  0.2011
 9224W        W29504  14.507   2.577   0.133 -0.1556 -0.5643  0.0447
 9225W        W29505  10.749  13.435  14.253  0.0406 -0.0338  0.0536
 9226W        W29506   8.703   9.875   3.681 -0.2296  0.3807  0.1626
 9227W        W29507   9.944   9.199  15.282  0.2096 -0.5015 -0.3082
 9228W        W29508   2.855   4.457  12.632 -0.0735  0.0656 -0.3183
 9229W        W29509  11.939   1.617   0.039 -0.2420  0.1547  0.2181
 9230W        W29510   4.032   2.329   0.957 -0.2241 -0.0196 -0.2512
 9231W        W29511   6.985  10.264   4.311 -0.2864  0.0680 -0.0688
 9232W        W29512  15.975   9.642   4.847  0.1055  0.2347 -0.1252
 9233W        W29513  16.295   6.926   2.052  0.2206  0.2303 -0.1950
 9234W        W29514   8.851   9.660  12.235  0.0909  0.1278  0.0011
 9235W        W29515   7.948  11.868  14.422 -0.3088  0.1923  0.2721
 9236W        W29516  16.565  16.732   0.157 -0.3843  0.0929  0.0862
 9237W        W29517  15.399  14.759   1.440  0.2190  0.1171 -0.2061
 9238W        W29518   3.009   4.753   4.331  0.1893  0.0597 -0.0833
 9239W        W29519  11.331   2.478   0.950  0.1735 -0.1319  0.1251
 9240W        W29520  10.680  10.227   1.650 -0.2203 -0.1779  0.2697
 9241W        W29521   0.391  16.635  14.533  0.0227 -0.6218 -0.1785
 9242W        W29522  14.312  13.157  13.471  0.2659  0.0338 -0.3232
 9243W        W29523  10.110   6.887   1.132 -0.1391 -0.1841  0.1632
 9244W        W29524  11.116   9.083  13.215 -0.0694  0.2406 -0.2597
 9245W        W29525   1.733   0.802  14.455 -0.2530  0.1363 -0.2638
 9246W        W29526  14.974  10.656  12.856  0.0899  0.1147 -0.1183
 9247W        W29527  13.572   9.250   3.079 -0.0858 -0.2602 -0.2050
 9248W        W29528   0.580  11.893  12.345 -0.0536  0.0113 -0.2068
 9249W        W29529   0.196   2.726  13.562  0.2014 -0.1386  0.0268
 9250W        W29530   3.528   3.846   2.490  0.3518 -0.0071  0.0192
 9251W        W29531  15.795   7.154   5.098 -0.0753 -0.0744  0.4344
 9252W        W29532   8.220   0.412   1.779  0.0200 -0.0762  0.2454
 9253W        W29533   9.272   8.270  14.086  0.2675  0.0938 -0.0699
 9254W        W29534  15.048   9.148   2.133  0.1882 -0.1635 -0.3541
 9255W        W29535  10.345   2.143   4.117  0.2788 -0.0862 -0.1277
 9256W        W29536   0.684   4.554  12.471  0.0358 -0.0088 -0.2629
 9257W        W29537  12.086   3.027   1.930 -0.3040 -0.1008  0.2420
 9258W        W29538   7.029   7.390   1.145 -0.1705 -0.1526 -0.2756
 9259W        W29539   1.813  10.922  14.624  0.0435  0.1096  0.0238
 9260W        W29540   8.114  17.542   1.385  0.0502  0.2478  0.0117
 9261W        W29541   1.519   5.225  13.101  0.1727 -0.1722  0.0998
 9262W        W29542   8.821   9.338  16.568 -0.2581 -0.2423  0.1167
 9263W        W29543   5.222   2.260   0.838 -0.1423  0.0651 -0.0536
 9264W        W29544   0.791   2.790  13.591  0.0864  0.2394 -0.0715
 9265W        W29545  14.307   3.707  16.220  0.2383  0.2785 -0.1548
 9266W        W29546  10.008   0.711  14.876 -0.0634 -0.1837 -0.1799
 9267W        W29547  14.202   3.778  14.195 -0.0205  0.1000 -0.3579
 9268W        W29548   5.906   5.973  15.593  0.0977 -0.1008 -0.2088
 9269W        W29549   7.905   4.809  12.270 -0.2667  0.2135  0.1311
 9270W        W29550   4.511   2.204   3.440  0.2586  0.0992  0.2549
 9271W        W29551  10.239  16.747  11.828 -0.0682 -0.0467  0.0209
 9272W        W29552  11.925  10.360   1.496  0.4248 -0.0505  0.0047
 9273W        W29553   9.001   0.419   6.109  0.1310  0.4492 -0.0543
 9274W        W29554  12.253  15.213  15.623 -0.2136 -0.2524 -0.0924
 9275W        W29555   1.159   2.658   0.039  0.0573  0.0781  0.2357
 9276W        W29556  17.168   7.755   4.805  0.0007 -0.1619  0.1719
 9277W        W29557   2.326   3.647  15.066  0.1814 -0.1683  0.1350
 9278W        W29558   8.499  15.931   0.885  0.0674  0.1568 -0.1713
 9279W        W29559   9.743  14.139  12.604  0.3275 -0.1481  0.1588
 9280W        W29560   8.497   6.945   0.042 -0.4153 -0.1985 -0.2266
 9281W        W29561  17.082   1.909  13.592  0.0206  0.2764  0.1311
 9282W        W29562   4.655   2.464  15.437  0.1873  0.1344 -0.0332
 9283W        W29563  11.832   5.660  15.854 -0.2532  0.1959  0.3060
 9284W        W29564  16.396   5.991   5.276  0.2421 -0.0125  0.1607
 9285W        W29565   9.370  17.005  13.780 -0.2116  0.0498 -0.1463
 9286W        W29566   7.053   7.154   1.784 -0.1688 -0.0205 -0.2578
 9287W        W29567   6.471  13.425   3.279  0.0193  0.0012 -0.0646
 9288W        W29568   3.969   8.548  14.777 -0.1382  0.1757  0.0130
 9289W        W29569   5.132  10.920  15.413  0.2243  0.0070 -0.2484
 9290W        W29570   5.879  13.802  16.353  0.3157 -0.0426  0.1687
 9291W        W29571  17.712   4.493  13.139  0.0382  0.1530  0.2251
 9292W        W29572  11.998  14.796  12.866 -0.0556  0.0711  0.0515
 9293W        W29573  12.152  11.993  16.672 -0.0718  0.3555  0.2177
 9294W        W29574   3.180  14.991  14.474 -0.1086  0.0008 -0.2826
 9295W        W29575   4.345  15.685  12.478  0.0502 -0.4896  0.0409
 9296W        W29576   8.552   9.780  13.417 -0.2248 -0.1734  0.0540
 9297W        W29577   3.533  12.488  13.150 -0.2884 -0.1277  0.4018
 9298W        W29578   3.082   6.484  16.240  0.6199 -0.0252 -0.0466
 9299W        W29579   4.296  15.334  13.610 -0.0070  0.2563 -0.0909
 9300W        W29580  15.565  13.556   0.600  0.1567 -0.3445  0.2004
 9301W        W29581   4.169   7.557   5.084 -0.1964 -0.1566 -0.0980
 9302W        W29582  14.948   8.222  13.864  0.0989  0.2837  0.2331
 9303W        W29583   7.309   3.571   1.481 -0.0153  0.2767  0.1396
 9304W        W29584   5.108   5.225  13.894  0.1476  0.1381  0.0663
 9305W        W29585   0.884   3.944  14.557  0.1198 -0.2379 -0.0854
 9306W        W29586   8.390   8.003   4.759  0.1039 -0.1370  0.1362
 9307W        W29587  15.486   2.819  15.726 -0.3429  0.0131  0.0842
 9308W        W29588  10.664   3.042  15.084  0.0750 -0.0669 -0.2979
 9309W        W29589  13.698   6.396  14.689 -0.0113  0.1117  0.0931
 9310W        W29590  10.484   8.690  13.040  0.0764  0.1453  0.0283
 9311W        W29591   1.713  15.150  15.610  0.0209 -0.0739 -0.1077
 9312W        W29592   7.927  13.183   3.358  0.0714  0.0729  0.1075
 9313W        W29593  16.317  16.575  14.868  0.0221  0.2405 -0.0494
 9314W        W29594  16.796   3.993   2.562  0.1294 -0.0760  0.1052
 9315W        W29595   2.436   6.928  12.679 -0.1355 -0.0359  0.1616
 9316W        W29596   3.924   9.391  14.745 -0.2313 -0.0723  0.2083
 9317W        W29597   2.639  15.489  15.705  0.2228 -0.2977 -0.0948
 9318W        W29598  12.812   9.042   1.033 -0.1222 -0.0919 -0.0482
 9319W        W29599   2.320   9.212  13.117 -0.1133 -0.0232  0.0823
 9320W        W29600   7.789  10.637   4.672 -0.0123 -0.3301 -0.1617
 9321W        W29601  12.520   0.664  15.749 -0.1420  0.0689 -0.2713
 9322W        W29602  14.758   8.179   1.543  0.0735 -0.2051  0.0473
 9323W        W29603  14.291   0.833   3.729  0.0854 -0.1764  0.1761
 9324W        W29604  12.486   9.748   4.327  0.2539 -0.0956  0.0523
 9325W        W29605   8.253   6.891  16.635  0.1469 -0.2690  0.0778
 9326W        W29606   8.281  17.444   2.692  0.1628 -0.2194 -0.0883
 9327W        W29607   1.267   4.434   3.610  0.1499 -0.2848 -0.2083
 9328W        W29608   8.138  14.230  13.852  0.1109  0.1342 -0.0685
 9329W        W29609   9.717   7.453  15.636  0.2144 -0.2304  0.2270
 9330W        W29610  16.969   8.948  16.359 -0.2545  0.0107  0.1595
 9331W        W29611   8.738  17.354   0.858  0.0609  0.0589  0.1756
 9332W        W29612   8.474   6.584  16.155 -0.0164  0.0902  0.4287
 9333W        W29613   8.237   9.333  13.770  0.1837  0.1169 -0.2178
 9334W        W29614   7.235  14.603   1.864 -0.1670 -0.3855 -0.1680
 9335W        W29615  13.749  17.071   0.169  0.3622  0.4370 -0.0083
 9336W        W29616  15.772   4.720  16.794 -0.0579 -0.0473 -0.1771
 9337W        W29617  10.246   6.520  15.156 -0.0152 -0.0525 -0.4554
 9338W        W29618  11.202   6.424   3.816  0.1361  0.1301 -0.1436
 9339W        W29619  11.616   0.093   1.491  0.1546 -0.2061  0.4490
 9340W        W29620  10.230  15.201   0.872 -0.1525  0.1320 -0.2068
 9341W        W29621   1.841  16.555   4.302 -0.2192 -0.3528 -0.0631
 9342W        W29622  11.263   7.997  15.242  0.1410  0.2205  0.1777
 9343W        W29623  11.092   1.672  13.038 -0.1508  0.0822 -0.0060
 9344W        W29624  17.595   7.189  14.405 -0.3202 -0.2225  0.1074
 9345W        W29625   8.879   0.670  11.609 -0.2513 -0.2200  0.0126
 9346W        W29626   7.232  13.817  15.076  0.2303  0.0051  0.0263
 9347W        W29627   4.818   0.183  15.820  0.0074  0.2321 -0.0019
 9348W        W29628  13.711   8.165   4.538 -0.1170 -0.0008  0.0534
 9349W        W29629   0.557   9.353   2.753  0.2891  0.3377  0.1250
 9350W        W29630   8.522   7.342  14.852  0.0689  0.2245  0.1100
 9351W        W29631  15.789   4.279  12.136 -0.2731 -0.0962 -0.0597
 9352W        W29632  14.023   7.681   0.340 -0.0973 -0.1653 -0.0856
 9353W        W29633   3.662   4.658   2.406  0.2341 -0.0600  0.3994
 9354W        W29634   5.783  16.487   1.026 -0.1795 -0.2547 -0.0440
 9355W        W29635   3.873   1.624  16.031 -0.0315 -0.1657 -0.0382
 9356W        W29636  16.443  11.216   2.369  0.1368 -0.2403  0.0722
 9357W        W29637   7.245   7.162  15.482  0.1274 -0.2537  0.0316
 9358W        W29638   9.182   9.126  12.088 -0.0310  0.1054 -0.1091
 9359W        W29639  13.997  10.302  16.283 -0.0308  0.1233  0.1928
 9360W        W29640   2.575   2.445   3.065  0.0247  0.2590  0.1529
 9361W        W29641  14.947  13.123   1.498  0.1353 -0.2448  0.1720
 9362W        W29642  16.925   1.578  16.217 -0.2300  0.2520 -0.0397
 9363W        W29643   4.032   9.285  13.302  0.0066 -0.0243 -0.0285
 9364W        W29644   4.483   2.389  16.935 -0.1605  0.2946  0.2836
 9365W        W29645  15.664   5.508   0.209  0.1267  0.1941 -0.1500
 9366W        W29646   8.488  11.932   3.120 -0.1343  0.0699 -0.1320
 9367W        W29647   9.401  15.702  16.006  0.2337  0.1075  0.1287
 9368W        W29648  13.278   8.305   1.920  0.1864 -0.2103 -0.0608
 9369W        W29649  13.081   8.270  15.756 -0.0719  0.2691 -0.1813
 9370W        W29650   2.524  11.232  16.039  0.1005 -0.0493  0.0217
 9371W        W29651   2.205   8.249   3.479  0.0691  0.0868 -0.1319
 9372W        W29652   7.053   4.835   3.151  0.1075  0.0983 -0.2744
 9373W        W29653  17.115  16.295   4.236 -0.1335  0.0009  0.2382
 9374W        W29654  11.010  16.816  13.710 -0.1123 -0.1201 -0.1233
 9375W        W29655  10.451   1.875   2.704  0.1201 -0.4690  0.0431
 9376W        W29656   1.921  15.463  14.588  0.0332 -0.1443  0.4386
 9377W        W29657   3.178   3.117   3.953 -0.0557  0.0832 -0.1398
 9378W        W29658   4.685   8.973  14.519  0.0240  0.1626 -0.3255
 9379W        W29659   4.129   5.079  15.536 -0.2880 -0.0674  0.2000
 9380W        W29660   8.959   5.966  14.831 -0.0473  0.0057 -0.0162
 9381W        W29661   1.880   3.701  14.839  0.1479  0.0918 -0.0852
 9382W        W29662  13.323   7.173   3.365 -0.0496 -0.0461  0.1289
 9383W        W29663  17.197  10.421  13.921 -0.1618  0.0427 -0.1418
 9384W        W29664   3.124   2.543  12.311 -0.2666  0.1633 -0.0827
 9385W        W29665   2.942   2.718   4.274 -0.5234 -0.0018 -0.2871
 9386W        W29666  11.637  14.583   4.888  0.2948  0.0944  0.0966
 9387W        W29667  15.146   5.381   3.263  0.1502  0.0082  0.1293
 9388W        W29668   0.392  16.820   0.192  0.2830  0.0001 -0.0268
 9389W        W29669   4.941  13.747   4.254 -0.2191  0.2120 -0.0879
 9390W        W29670  14.474  11.089  13.872 -0.3037  0.0572 -0.0966
 9391W        W29671   1.955   3.393   4.836  0.1439 -0.4202  0.2723
 9392W        W29672   8.586  16.657   4.088  0.0333  0.0442 -0.1047
 9393W        W29673  14.897  17.091  16.961 -0.0688  0.2272 -0.1147
 9394W        W29674   1.098  12.384   5.192  0.1493 -0.0274  0.1434
 9395W        W29675  12.483  10.708  12.577 -0.1138  0.1695  0.1677
 9396W        W29676  11.693   9.014   5.206  0.0859  0.1839 -0.0630
 9397W        W29677   8.125  11.428   4.678  0.0256 -0.2499 -0.0901
 9398W        W29678   2.337  14.758  13.483  0.0639 -0.1465 -0.1445
 9399W        W29679   2.436  14.334   1.340 -0.1613  0.1221 -0.1295
 9400W        W29680  17.414   6.989   4.524  0.1390 -0.1161 -0.2264
 9401W        W29681   7.327   0.211   4.879  0.0337  0.4036  0.1504
 9402W        W29682   3.642   7.261   3.805  0.0735  0.1462 -0.0715
 9403W        W29683  17.301   1.880  16.585 -0.0713 -0.1302 -0.2463
 9404W        W29684   9.483   5.684   2.014 -0.0200 -0.0624  0.0057
 9405W        W29685   6.618   1.784   1.301  0.0904 -0.2892  0.1326
 9406W        W29686   5.380   3.141  15.489 -0.0776 -0.0682 -0.0761
 9407W        W29687  10.131   3.053   2.593  0.0690 -0.2123  0.1262
 9408W        W29688   1.790  13.964   2.681  0.1319  0.1370  0.0089
 9409W        W29689  11.678  12.679   1.154 -0.0556 -0.0226 -0.1436
 9410W        W29690   0.382   3.197   0.527  0.0185  0.0463 -0.0568
 9411W        W29691   6.034   5.599   1.718 -0.0421  0.0367  0.0101
 9412W        W29692  16.953   4.128  14.144  0.3936 -0.1522  0.1955
 9413W        W29693   4.937   4.543  15.541  0.0546 -0.1528  0.0529
 9414W        W29694  15.044   2.570  15.351  0.0441  0.4691 -0.1628
 9415W        W29695  14.821   8.421   4.333  0.1886  0.0010  0.0296
 9416W        W29696  12.719   7.431   0.565 -0.1416  0.2103 -0.0504
 9417W        W29697   7.144  10.112  12.978 -0.2723  0.2354  0.0079
 9418W        W29698   1.414  16.879   3.056  0.1409  0.0274 -0.0327
 9419W        W29699  17.418   9.649   1.703 -0.0572 -0.0409 -0.1583
 9420W        W29700  12.270   6.940  14.308  0.2746  0.2278  0.1304
 9421W        W29701   9.029  12.967   2.825  0.0950 -0.1146 -0.2225
 9422W        W29702  16.949  15.243  15.987  0.3094 -0.0434 -0.2996
 9423W        W29703  14.593  13.361   3.458 -0.0979 -0.0808  0.0850
 9424W        W29704  13.237  11.650  16.196 -0.0313  0.1128  0.0695
 9425W        W29705  17.706  11.304   3.362  0.1991  0.3386 -0.0698
 9426W        W29706  17.658  12.941   0.106 -0.0993  0.1897 -0.0039
 9427W        W29707   2.146   6.209   2.828  0.1058 -0.1967 -0.2038
 9428W        W29708  14.731   2.366  13.539  0.2863 -0.1512  0.1266
 9429W        W29709  16.581   8.973   1.262 -0.0776  0.0541 -0.2415
 9430W        W29710  12.853   2.370   1.965  0.0815  0.0567 -0.1219
 9431W        W29711  15.602  17.322  12.706 -0.0055 -0.0114 -0.0858
 9432W        W29712   4.947   2.529  12.358  0.0637  0.2090 -0.0140
 9433W        W29713  11.094   4.725   3.413  0.2312 -0.1201 -0.1949
 9434W        W29714  12.310   4.885  16.891  0.1164 -0.3532 -0.2021
 9435W        W29715  15.110   5.333  12.702 -0.1500  0.0804  0.1601
 9436W        W29716   9.478  11.133   3.352  0.0790  0.0293 -0.0847
 9437W        W29717  13.900   4.846  12.323 -0.0292 -0.2410  0.0112
 9438W        W29718   0.924  13.040  12.503 -0.1558  0.0246 -0.0053
 9439W        W29719   9.050   2.948  11.776  0.3071 -0.1377  0.1782
 9440W        W29720   9.004   5.348  16.742 -0.0729  0.1405 -0.0506
 9441W        W29721   0.645   1.273   3.128 -0.3080  0.2705 -0.2112
 9442W        W29722   1.266   9.819  15.444 -0.4411  0.1758  0.1451
 9443W        W29723  13.793  14.893  12.991 -0.0031  0.1328  0.2871
 9444W        W29724  13.443  12.345  16.723 -0.0537  0.1444 -0.0106
 9445W        W29725   3.061   1.125   4.692 -0.4079 -0.2586 -0.0758
 9446W        W29726  17.297  16.226   3.747  0.1529  0.0915 -0.4148
 9447W        W29727   5.366   4.095   3.501 -0.0046  0.0392  0.0942
 9448W        W29728  14.182  16.996  14.185 -0.1994 -0.0377 -0.2251
 9449W        W29729   4.293   1.286   4.594  0.0583 -0.0134 -0.0393
 9450W        W29730   5.795  13.567   1.382 -0.1506  0.0270 -0.1069
 9451W        W29731   7.382   1.373   3.972 -0.0059 -0.1809 -0.1323
 9452W        W29732  11.820   1.223  16.089 -0.0986 -0.1726 -0.2678
 9453W        W29733  11.842   0.368  12.311 -0.0584 -0.0149  0.0135
 9454W        W29734   2.698   8.837   3.805 -0.3586  0.1798  0.1807
 9455W        W29735  14.188   7.606   3.278 -0.1539  0.1195 -0.2940
 9456W        W29736   8.137   7.279  17.006 -0.1677  0.0531  0.2358
 9457W        W29737  11.275   3.571  14.300  0.1649 -0.3057  0.0039
 9458W        W29738   2.928  11.258  15.764 -0.1562 -0.2799 -0.0214
 9459W        W29739   0.821   8.285   1.703 -0.0028  0.0173  0.0334
 9460W        W29740  14.172   4.097  13.843  0.0279  0.2503  0.0887
 9461W        W29741   1.079  15.259   0.806 -0.4180  0.2459 -0.1567
 9462W        W29742  15.366   3.547   4.424 -0.4726 -0.0383  0.0986
 9463W        W29743   1.054   4.378   4.697  0.1350 -0.0056  0.1718
 9464W        W29744   1.424   0.545   4.433  0.0605 -0.2812 -0.0266
 9465W        W29745   9.304  14.729   0.891  0.1179 -0.2206 -0.0854
 9466W        W29746  12.604   6.610   3.497  0.1017 -0.2506 -0.0822
 9467W        W29747  14.747  16.121  15.401  0.1670 -0.0144 -0.1286
 9468W        W29748   3.208  10.723   0.490 -0.1107  0.2168 -0.2033
 9469W        W29749   5.450  11.506   3.893 -0.2064  0.0733 -0.0655
 9470W        W29750   9.442   1.443  12.699  0.0875 -0.3523 -0.0893
 9471W        W29751  14.057   1.200  14.810  0.2245 -0.0120 -0.0889
 9472W        W29752  11.723   3.863  15.119 -0.2924 -0.1299 -0.0020
 9473W        W29753  16.517   7.291   2.259  0.1075 -0.0930  0.0252
 9474W        W29754  15.817  14.340   2.376  0.1827 -0.1241  0.0513
 9475W        W29755  14.992   5.908   1.981 -0.3864  0.1000  0.2319
 9476W        W29756   3.813  10.453   1.262  0.1181  0.1364  0.1213
 9477W        W29757   8.282   1.976  11.911 -0.0632 -0.1065 -0.2701
 9478W        W29758   4.124   4.068  12.966 -0.0698  0.0877  0.5505
 9479W        W29759   7.608  16.580  12.157  0.2223 -0.0330  0.1348
 9480W        W29760  17.458  14.120  16.586 -0.0174  0.2789 -0.3117
 9481W        W29761  10.071  17.342  12.811 -0.1624 -0.2727  0.0264
 9482W        W29762  13.290   3.302   0.434 -0.1359  0.1756 -0.1385
 9483W        W29763  13.338  17.107   5.117  0.2393 -0.0067  0.0939
 9484W        W29764   5.451   2.748  13.917  0.1912  0.3889 -0.0185
 9485W        W29765   0.334   8.756  15.037 -0.0509 -0.2398  0.0152
 9486W        W29766  16.401   4.676  15.513 -0.3503 -0.2057  0.0082
 9487W        W29767   6.473   8.806   0.540 -0.1658  0.1741 -0.0353
 9488W        W29768  15.320  17.020  16.348  0.0197  0.0791  0.1524
 9489W        W29769   7.929  10.610   1.479  0.0742 -0.1517 -0.0970
 9490W        W29770   8.739  12.529  13.707  0.0424  0.0796 -0.2152
 9491W        W29771  16.499  14.092   3.853 -0.2858  0.1594 -0.1211
 9492W        W29772  17.530   1.321   4.611  0.1918 -0.0292  0.1001
 9493W        W29773   5.919  12.814  15.422 -0.0289  0.0288 -0.3033
 9494W        W29774   2.070  12.866  13.364 -0.0581 -0.0111 -0.3217
 9495W        W29775  11.221   2.002  12.168 -0.2317  0.1909  0.0404
 9496W        W29776  15.775   2.742   3.219  0.0858  0.2268  0.3309
 9497W        W29777   6.325   9.523  12.921  0.1041 -0.0051 -0.0257
 9498W        W29778  15.898   4.046  16.529  0.1235  0.1809 -0.1792
 9499W        W29779  14.783   2.842   4.683  0.2635  0.0387  0.4405
 9500W        W29780  10.256   2.074   0.475  0.1657  0.0754  0.0674
 9501W        W29781  12.020   1.291   3.894 -0.2586 -0.0018  0.0522
 9502W        W29782  12.497   6.281   1.034  0.0236  0.1645  0.0150
 9503W        W29783  10.442   5.452   0.821 -0.0529  0.0080 -0.0481
 9504W        W29784  15.789  15.150  12.588 -0.1375 -0.0515  0.0843
 9505W        W29785  10.451  15.414  15.813 -0.2760  0.0402 -0.0071
 9506W        W29786  16.955   9.063   4.717 -0.1921 -0.0091 -0.0020
 9507W        W29787   5.675   9.176  13.872 -0.0771 -0.0119  0.3030
 9508W        W29788   7.073  12.654  13.464 -0.0240  0.2515 -0.1163
 9509W        W29789  16.623   3.662   4.248  0.2629  0.3162 -0.0139
 9510W        W29790  14.640   7.384  12.136 -0.1839  0.0002  0.1543
 9511W        W29791  17.249   2.814   2.853 -0.4279 -0.3147  0.0842
 9512W        W29792   5.847  15.528   2.676  0.2045 -0.1002  0.0778
 9513W        W29793   2.014   7.038  12.437 -0.0177  0.0413  0.2618
 9514W        W29794   1.949  14.237  13.781 -0.1146  0.0225  0.3384
 9515W        W29795   8.994   0.432   4.957 -0.0704 -0.0555  0.1333
 9516W        W29796  11.983  15.265   2.190 -0.0741  0.0380  0.0024
 9517W        W29797   2.628   6.665   3.378  0.1487  0.3504 -0.0570
 9518W        W29798   7.304   5.974  15.541 -0.1928  0.1352  0.0053
 9519W        W29799  11.726  15.558  16.479  0.1389 -0.1445  0.1670
 9520W        W29800  13.671   7.146   2.358  0.1000 -0.1003  0.2209
 9521W        W29801   7.750   6.553   3.463 -0.1249 -0.1028 -0.0192
 9522W        W29802   5.952  11.354   1.573 -0.0997  0.2532  0.0756
 9523W        W29803  12.749  16.384  12.729  0.1056 -0.2035 -0.4480
 9524W        W29804  15.875   8.520  14.744  0.0299 -0.1498  0.0769
 9525W        W29805   4.608   8.823   2.128 -0.0758  0.0116 -0.1655
 9526W        W29806   5.575  13.933  15.655  0.0959  0.2470 -0.0524
 9527W        W29807   7.380   9.456  16.480  0.0942 -0.3289 -0.0616
 9528W        W29808   8.130   9.213  16.257 -0.0003 -0.0504  0.0546
 9529W        W29809   5.403  13.889   1.871  0.1840 -0.0866  0.0476
 9530W        W29810   2.655  12.614  15.617  0.1476 -0.1708  0.0029
 9531W        W29811   6.655  14.618  16.175 -0.1431 -0.3192 -0.3075
 9532W        W29812   7.096  13.151  16.748  0.1401  0.1757  0.2349
 9533W        W29813   3.355   2.395   0.036  0.0869  0.2244  0.1004
 9534W        W29814   8.438   5.423  15.982 -0.1810  0.2893  0.1836
 9535W        W29815   9.629   3.585  12.222  0.3041  0.1244  0.2325
 9536W        W29816   7.374  14.374   4.038  0.2990 -0.4137 -0.1360
 9537W        W29817  16.118  12.964  16.336 -0.2657  0.0460 -0.0417
 9538W        W29818  11.915   3.842  13.486  0.0305 -0.0560 -0.1070
 9539W        W29819   3.940   5.519  15.758  0.2262 -0.0558  0.1173
 9540W        W29820  11.602  14.457  12.044  0.0141  0.2074 -0.1380
 9541W        W29821   8.305   8.822   0.152  0.2554  0.1844 -0.1762
 9542W        W29822   0.302  11.161  16.377 -0.0980  0.0593  0.1964
 9543W        W29823   4.833   3.041  14.632  0.0265  0.0179 -0.1705
 9544W        W29824  16.003   5.016   0.550 -0.2670  0.0492 -0.0357
 9545W        W29825   9.006  15.969   1.534 -0.0083 -0.1061 -0.1433
 9546W        W29826  10.874   2.704  16.320  0.0609  0.0811 -0.1962
 9547W        W29827  16.418   9.648   4.610  0.1994 -0.1798 -0.0863
 9548W        W29828  16.106   0.760  16.749  0.1742  0.2953 -0.1024
 9549W        W29829   9.906  15.939  12.289 -0.1397  0.0585 -0.1806
 9550W        W29830   5.686  13.131  12.954 -0.3021 -0.0874  0.2090
 9551W        W29831   9.746   4.568  12.322  0.0637 -0.3541 -0.0870
 9552W        W29832   8.640   4.079   2.855 -0.3665  0.0410  0.3800
 9553W        W29833  17.367   0.495   1.290  0.0959 -0.3691 -0.3111
 9554W        W29834   7.263  10.706  16.904  0.4032 -0.0499 -0.0648
 9555W        W29835  11.220   3.114   0.448  0.1676 -0.1994 -0.0162
 9556W        W29836  17.607  17.284  16.419 -0.2666  0.0997 -0.0592
 9557W        W29837   0.969   0.210   0.079 -0.0603  0.0032 -0.3179
 9558W        W29838  10.913   2.370  15.967 -0.0378  0.1453  0.1029
 9559W        W29839   9.674  13.627   2.267 -0.1228 -0.3490 -0.5263
 9560W        W29840  15.596   4.975  16.365  0.0940 -0.0451 -0.0918
 9561W        W29841   4.656   9.461  14.107  0.2607  0.1004 -0.1092
 9562W        W29842  13.424  17.296   0.445  0.1428  0.1317  0.1806
 9563W        W29843  11.842   6.677   4.292  0.2298 -0.0302  0.1762
 9564W        W29844   5.795   9.347  14.852 -0.0195  0.1257  0.2517
 9565W        W29845   1.726   0.031  15.266 -0.2884  0.1218 -0.3747
 9566W        W29846   3.099  12.772  15.739 -0.0283 -0.1633 -0.2162
 9567W        W29847   8.489   5.549  16.624 -0.0317  0.0541 -0.1399
 9568W        W29848   7.677   8.281   2.899  0.2603 -0.0983 -0.3922
 9569W        W29849   9.088   8.625  12.137 -0.0918  0.3738  0.0152
 9570W        W29850   9.419   4.174  13.094 -0.0701  0.2085  0.3312
 9571W        W29851   9.921   7.921  15.762 -0.1908  0.0940 -0.0135
 9572W        W29852  11.650  13.256   4.574  0.2102 -0.1097  0.0626
 9573W        W29853   3.397   3.504  16.417  0.3303  0.0821 -0.1062
 9574W        W29854   5.743   3.924   4.270 -0.2031 -0.2171  0.1253
 9575W        W29855   6.558  15.947   2.844 -0.0846 -0.0425 -0.3403
 9576W        W29856   2.904  17.208  14.695 -0.1289 -0.1493  0.0022
 9577W        W29857   0.233   8.956  12.940 -0.1232  0.0051 -0.0115
 9578W        W29858   0.943   6.886  12.428 -0.0887 -0.2260 -0.2601
 9579W        W29859  17.594   7.469  14.907 -0.0262  0.0060  0.1226
 9580W        W29860   6.479  13.813  11.973 -0.0159 -0.2939 -0.1527
 9581W        W29861  14.265   7.468  14.800 -0.3620  0.1120  0.1358
 9582W        W29862  17.114   2.584  15.818 -0.0799 -0.1408 -0.0476
 9583W        W29863   3.992  11.660   1.599  0.0772  0.1728 -0.1292
 9584W        W29864  10.115  17.566  16.176 -0.2531  0.0928  0.0110
 9585W        W29865  12.744   2.258   1.462  0.0224 -0.1654 -0.2359
 9586W        W29866   1.365  17.677   3.647  0.0109  0.0435 -0.0003
 9587W        W29867   4.427   6.742   1.513  0.0319 -0.1782  0.0504
 9588W        W29868  15.779   6.480   3.632 -0.0894 -0.0043  0.1250
 9589W        W29869   1.528  16.178   2.775 -0.1558 -0.1388 -0.2481
 9590W        W29870   3.899   6.431   2.720  0.2286 -0.1243  0.0257
 9591W        W29871  12.200   9.549   3.944 -0.1396 -0.1146  0.1548
 9592W        W29872   4.684   8.058   4.093  0.0163 -0.0198  0.2843
 9593W        W29873  11.332  11.942   0.450  0.0143 -0.3193 -0.1263
 9594W        W29874  11.632   1.824  16.194 -0.3541  0.0736 -0.2677
 9595W        W29875   4.320  15.604   1.847  0.2469  0.2305 -0.1436
 9596W        W29876   6.841   3.739  16.325 -0.1332  0.1209 -0.2901
 9597W        W29877  15.874  15.056   2.182 -0.0495  0.1625  0.1622
 9598W        W29878   5.993  15.542  13.558 -0.0243  0.2962 -0.0715
 9599W        W29879   6.064   8.021   2.192 -0.1574 -0.2183  0.3573
 9600W        W29880   8.743   1.576   3.285  0.0219  0.1334  0.1329
 9601W        W29881   3.598  17.165   4.085 -0.0043 -0.1184 -0.0913
 9602W        W29882   1.435   3.777   5.917 -0.1037  0.2209 -0.1016
 9603W        W29883  17.492   3.094  15.318  0.3074 -0.0603  0.0871
 9604W        W29884  11.815   7.715  15.712 -0.0937  0.0966  0.0129
 9605W        W29885  15.708  16.214  13.490  0.1380 -0.0277 -0.0032
 9606W        W29886  15.169   4.629  15.829 -0.2215  0.2267 -0.1336
 9607W        W29887   9.458   6.145  14.681  0.1227 -0.0156 -0.0024
 9608W        W29888   2.822   8.091   0.515  0.0641  0.2686  0.2465
 9609W        W29889  17.275   8.328   1.292  0.1249  0.0650  0.2446
 9610W        W29890   5.521  17.257   2.454 -0.0829 -0.0805  0.1937
 9611W        W29891   7.063  14.729   0.862  0.0446  0.2577 -0.3371
 9612W        W29892   0.200   7.327   2.718  0.0853 -0.5214  0.0529
 9613W        W29893   6.424   4.816   4.228 -0.0977  0.2710 -0.1530
 9614W        W29894  13.829   1.270  13.404  0.1318  0.1519  0.0134
 9615W        W29895   1.315   4.532  15.149  0.2860 -0.2430 -0.0138
 9616W        W29896  10.375   8.724  16.877 -0.1301 -0.0183  0.3073
 9617W        W29897  14.421   1.331   1.292  0.1610 -0.3079  0.0308
 9618W        W29898  11.615   9.202   1.326  0.2929 -0.0501  0.2421
 9619W        W29899   6.493  15.033   2.460  0.2026  0.1956 -0.0340
 9620W        W29900  16.166  16.333   2.165 -0.1467 -0.3633  0.3907
 9621W        W29901   3.040  14.615  15.378 -0.0597  0.1160  0.1618
 9622W        W29902  17.724  17.086  13.946 -0.3020  0.3273  0.2133
 9623W        W29903  14.716   8.701  13.990  0.0700 -0.2203 -0.1416
 9624W        W29904  13.554   7.507   0.101  0.0760 -0.1201  0.2979
 9625W        W29905   6.494  16.796  16.404  0.4774  0.3610  0.0069
 9626W        W29906   9.444  11.749   1.986 -0.0190  0.1299  0.0637
 9627W        W29907  11.982  14.909   4.823 -0.0136  0.0939 -0.0978
 9628W        W29908  12.396   7.466   2.899  0.1613 -0.1346  0.1577
 9629W        W29909   3.468  16.826  12.972 -0.0548 -0.0427 -0.1263
 9630W        W29910  12.339   3.919  13.943  0.0446  0.0126  0.1226
 9631W        W29911  16.935   5.739  13.182 -0.0680 -0.2868 -0.0095
 9632W        W29912   7.882  12.565  16.367  0.0118  0.2254  0.1572
 9633W        W29913  17.197  10.708  13.136 -0.2277 -0.0917  0.0922
 9634W        W29914   9.488   3.196   2.066  0.3833 -0.1324 -0.0779
 9635W        W29915   6.244  13.756   2.919  0.1457 -0.1247  0.0102
 9636W        W29916   6.670   2.338   1.158 -0.0639 -0.0432  0.0578
 9637W        W29917   5.937  13.998  13.918 -0.3086 -0.1484  0.2194
 9638W        W29918   6.733   1.502   2.340  0.0140  0.0192 -0.3109
 9639W        W29919  13.207  11.153  14.732  0.0345  0.1981 -0.1138
 9640W        W29920   0.399  17.306   4.881  0.0462 -0.0320 -0.0999
 9641W        W29921  11.824   4.227   0.391  0.3569 -0.0407  0.3129
 9642W        W29922  11.499   1.983   1.293 -0.0702  0.0166 -0.1212
 9643W        W29923   6.200   9.076  13.836  0.0263 -0.2876 -0.0008
 9644W        W29924  15.548  10.235   4.057 -0.0311  0.1041 -0.1346
 9645W        W29925   5.173  16.683   3.952  0.0229  0.0939  0.2275
 9646W        W29926  16.444  15.680   0.288  0.4840  0.3371  0.3681
 9647W        W29927  17.137  11.393  16.828  0.1124 -0.0625 -0.2744
 9648W        W29928   6.168  15.894  12.715 -0.2074  0.0311  0.0087
 9649W        W29929  11.338   8.765   3.087 -0.0301 -0.4189  0.0543
 9650W        W29930   8.126   0.237   2.247  0.1876 -0.3105  0.1637
 9651W        W29931   5.673   6.302   3.740 -0.0899  0.0330  0.0482
 9652W        W29932   0.483   9.796  15.041  0.1189  0.2681  0.0432
 9653W        W29933   1.415   5.171  16.975  0.0722  0.1886  0.2596
 9654W        W29934   5.963  14.007   0.259 -0.0014 -0.0898  0.2001
 9655W        W29935  12.861   5.257  13.583  0.0223 -0.1285  0.0394
 9656W        W29936   5.838  11.689  13.704  0.0694  0.1943  0.2158
 9657W        W29937   5.900   7.882   1.530 -0.0884 -0.2057  0.0249
 9658W        W29938   6.613  12.837   0.566  0.1560 -0.4219  0.1849
 9659W        W29939   8.247   6.784  14.030  0.0736  0.0468 -0.2003
 9660W        W29940   2.588   4.663   2.879  0.3785 -0.0414  0.0248
 9661W        W29941   7.467  12.237   1.477  0.0718 -0.0409  0.0040
 9662W        W29942  14.194  15.078   4.947  0.1233 -0.1167 -0.0793
 9663W        W29943   6.813   4.064  15.430  0.1076  0.0833  0.3507
 9664W        W29944   9.068   6.835  16.736 -0.0528  0.2008 -0.2101
 9665W        W29945   6.816   5.949   4.358  0.0885  0.0018 -0.3776
 9666W        W29946   7.933  13.638   1.603 -0.0257  0.1619 -0.0430
 9667W        W29947   9.052   7.286   5.000  0.0349 -0.2642  0.0733
 9668W        W29948   8.783   9.591   2.680  0.0913 -0.2401 -0.0076
 9669W        W29949  15.437   2.601   3.988  0.0181  0.1457  0.2670
 9670W        W29950  15.021  11.192  12.945 -0.0326  0.2338 -0.2946
 9671W        W29951   1.179  10.168  14.542  0.1057  0.0999 -0.0531
 9672W        W29952  14.659   4.122   1.592 -0.2746 -0.0450 -0.3098
 9673W        W29953   7.587   3.228   0.364  0.0234 -0.2062  0.0723
 9674W        W29954   8.480   1.091   3.133 -0.1485 -0.0948 -0.3043
 9675W        W29955  13.629  11.337   2.998  0.2693  0.1467  0.0988
 9676W        W29956  10.621  14.603  12.192  0.3501 -0.0125 -0.1068
 9677W        W29957   1.509   6.984   2.011  0.1067 -0.2128  0.2014
 9678W        W29958  16.029   0.118   4.699  0.1696  0.1013  0.1306
 9679W        W29959   4.793  16.787   1.819  0.2065 -0.0893  0.1151
 9680W        W29960  10.644  12.586  13.999  0.0116 -0.1199 -0.3447
 9681W        W29961  11.299   7.841  15.864 -0.3606 -0.1737 -0.0515
 9682W        W29962   7.384   1.594   0.495 -0.0737 -0.1140  0.1002
 9683W        W29963  17.166  10.494   3.600 -0.2305 -0.0552  0.0050
 9684W        W29964  14.497  17.434   4.050  0.0764 -0.1539  0.1289
 9685W        W29965   1.906  14.204   3.091  0.0943  0.1803 -0.1105
 9686W        W29966   4.047  13.842   3.411 -0.0864  0.4599  0.1256
 9687W        W29967  17.331  11.777   1.932  0.0582 -0.0316  0.0022
 9688W        W29968   3.082   7.299  15.830 -0.0106  0.1294  0.0254
 9689W        W29969  16.027   2.620  13.142  0.2151 -0.1263  0.1558
 9690W        W29970  12.120  10.479  16.497 -0.3133  0.0777  0.1636
 9691W        W29971   9.055   5.884  16.653  0.2988  0.1612  0.0356
 9692W        W29972  10.364   2.894   1.656 -0.1580  0.0509  0.0637
 9693W        W29973   8.177  12.468  14.692 -0.3491 -0.0556 -0.3012
 9694W        W29974  10.287  15.201  14.464  0.0948 -0.0390  0.0798
 9695W        W29975  11.887  15.702   3.133  0.0279  0.0921  0.2177
 9696W        W29976   5.763   6.610  15.092 -0.0569 -0.0561  0.1320
 9697W        W29977   2.218  11.808  15.488  0.0835 -0.1544 -0.0516
 9698W        W29978  16.953   4.504   2.041 -0.2744 -0.0160 -0.0577
 9699W        W29979  17.458   1.953  15.652 -0.1026 -0.0531  0.3382
 9700W        W29980   3.922   3.769  15.921  0.1286 -0.0408 -0.4113
 9701W        W29981  10.955   2.461   2.960 -0.0026 -0.1905  0.1272
 9702W        W29982   0.375   2.600  12.219 -0.0796  0.0319 -0.3010
 9703W        W29983   8.351  10.213   0.552  0.0048  0.0417  0.0757
 9704W        W29984   5.570   2.037  14.622  0.3486  0.1347 -0.0384
 9705W        W29985   7.592   7.837   4.208  0.1501 -0.0229  0.4015
 9706W        W29986  16.165  16.541   3.992  0.1862  0.0118 -0.2546
 9707W        W29987   2.666   1.188  16.493 -0.0582 -0.1526  0.3003
 9708W        W29988  10.970   3.888   4.359 -0.0840 -0.1228 -0.0794
 9709W        W29989   5.896   3.298   4.407  0.1757  0.1486  0.1210
 9710W        W29990  12.177  16.904   2.427 -0.1528 -0.2020 -0.1026
 9711W        W29991   3.753   0.799   1.475  0.2310  0.2168 -0.2334
 9712W        W29992  14.267   7.347   2.614  0.2227  0.1626 -0.1049
 9713W        W29993   4.702   9.885   3.950  0.0954 -0.1135  0.1731
 9714W        W29994   5.749  16.620   1.551  0.1088  0.0584 -0.1809
 9715W        W29995   8.804  12.061  13.945 -0.1966  0.2822  0.4280
 9716W        W29996  12.418   5.768   3.202  0.2194 -0.2090 -0.2268
 9717W        W29997  15.007   8.440  16.542 -0.1836 -0.2453 -0.2958
 9718W        W29998   3.686  11.010  15.348  0.0068 -0.0201  0.1677
 9719W        W29999  10.184  12.626   2.806  0.0592  0.2801 -0.3673
 9720W        W30000  10.024   8.922   4.704  0.0546 -0.1700  0.1291
 9721W        W30001  16.367   2.066   2.732 -0.1661 -0.3782  0.1677
 9722W        W30002   2.367  12.254   2.122  0.1659  0.0647  0.1403
 9723W        W30003   0.995   0.168   3.395 -0.0529 -0.1008 -0.1516
 9724W        W30004   2.655   0.156   2.966 -0.0715 -0.0664 -0.4380
 9725W        W30005   9.940  13.455  13.345  0.2922  0.2121  0.1056
 9726W        W30006  17.372  15.957   3.368 -0.2006 -0.1353  0.0636
 9727W        W30007   6.052  13.638   0.624 -0.1702 -0.0051 -0.0509
 9728W        W30008   8.630   2.587   4.985  0.0946  0.1459 -0.5697
 9729W        W30009   0.465   7.487   3.938 -0.3489 -0.0956 -0.0870
 9730W        W30010  14.515  13.466  12.210 -0.2680 -0.0754  0.1366
 9731W        W30011   9.405  14.712  13.939 -0.2741  0.0488 -0.0657
 9732W        W30012   6.405   3.119   4.577  0.0213  0.3555  0.0109
 9733W        W30013  11.832  17.521  12.499 -0.0357  0.3487  0.3769
 9734W        W30014  15.432  14.322   1.792 -0.2763  0.1419  0.0240
 9735W        W30015  14.214  14.434   2.674  0.0820  0.1501  0.2365
 9736W        W30016  14.856   5.769   0.403 -0.2288  0.1579 -0.0562
 9737W        W30017   4.944   9.352  14.538 -0.0531 -0.0255 -0.3254
 9738W        W30018  13.959  15.435  14.304  0.0380 -0.0934 -0.0059
 9739W        W30019   2.566   2.139  16.572 -0.0219  0.3429  0.0840
 9740W        W30020  14.181  15.258   3.222 -0.3634  0.1343  0.0943
 9741W        W30021   3.056   7.835  15.630  0.1353 -0.0014 -0.1076
 9742W        W30022  13.294  14.765  12.509 -0.1225  0.1839 -0.0660
 9743W        W30023   0.976   5.799  14.944  0.1906  0.1202 -0.0248
 9744W        W30024   3.341   7.082   2.270  0.1484  0.0123 -0.0784
 9745W        W30025  16.485   8.250   0.378 -0.2055 -0.1746 -0.3027
 9746W        W30026  11.795   6.459   2.604 -0.3302 -0.2767 -0.0679
 9747W        W30027   2.925   3.561   3.868  0.2011  0.2315 -0.0855
 9748W        W30028  16.419   7.517   1.578  0.0656  0.0882  0.4193
 9749W        W30029   9.178   6.968   4.609  0.3037 -0.2988  0.0790
 9750W        W30030  11.757   5.156  13.758 -0.1642 -0.1622  0.1348
 9751W        W30031   2.961   7.880   4.277 -0.0424 -0.1090 -0.0838
 9752W        W30032   0.326   3.879  14.332 -0.0743 -0.0549  0.0914
 9753W        W30033   7.645   9.438   2.683 -0.2000 -0.1121 -0.3790
 9754W        W30034  11.416  12.119   3.760 -0.3065 -0.3471 -0.3213
 9755W        W30035   4.612  16.629   3.194 -0.2076 -0.2208  0.0227
 9756W        W30036  16.703   3.068   0.105  0.2983 -0.0517 -0.2849
 9757W        W30037   1.425  10.727   2.167 -0.0448  0.0229 -0.1615
 9758W        W30038   3.751   8.189  14.069  0.0133  0.2627  0.0226
 9759W        W30039  17.097  15.714   1.646 -0.1164  0.4060 -0.3832
 9760W        W30040  10.013   1.879  15.964 -0.1079  0.1309 -0.0155
 9761W        W30041  13.043  10.684  16.094 -0.0860  0.1470  0.1486
 9762W        W30042  13.873   2.202   3.109  0.2136 -0.2911  0.0448
 9763W        W30043   2.081  17.050   3.504 -0.0807 -0.1326 -0.2543
 9764W        W30044   0.715   3.706   1.884  0.3004 -0.0574 -0.4018
 9765W        W30045   1.083   7.868   1.939 -0.2391 -0.0074  0.2882
 9766W        W30046  14.149  13.811  15.866  0.1144 -0.0787  0.1365
 9767W        W30047  12.191   4.163   4.952 -0.0645 -0.0503  0.1765
 9768W        W30048   6.036  15.065   0.586  0.0740 -0.3735  0.4098
 9769W        W30049  14.527   1.421   3.655  0.0365 -0.2233  0.0724
 9770W        W30050   4.442  11.014  14.130  0.3584  0.0056  0.0258
 9771W        W30051   1.884   8.431   3.151  0.5230 -0.0670 -0.2729
 9772W        W30052   6.277   7.471   0.796  0.1751  0.3317  0.0071
 9773W        W30053  13.942   5.071   3.790  0.0601 -0.0115  0.4094
 9774W        W30054   8.606   9.163  16.121 -0.3639 -0.0298  0.2251
 9775W        W30055   9.776   3.848  13.407  0.0625 -0.0670  0.3578
 9776W        W30056  15.533   2.008  12.791  0.1829  0.0724 -0.1692
 9777W        W30057   5.860   7.470   3.460  0.0119 -0.0562 -0.1639
 9778W        W30058   1.008   0.767  13.604 -0.2237  0.1026  0.3002
 9779W        W30059   2.370  10.863   5.131 -0.4801  0.0432 -0.2840
 9780W        W30060   2.637   3.716  12.959 -0.2472 -0.0642 -0.1296
 9781W        W30061   9.254   9.739   2.655 -0.0080  0.1645  0.0647
 9782W        W30062  17.704  15.428   2.595 -0.0768 -0.0713 -0.0745
 9783W        W30063   8.874  11.638   2.908 -0.2329 -0.2251 -0.1985
 9784W        W30064   3.305  10.837   3.520  0.1082 -0.0171 -0.2500
 9785W        W30065   8.475  13.785  13.954 -0.3247  0.0332  0.3351
 9786W        W30066  14.205   5.203   2.099  0.2221  0.2395 -0.1659
 9787W        W30067   2.237   8.789   3.328  0.2830 -0.0143  0.2255
 9788W        W30068   5.116   7.302  16.712 -0.0053  0.1053 -0.1878
 9789W        W30069  13.179   0.019   0.465  0.0143 -0.2164 -0.0003
 9790W        W30070  12.832  10.337   4.561  0.1676 -0.2019  0.0898
 9791W        W30071   4.095  15.913  14.002 -0.0480 -0.2267  0.1462
 9792W        W30072   5.580  17.229   3.631 -0.1639  0.0703  0.0514
 9793W        W30073   0.014   8.103   0.275 -0.0996 -0.1777  0.0076
 9794W        W30074  12.160   6.789  12.267  0.1961  0.0247  0.0388
 9795W        W30075   7.622  10.646  16.541  0.0088 -0.0203  0.4350
 9796W        W30076   8.744   0.865   2.792  0.2541  0.1044  0.2774
 9797W        W30077  15.514   4.291  16.767  0.0598  0.2798  0.2126
 9798W        W30078   5.117  17.316   1.018 -0.1989  0.0529 -0.2985
 9799W        W30079   7.677   4.651  14.620 -0.3468 -0.0591 -0.1666
 9800W        W30080  13.712   9.506   2.665 -0.0621 -0.0281 -0.3091
 9801W        W30081  11.143  15.749  13.175  0.1009 -0.1987 -0.1939
 9802W        W30082   7.422   0.746  12.309  0.0154 -0.0788  0.1710
 9803W        W30083  10.261   6.402  12.478 -0.2789 -0.2078 -0.1444
 9804W        W30084  15.938  12.022   0.195 -0.1852  0.1207  0.1765
 9805W        W30085  16.351   0.290   0.148 -0.3991 -0.0484 -0.0885
 9806W        W30086  10.925  11.126   0.534  0.2162 -0.0333 -0.1552
 9807W        W30087   4.239   5.116  16.430 -0.0169  0.0670 -0.0545
 9808W        W30088  17.280   7.425  13.758 -0.3829  0.0316 -0.1226
 9809W        W30089   9.113   7.458  12.841  0.2723 -0.2272 -0.0614
 9810W        W30090  13.715  10.074   3.684  0.2915  0.4846 -0.2631
 9811W        W30091   6.888   7.949  13.399  0.2047  0.2847  0.1101
 9812W        W30092  15.548   3.668  15.795 -0.1339  0.0990 -0.0129
 9813W        W30093   9.971  15.324   0.441 -0.0816  0.1060  0.1138
 9814W        W30094   0.563  13.598   2.043 -0.0523 -0.1032 -0.1420
 9815W        W30095   0.903   3.774   3.229 -0.1432  0.0309  0.0794
 9816W        W30096  12.400  15.384  13.519  0.3492  0.1644  0.5036
 9817W        W30097  15.054   9.562   2.512  0.0480  0.1474 -0.1328
 9818W        W30098   8.336   3.849  14.305 -0.1808 -0.2985  0.0896
 9819W        W30099  15.083   1.791  14.325  0.1145 -0.1083  0.0568
 9820W        W30100  11.607   7.007  14.298  0.5504 -0.2069 -0.0359
 9821W        W30101   2.007   4.630  14.210 -0.2177 -0.0639 -0.1359
 9822W        W30102   1.555   1.947  12.750  0.1262 -0.1260 -0.2591
 9823W        W30103  11.045   7.483   1.362  0.3410  0.2261  0.0922
 9824W        W30104   1.518  16.697   2.577 -0.1824 -0.0101  0.0497
 9825W        W30105  13.541   6.583  13.088 -0.1993 -0.1853 -0.0577
 9826W        W30106   8.289   4.086  16.373 -0.0031  0.1700  0.1628
 9827W        W30107   1.108  14.300   0.099 -0.1258 -0.1443  0.0681
 9828W        W30108   6.903  15.251  12.530 -0.1888 -0.1606  0.1064
 9829W        W30109  14.583  10.084   4.417 -0.0322 -0.1915 -0.0497
 9830W        W30110   5.179  13.566  12.380  0.1118  0.1700  0.1779
 9831W        W30111   7.670  17.269  13.071 -0.0306 -0.0008  0.3480
 9832W        W30112  13.323   9.367   0.220  0.2150  0.0140 -0.2676
 9833W        W30113  16.885  14.561   3.026 -0.0691 -0.0438  0.2075
 9834W        W30114  17.009  12.904   3.700 -0.0494 -0.1587 -0.1050
 9835W        W30115  17.224  17.367   2.871  0.0826 -0.1515  0.0083
 9836W        W30116  13.185  11.590  14.299 -0.0225  0.0399  0.1391
 9837W        W30117   3.293  14.067   3.995  0.2215 -0.1765 -0.4648
 9838W        W30118  11.504   7.421  13.959 -0.2309 -0.1199 -0.1523
 9839W        W30119   6.881   8.884  13.345 -0.0274  0.0452 -0.0206
 9840W        W30120   0.233   4.407  12.611 -0.1800  0.2804  0.1021
 9841W        W30121   8.793   6.206  16.162 -0.4257 -0.0857 -0.2771
 9842W        W30122  11.341  10.612   4.470  0.1304  0.1276  0.0309
 9843W        W30123   8.954  13.970  13.943  0.2034 -0.2745 -0.1919
 9844W        W30124   2.193  14.501  16.181 -0.2882 -0.0710 -0.1764
 9845W        W30125  16.458  16.644   3.551 -0.0742 -0.2651  0.0267
 9846W        W30126   4.189  14.219   4.557 -0.0095 -0.1528 -0.0323
 9847W        W30127   7.092  14.849  12.848 -0.0910 -0.0900 -0.1901
 9848W        W30128  15.882  10.920   0.683  0.2651  0.1396 -0.2504
 9849W        W30129  13.055  13.286  15.195  0.0105  0.1734 -0.0063
 9850W        W30130   5.433   7.660  16.842 -0.0011 -0.1520 -0.1289
 9851W        W30131  11.342  17.631  16.618 -0.0003 -0.0142  0.2160
 9852W        W30132   0.461   9.619   4.129  0.0861  0.2691  0.3715
 9853W        W30133   9.133   8.567  13.025  0.3184 -0.1879 -0.2124
 9854W        W30134  15.882  17.480  14.540  0.0903  0.0313 -0.0593
 9855W        W30135   9.112  15.565  14.623  0.3012  0.1403  0.3708
 9856W        W30136   9.368   9.943  12.918 -0.2000  0.0624  0.0631
 9857W        W30137  13.528  11.239  16.050 -0.0023  0.2246 -0.1694
 9858W        W30138   7.571   9.334   3.515  0.0436 -0.4460 -0.0424
 9859W        W30139   5.830  16.990  14.351  0.0884 -0.3022  0.3157
 9860W        W30140   9.271   5.032   3.604  0.0208 -0.0462  0.0084
 9861W        W30141  13.024  12.212  13.214  0.0904  0.0931  0.2464
 9862W        W30142   9.328  15.923   5.085  0.0997  0.3309  0.2170
 9863W        W30143   9.289   1.311   1.018 -0.2075 -0.0773 -0.1021
 9864W        W30144  11.840  17.057  12.701 -0.0316 -0.1449 -0.3622
 9865W        W30145   1.143  13.806  14.156 -0.0469 -0.0015  0.0773
 9866W        W30146   4.315   6.985  16.483  0.2003  0.3865 -0.1253
 9867W        W30147  13.152  11.779   2.226  0.0944  0.2348  0.0486
 9868W        W30148   5.589  16.899   4.139  0.0256  0.2192  0.1630
 9869W        W30149   9.734  15.065   2.275  0.2166  0.1795 -0.0262
 9870W        W30150  12.759  11.792  14.573  0.3374  0.2787 -0.1633
 9871W        W30151   9.348   2.632  13.542 -0.0821  0.0224  0.0339
 9872W        W30152  13.072   4.699  13.938 -0.1432 -0.0219 -0.0957
 9873W        W30153   9.063  16.899   0.195  0.2190 -0.5408 -0.0604
 9874W        W30154   2.507   6.068   1.392  0.0197 -0.2749 -0.1304
 9875W        W30155   7.609   0.933  16.738  0.2768 -0.2174 -0.1654
 9876W        W30156  14.934   8.922  12.726  0.0449 -0.0830  0.0449
 9877W        W30157   2.359   4.351   4.065  0.2483 -0.2370  0.0412
 9878W        W30158   9.283   1.720  14.158  0.2326 -0.0177  0.2003
 9879W        W30159   5.384  10.081   3.194  0.1411 -0.2045 -0.5692
 9880W        W30160  15.744  12.331   0.974  0.0405 -0.0837 -0.1297
 9881W        W30161   4.226  15.747  13.265 -0.0823 -0.0117 -0.0677
 9882W        W30162   1.738   6.520   0.516 -0.2270 -0.0932  0.0490
 9883W        W30163  10.639  10.815  13.004  0.2000 -0.0761 -0.3590
 9884W        W30164  11.851   9.607  15.779  0.0698 -0.1562 -0.0930
 9885W        W30165  17.667  14.178   1.363 -0.2617  0.1656 -0.0422
 9886W        W30166   0.518  14.744  14.086 -0.5295 -0.2181  0.0543
 9887W        W30167  10.465   2.298   3.240  0.2134  0.0360  0.3350
 9888W        W30168  15.447  14.486  15.716  0.3579 -0.1146  0.0067
 9889W        W30169   4.400   0.492  15.567  0.0404 -0.1845 -0.3083
 9890W        W30170   7.610   5.617   4.529  0.2260 -0.0266  0.0581
 9891W        W30171   0.901  10.480   5.198  0.0493  0.2740 -0.0360
 9892W        W30172  15.539   2.637   0.867  0.2136  0.0386 -0.0940
 9893W        W30173   5.246  16.341  14.823 -0.1173  0.0095 -0.1447
 9894W        W30174   5.250   5.765  12.532 -0.2260  0.1051  0.0512
 9895W        W30175   9.516  15.132  12.171 -0.0614  0.1115  0.0492
 9896W        W30176  14.564   5.759   0.793 -0.4001  0.0185  0.0870
 9897W        W30177   4.826   8.956   1.196  0.3173  0.1257  0.2107
 9898W        W30178  11.589  13.947  16.931  0.1129  0.1983  0.2554
 9899W        W30179  10.071   4.338   4.428  0.0468 -0.1732 -0.1128
 9900W        W30180  14.336   5.030  16.173 -0.1132  0.5565 -0.2818
 9901W        W30181   8.449   9.607  16.389 -0.0395 -0.1169 -0.0392
 9902W        W30182  14.234   7.058  12.979 -0.2206  0.0246 -0.0385
 9903W        W30183   6.324  16.376  16.121  0.0267  0.2359 -0.1235
 9904W        W30184  11.135   4.398  13.911  0.1056 -0.3770 -0.1150
 9905W        W30185   0.855   4.976  13.677  0.3188  0.2026  0.4849
 9906W        W30186   3.992  10.450   4.130  0.1750 -0.0496  0.1041
 9907W        W30187   8.010   2.915  13.265 -0.1377 -0.3048 -0.0158
 9908W        W30188   2.163  12.889  12.340  0.1598  0.0296 -0.0739
 9909W        W30189  10.701   0.070  14.777 -0.1428 -0.0075 -0.0639
 9910W        W30190   2.145   5.056  14.400  0.1381  0.1241 -0.0955
 9911W        W30191  14.732  10.466   1.641 -0.0551 -0.1669  0.3096
 9912W        W30192   7.687  14.963  14.093 -0.0296  0.4574 -0.1649
 9913W        W30193  16.728  11.093   4.013 -0.0098 -0.0110  0.0786
 9914W        W30194  12.179  12.506   4.778  0.1965  0.2114  0.0708
 9915W        W30195  16.571   2.308  15.732  0.1558 -0.2270  0.1163
 9916W        W30196  11.606   8.168  14.362  0.0078  0.1639 -0.0680
 9917W        W30197  17.403  13.290  12.212 -0.2839 -0.1613 -0.0697
 9918W        W30198   9.759   6.216  12.620  0.5513 -0.2545  0.1326
 9919W        W30199   5.308   2.652   0.091 -0.4861 -0.2221  0.0433
 9920W        W30200  12.087   3.225  12.357 -0.2018 -0.1734 -0.0377
 9921W        W30201   0.482  12.023  15.821 -0.0068 -0.0623  0.2055
 9922W        W30202  17.424  11.746   1.037  0.0433  0.1959 -0.0740
 9923W        W30203   2.877   9.779   1.541  0.0709  0.1472 -0.0562
 9924W        W30204  17.522  11.447   1.596 -0.2223  0.1563 -0.0561
 9925W        W30205   5.714   2.918  15.149 -0.2646  0.1385  0.3998
 9926W        W30206   7.885   9.830  16.991  0.1335 -0.4023 -0.1176
 9927W        W30207   3.872   2.516   5.206 -0.3378 -0.1064  0.0378
 9928W        W30208  10.796   0.236   0.442  0.0956 -0.0673  0.0013
 9929W        W30209   7.415  17.407   0.283 -0.2549  0.4433  0.0567
 9930W        W30210   8.731   8.675  15.380  0.1091  0.2174 -0.0108
 9931W        W30211   4.445  14.984  15.868 -0.0245 -0.2403  0.2052
 9932W        W30212   2.803   2.466   0.022 -0.1817 -0.4550 -0.0161
 9933W        W30213   1.941   4.674  15.866  0.1267  0.0094 -0.2151
 9934W        W30214   0.114  14.609   4.543  0.1421  0.0449 -0.2549
 9935W        W30215   9.437  10.985  12.538 -0.1598  0.1513 -0.0303
 9936W        W30216   7.854   8.796   0.932 -0.2194  0.2110 -0.1326
 9937W        W30217   1.455  11.827  11.318 -0.0783  0.0995 -0.1154
 9938W        W30218   7.988   1.149   1.263  0.1497 -0.2581  0.0494
 9939W        W30219   8.807  12.883  13.353 -0.0858 -0.2597 -0.2609
 9940W        W30220  12.631  15.837  16.301  0.0700 -0.0075  0.0066
 9941W        W30221  17.033  16.819  15.529 -0.1206  0.3284  0.0514
 9942W        W30222   0.719  15.398  14.748 -0.0112  0.0198 -0.0838
 9943W        W30223  10.837   3.625  16.788  0.0862  0.1704 -0.0076
 9944W        W30224  11.436   9.537   3.090  0.0013 -0.0284  0.1806
 9945W        W30225  11.692  13.586   4.930 -0.1626  0.1282  0.1881
 9946W        W30226   3.877   2.997  13.731  0.1175 -0.2809 -0.0309
 9947W        W30227   9.646   7.474  14.329  0.2438  0.1955 -0.1890
 9948W        W30228  16.591   0.208   0.853 -0.1405  0.1276 -0.2302
 9949W        W30229   3.261   1.773  14.317 -0.1238 -0.0718  0.2920
 9950W        W30230   1.491   0.676   5.925 -0.3630  0.1110 -0.1952
 9951W        W30231  13.421  17.523   2.724  0.1043  0.1204  0.1026
 9952W        W30232   7.691  17.633  15.375 -0.3619  0.1713 -0.1729
 9953W        W30233   7.895  16.972   4.563  0.0100 -0.2124 -0.4266
 9954W        W30234   3.414  12.367   1.817  0.3228 -0.2398  0.3558
 9955W        W30235   9.020   3.578  13.984 -0.3185 -0.1790  0.1762
 9956W        W30236   0.623  16.107   0.495 -0.0248 -0.0686  0.0449
 9957W        W30237   3.539  14.133  13.361 -0.0274  0.0059  0.3617
 9958W        W30238   0.047  13.737  16.648 -0.1664 -0.1705  0.2622
 9959W        W30239  14.803  10.110  16.848  0.0566  0.0937  0.3859
 9960W        W30240  17.035   1.325   0.182  0.1316  0.0384  0.3190
 9961W        W30241   1.562  15.045   0.002  0.2970 -0.1411  0.0664
 9962W        W30242  14.692   6.561  15.648 -0.1802  0.2205  0.1250
 9963W        W30243   6.286   2.225  12.431 -0.0959 -0.1380  0.1020
 9964W        W30244  12.248  13.337   1.500 -0.1938  0.1069  0.0498
 9965W        W30245   0.029   5.706  16.561  0.0234  0.0721  0.0951
 9966W        W30246  15.334   5.612   0.578  0.0285 -0.1559 -0.0622
 9967W        W30247  12.125   9.898  16.603 -0.1319  0.0300  0.0302
 9968W        W30248   2.889   5.374   4.867 -0.1318 -0.1453  0.0126
 9969W        W30249  17.267   9.418   2.513 -0.0356 -0.0248  0.1692
 9970W        W30250   4.218  15.625   1.343  0.2286 -0.0164 -0.0279
 9971W        W30251  14.903   3.961   2.815  0.3673 -0.3047 -0.1865
 9972W        W30252  14.623  12.789   0.856 -0.0920  0.0583 -0.3522
 9973W        W30253  16.953  10.134  13.168  0.0646 -0.2685  0.2006
 9974W        W30254   4.465  14.818  15.385  0.0530  0.0038 -0.3737
 9975W        W30255  12.027   8.646  16.664 -0.0554  0.1377 -0.2671
 9976W        W30256   1.441  12.648   1.842  0.2975 -0.1148  0.2198
 9977W        W30257   9.588  12.771   1.249  0.0464  0.0842  0.1009
 9978W        W30258   2.526   9.348   1.797  0.2575  0.0102  0.0567
 9979W        W30259  11.865   3.506   4.418 -0.0198 -0.0558 -0.3792
 9980W        W30260   2.564   1.498   0.303 -0.1089 -0.0548 -0.1426
 9981W        W30261  10.932  14.454   2.219  0.0720  0.2004  0.3748
 9982W        W30262  15.651  10.235   2.157  0.1117  0.4218 -0.0604
 9983W        W30263   7.287  11.345  13.811 -0.0692  0.2197  0.0733
 9984W        W30264   6.217   7.497   4.759 -0.0979 -0.3136 -0.1055
 9985W        W30265  13.069  16.678  14.457 -0.2192 -0.2819 -0.2726
 9986W        W30266  11.660  15.671  13.853 -0.1207 -0.1671 -0.1078
 9987W        W30267  16.336   8.815   4.646  0.0288  0.1903 -0.3352
 9988W        W30268   9.129  12.630   4.789  0.0828  0.2819  0.0390
 9989W        W30269  14.042   3.634   3.166  0.0335 -0.0196  0.0390
 9990W        W30270  11.596  14.879  14.789  0.0748  0.1446 -0.0180
 9991W        W30271   1.736   7.360   4.246  0.0945 -0.0394 -0.1047
 9992W        W30272   6.355  14.519   4.003  0.0316 -0.0677 -0.2594
 9993W        W30273   5.386   6.397   0.373 -0.5020 -0.5528  0.3757
 9994W        W30274   6.005   9.157   4.358  0.2077  0.0027 -0.0434
 9995W        W30275  10.796  12.621   0.016  0.0039 -0.0454  0.0157
 9996W        W30276   4.223   2.678  14.624  0.2941 -0.2891 -0.0291
 9997W        W30277  15.700  15.364   0.128  0.3382  0.0637 -0.1595
 9998W        W30278  10.059   2.508   1.970 -0.1941  0.0776  0.2755
 9999W        W30279   9.825  11.643  16.353 -0.2180 -0.0493  0.0908
10000W        W30280  10.605  12.077  14.184 -0.1384 -0.1054 -0.0836
10001W        W30281   9.976   9.694  16.943 -0.2205 -0.3425  0.1139
10002W        W30282   9.360  11.293  12.940  0.0441  0.0848 -0.0972
10003W        W30283   6.516  14.932  16.820 -0.1345 -0.2643 -0.1970
10004W        W30284  11.183  12.753   3.930  0.1848 -0.1881  0.0135
10005W        W30285  16.808   8.608  15.135 -0.5314  0.0585 -0.1084
10006W        W30286   8.033   6.904   3.131  0.0880  0.0924 -0.0956
10007W        W30287   5.811   2.307   0.200 -0.0210  0.6603 -0.1320
10008W        W30288   2.641   2.013  13.645  0.0406  0.2530  0.1783
10009W        W30289  13.988  12.629   2.724 -0.0618  0.1952  0.0216
10010W        W30290  12.730   0.203  10.602 -0.2870  0.1247 -0.1341
10011W        W30291   0.984  11.036   1.121 -0.0353  0.2006 -0.0068
10012W        W30292   8.731  16.284  15.703  0.3054  0.1017  0.1441
10013W        W30293  13.010   6.841   3.072 -0.2031 -0.1039  0.1511
10014W        W30294  11.844   7.587   1.814 -0.0293  0.1654  0.1245
10015W        W30295   7.570   6.195  15.924 -0.0507  0.0284  0.3205
10016W        W30296   6.954  14.959   2.688  0.2530 -0.1660 -0.2213
10017W        W30297   6.622  10.094   0.310  0.3185 -0.0588 -0.2403
10018W        W30298   2.760  15.009  15.499 -0.2996  0.1151 -0.1193
10019W        W30299   4.238   1.777   3.406 -0.0283  0.1198 -0.1283
10020W        W30300   0.905   0.782  16.956  0.0040  0.0798  0.3162
10021W        W30301  13.421  16.159  15.886  0.0073  0.2511  0.1909
10022W        W30302  12.943  14.057   4.651 -0.1480  0.0640 -0.1721
10023W        W30303  12.459  16.527  15.100 -0.1754 -0.0269  0.1648
10024W        W30304   2.725   2.486   3.579 -0.1907  0.1057  0.1342
10025W        W30305  15.730   1.607   4.232 -0.1913 -0.0605  0.0149
10026W        W30306  14.822   5.348   0.853  0.0852 -0.0366 -0.2070
10027W        W30307   2.703   6.332   2.457 -0.0363  0.0354  0.0669
10028W        W30308  15.561  10.180  12.484  0.1650  0.2088 -0.1717
10029W        W30309   4.625  14.500   1.551  0.3030 -0.4890 -0.0940
10030W        W30310   2.688  12.054   3.441  0.0949  0.2863  0.1326
10031W        W30311   0.848   0.866  14.355  0.4228 -0.0923  0.2231
10032W        W30312   8.445   5.084  14.317  0.2145  0.1601  0.0612
10033W        W30313  16.703   1.869  15.141  0.0482 -0.4233  0.2325
10034W        W30314  15.765  10.677  13.201 -0.3908 -0.2453  0.0156
10035W        W30315   3.327  11.025  16.778  0.0397 -0.4018 -0.0611
10036W        W30316  14.269   3.921  13.246  0.1312  0.0786 -0.0187
10037W        W30317  17.169  12.108  16.077 -0.0271 -0.0808  0.1640
10038W        W30318  13.740   3.963   2.123  0.0331 -0.0029 -0.3181
10039W        W30319  15.361  14.430   0.190  0.0192  0.0066 -0.1074
10040W        W30320   2.990  11.749   0.135  0.0545  0.0366  0.1149
10041W        W30321   3.880   8.820   4.173 -0.0323  0.0177 -0.1240
10042W        W30322  15.490  15.359  15.272 -0.4493 -0.1245 -0.1289
10043W        W30323   7.010   9.819   3.295 -0.1429  0.1161  0.0233
10044W        W30324   6.690  15.879   1.250 -0.2169 -0.1430  0.1536
10045W        W30325   5.686  15.418  16.216 -0.2907 -0.0552 -0.1090
10046W        W30326   4.527  12.915   2.577 -0.1740  0.1701 -0.1378
10047W        W30327  11.516  13.887  12.433 -0.2177 -0.0785 -0.1731
10048W        W30328  15.813  16.648  13.197 -0.1556 -0.0160  0.1271
10049W        W30329  13.605   9.433   2.153 -0.1288  0.0787  0.0794
10050W        W30330   2.547  14.559   4.452  0.2124 -0.1838  0.0737
10051W        W30331  10.208   3.258  13.493 -0.1558 -0.2566  0.1293
10052W        W30332   5.261   9.148  13.598 -0.2031 -0.0038  0.0831
10053W        W30333  14.339   5.079  13.689  0.1266  0.0541  0.2243
10054W        W30334   1.575   8.338   4.080 -0.1197 -0.0112  0.2888
10055W        W30335   5.002   7.733   3.259  0.1157 -0.3969 -0.0289
10056W        W30336  10.551   1.875  14.854 -0.0393 -0.4757  0.3371
10057W        W30337   3.851  13.234   1.488 -0.0019 -0.1599 -0.0304
10058W        W30338   1.047   0.895  12.448  0.1898  0.2130  0.1671
10059W        W30339  12.598   7.686   3.279 -0.2631 -0.2205 -0.1462
10060W        W30340   1.643   2.547   1.427  0.1562 -0.0788  0.4052
10061W        W30341   7.018   0.115   2.979 -0.1602  0.0894  0.1846
10062W        W30342  16.117   1.887  14.324  0.0126  0.1718  0.0212
10063W        W30343   9.255  12.234  13.770 -0.1052  0.1037 -0.0735
10064W        W30344   1.506   5.373   0.982  0.0563  0.0962 -0.0273
10065W        W30345   5.978  14.114   3.210  0.0331 -0.1158  0.1811
10066W        W30346  12.654  15.932   1.001 -0.1137 -0.1105  0.1664
10067W        W30347   1.580   6.650   2.813 -0.0785  0.1156  0.0544
10068W        W30348  10.775   9.296   2.062  0.1781 -0.2023  0.1022
10069W        W30349   4.364  12.778  12.640 -0.0349  0.3565  0.0275
10070W        W30350   7.123   3.775   3.571  0.0219 -0.2116 -0.1319
10071W        W30351  12.627  10.698   1.704 -0.5685  0.2110 -0.2923
10072W        W30352  11.623  12.823   3.155 -0.2606  0.3819 -0.2256
10073W        W30353   1.039   1.373   4.520  0.1356 -0.4713  0.0931
10074W        W30354   7.265  11.683  16.341  0.0608  0.0028  0.2651
10075W        W30355  14.706   9.288  13.290  0.0418  0.2071  0.5175
10076W        W30356  10.097   4.950   1.945  0.1333  0.0051  0.1822
10077W        W30357  14.104   8.685   1.592  0.1116  0.3216  0.1880
10078W        W30358   7.119   5.076  15.286 -0.0707 -0.0003 -0.2175
10079W        W30359  14.700   6.543  14.597  0.0085 -0.1438 -0.0689
10080W        W30360  15.628   4.775   3.785 -0.2977  0.3716  0.1988
10081W        W30361   6.997   2.062   1.487  0.0574 -0.0065 -0.1746
10082W        W30362  11.046   7.546   1.874 -0.1309 -0.1962  0.1971
10083W        W30363   5.000   5.009   4.285 -0.0778  0.1593 -0.2566
10084W        W30364   1.818  14.515   4.003 -0.3131  0.1310  0.0560
10085W        W30365   7.064   7.334  12.380 -0.2791 -0.1299 -0.2024
10086W        W30366   1.756  13.813   4.284 -0.2068 -0.0658 -0.2693
10087W        W30367  11.867   2.361   1.209  0.0573 -0.0103  0.1622
10088W        W30368   2.159   1.355  15.947  0.0703  0.1529 -0.0669
10089W        W30369   1.300  12.686  15.989  0.2454  0.1555  0.2002
10090W        W30370  13.416   5.110   0.457  0.0212 -0.1448  0.1516
10091W        W30371  13.809   4.645   0.672 -0.2997  0.0677  0.1593
10092W        W30372  11.390  17.442   3.101 -0.1107  0.2032 -0.1280
10093W        W30373  15.163  17.081  15.071 -0.0641  0.0347  0.0003
10094W        W30374   8.846   7.732   2.521  0.0228 -0.3980 -0.0637
10095W        W30375   3.648  15.121  16.492  0.1377 -0.0155  0.0703
10096W        W30376  14.406   2.291  16.097 -0.1052  0.1187 -0.0289
10097W        W30377   7.333   6.930  16.363 -0.1960 -0.2423  0.1928
10098W        W30378   4.023  17.721  13.225 -0.0905 -0.1480  0.1857
10099W        W30379  15.353  12.447   4.047  0.1083  0.0702  0.3355
10100W        W30380  10.093  14.794  15.011 -0.0716 -0.2849  0.0866
10101W        W30381   0.028   2.206   1.678 -0.0135  0.1447 -0.1571
10102W        W30382   2.878  11.096   3.380  0.0554  0.0728 -0.0194
10103W        W30383  15.226  11.505   3.247 -0.1418  0.0260 -0.0870
10104W        W30384   0.377   7.441  14.293 -0.0872  0.0531  0.0172
10105W        W30385  16.223   6.438  15.969  0.0902  0.1209 -0.0873
10106W        W30386  10.196  17.076   3.891 -0.0774 -0.1972  0.3147
10107W        W30387  17.043   1.239  15.880  0.1556  0.2223 -0.1448
10108W        W30388   7.230   9.497   4.773 -0.2988 -0.0209 -0.0798
10109W        W30389  13.984  15.843   2.894 -0.4892  0.0899  0.2355
10110W        W30390   6.938   9.874  15.370 -0.1714  0.2720  0.2793
10111W        W30391  13.485  15.767   4.678 -0.0694 -0.2031  0.0593
10112W        W30392   6.075   3.676   1.842 -0.0443  0.1800 -0.2947
10113W        W30393   4.096   1.505  15.495 -0.0791  0.1595  0.3432
10114W        W30394   9.612   4.727   2.012  0.0282 -0.1006 -0.0984
10115W        W30395   8.378   1.889  14.529 -0.1602  0.0777  0.0705
10116W        W30396   2.692   0.628  12.870  0.1957 -0.2430 -0.0068
10117W        W30397   3.958   4.836  15.014 -0.2149 -0.2135 -0.0242
10118W        W30398   3.156  10.861   4.031 -0.1241  0.2294 -0.1272
10119W        W30399   8.983   9.142   2.877 -0.0198  0.0682 -0.1173
10120W        W30400   7.340   7.994   2.581  0.1558 -0.0554  0.0877
10121W        W30401  12.515  17.041  13.324  0.0489 -0.1898 -0.2467
10122W        W30402   9.045   0.767   3.655  0.1160 -0.1891  0.1983
10123W        W30403  13.411  15.221   0.340  0.3174 -0.0148  0.1427
10124W        W30404  13.298   9.131   0.775  0.0347  0.0581 -0.0952
10125W        W30405   0.786   4.234   0.032  0.3419  0.1439  0.2674
10126W        W30406   1.814  14.458   4.930  0.0228  0.0613 -0.1337
10127W        W30407   8.652  15.082  16.807  0.2585 -0.0196  0.0505
10128W        W30408   3.971   4.800   4.575  0.1473 -0.1952 -0.0318
10129W        W30409   5.434   1.733   3.376  0.2706 -0.1839 -0.0360
10130W        W30410   1.224   9.299   3.848  0.0819 -0.0444  0.3244
10131W        W30411  15.452   6.282  14.196 -0.1798  0.0801  0.2071
10132W        W30412   3.803   7.671  14.306 -0.1049  0.1502 -0.0917
10133W        W30413  15.575  13.889   3.226 -0.0074 -0.0700  0.2605
10134W        W30414   5.921   0.358  15.517  0.1964 -0.0281 -0.0849
10135W        W30415   9.824  13.849  12.168 -0.2690 -0.0494 -0.1477
10136W        W30416  13.993   6.666   3.237 -0.0446  0.1228  0.2774
10137W        W30417   4.765  12.520  15.792  0.0174 -0.0910 -0.2025
10138W        W30418  14.567  13.236  12.621  0.2976  0.0604  0.0990
10139W        W30419  15.055   9.755  16.573 -0.2410  0.0943  0.1651
10140W        W30420  13.883   8.786  14.403 -0.1354  0.1532 -0.0603
10141W        W30421  16.233   5.184  14.686 -0.2297 -0.2612 -0.1875
10142W        W30422   6.511  13.994  14.201 -0.5012  0.1236  0.2591
10143W        W30423   5.978   1.438   2.668  0.0022  0.0318 -0.0543
10144W        W30424  12.307  13.351   0.088  0.1881 -0.0828  0.2609
10145W        W30425  12.401  13.030  13.233 -0.2062  0.0539  0.0288
10146W        W30426  15.766  11.521  14.338 -0.0627 -0.1509  0.0721
10147W        W30427  15.086   3.786  15.021 -0.0439 -0.0046 -0.1322
10148W        W30428   2.561  11.448   0.436 -0.0172 -0.1218  0.0137
10149W        W30429   5.083   0.298  14.308 -0.3659  0.0999  0.0854
10150W        W30430  14.662   9.600  15.419  0.0342 -0.3093 -0.0187
10151W        W30431  17.358   6.000   2.081 -0.2758  0.2207  0.0070
10152W        W30432  13.166  12.019  15.138 -0.1586  0.1102 -0.2616
10153W        W30433  10.485   6.070  14.319  0.1331 -0.2863  0.0972
10154W        W30434  10.871  16.895   3.727 -0.0845 -0.3067  0.0782
10155W        W30435   6.723   4.599  12.314 -0.0070 -0.1294  0.2189
10156W        W30436  12.358  13.631   0.495  0.1893 -0.2854  0.2617
10157W        W30437  17.248   6.640   2.204  0.0212 -0.2570  0.0794
10158W        W30438  13.055   0.650  12.097  0.0138  0.1800  0.0511
10159W        W30439  16.938   0.216   1.642  0.2583  0.2550 -0.1907
10160W        W30440   7.181   4.138   4.187 -0.2639  0.0417  0.1553
10161W        W30441  10.225   5.500  13.032  0.0199 -0.0321  0.0348
10162W        W30442  12.315   9.655  16.202 -0.0235  0.1628  0.0016
10163W        W30443   9.039  14.937  15.943 -0.1421 -0.3311 -0.0296
10164W        W30444   6.017   7.854  13.181  0.1869  0.2127 -0.1157
10165W        W30445   7.635   1.637   4.696  0.0246 -0.3831 -0.0818
10166W        W30446   6.816  14.257   2.091 -0.3668 -0.2025 -0.2263
10167W        W30447   2.369  14.242   2.178  0.0018 -0.0988  0.0260
10168W        W30448  17.173  16.254  12.895 -0.0418  0.0567 -0.0329
10169W        W30449  16.923  10.697  15.781  0.1876 -0.2224 -0.0073
10170W        W30450  10.334   1.094   1.276 -0.0919  0.0497  0.1034
10171W        W30451  14.351   9.753   2.541 -0.1918  0.2021 -0.0322
10172W        W30452  15.182   7.990   4.404  0.1430  0.1943 -0.1118
10173W        W30453   4.062   5.912   2.924 -0.0828  0.1660  0.0347
10174W        W30454   2.239  17.070  16.006  0.0153  0.4177  0.1590
10175W        W30455   8.029   6.683   2.102 -0.2675 -0.0490 -0.0737
10176W        W30456   2.361   6.311   3.668  0.0707 -0.0084  0.0995
10177W        W30457   9.046   8.721  16.601 -0.2132 -0.0701  0.2690
10178W        W30458  14.584  12.443  14.616 -0.3041  0.2442 -0.1715
10179W        W30459   9.769   1.579   1.318  0.0604 -0.0438 -0.0253
10180W        W30460  10.311  15.571  15.269 -0.0414  0.2098 -0.1858
10181W        W30461   0.013   3.581  16.397 -0.0436 -0.0296 -0.1105
10182W        W30462   6.011   1.140  14.894  0.1897 -0.0494 -0.0733
10183W        W30463   3.600  11.604   1.236  0.4623  0.0109 -0.0008
10184W        W30464   4.115   8.492  12.796  0.0852  0.0729 -0.0011
10185W        W30465   7.925   9.596  16.534  0.2142 -0.1141  0.3539
10186W        W30466  12.300   4.438   0.155 -0.1285 -0.0162 -0.1122
10187W        W30467  13.868  10.944   4.415  0.1091  0.0806  0.0609
10188W        W30468   9.775   8.460   1.387  0.0516 -0.0909 -0.0743
10189W        W30469  17.401  11.737  15.794  0.0668 -0.0629 -0.2738
10190W        W30470   0.069  14.495   3.627 -0.0853 -0.1297 -0.0620
10191W        W30471   0.470   6.169   1.911 -0.1323  0.2674  0.0909
10192W        W30472   1.873  10.552  14.976  0.0163  0.0092  0.3194
10193W        W30473   2.104  14.928   0.043 -0.1037 -0.0299 -0.2608
10194W        W30474   2.393   2.016   3.713 -0.1802  0.0184 -0.0330
10195W        W30475   7.538   1.044  13.262 -0.0742 -0.1768 -0.1897
10196W        W30476  16.763   5.363  14.737 -0.0795  0.2000 -0.1020
10197W        W30477   4.730  15.892  16.334 -0.1002 -0.0348  0.2305
10198W        W30478  16.206  12.034  13.611 -0.1139 -0.1977 -0.0221
10199W        W30479  15.215   2.047   1.710  0.2362  0.0472  0.0674
10200W        W30480   0.649   8.347  16.103  0.2099 -0.0025  0.1762
10201W        W30481  16.578   3.853  15.827 -0.0931  0.1564  0.0153
10202W        W30482  12.037  10.177  16.969  0.1937  0.2013 -0.0615
10203W        W30483   8.319  12.684   4.009 -0.0813  0.0246  0.1008
10204W        W30484  15.595   4.538  11.444 -0.0929 -0.2006  0.0011
10205W        W30485  15.927   5.107   0.065 -0.0394 -0.1824  0.3764
10206W        W30486   0.551   7.893  15.831  0.0372 -0.0505 -0.0658
10207W        W30487   7.219   6.441  16.356 -0.0922 -0.0853 -0.1190
10208W        W30488  11.457   3.267  15.926 -0.0315 -0.1610  0.2536
10209W        W30489   0.206   1.039   4.751  0.1031  0.2389 -0.1098
10210W        W30490  14.973   9.171  15.090  0.2540 -0.0732  0.0888
10211W        W30491   0.302   8.191  12.467 -0.1842 -0.2121  0.0744
10212W        W30492   2.911   8.515  16.096  0.1254 -0.5142 -0.1968
10213W        W30493   0.310   5.231  14.557 -0.2754  0.1197  0.1133
10214W        W30494   3.212   4.993   2.610  0.1736 -0.0763 -0.3093
10215W        W30495  15.697   5.756   4.742  0.1183  0.2859  0.2517
10216W        W30496   0.866   9.005  16.738  0.1173  0.1736  0.1158
10217W        W30497   5.179   3.092  16.435  0.1750  0.2826  0.0448
10218W        W30498  10.866   4.109  16.600 -0.0423  0.0808 -0.0936
10219W        W30499  14.150   2.545  11.080  0.0537 -0.2989 -0.1642
10220W        W30500   6.599  16.706  12.612  0.1615 -0.0272 -0.2679
10221W        W30501   2.138  11.841   3.602 -0.0637  0.0225 -0.1586
10222W        W30502   2.220  16.039  12.715  0.0910 -0.2062 -0.2916
10223W        W30503  17.599  13.381   3.334 -0.2724  0.2583 -0.2149
10224W        W30504  15.923   2.713  15.835 -0.2141  0.1363  0.0885
10225W        W30505   8.730   8.879   1.860 -0.0001 -0.0145  0.1138
10226W        W30506  11.411   8.942  15.054 -0.0785 -0.4039 -0.0270
10227W        W30507   1.559   7.991  12.353  0.0889  0.0168  0.1380
10228W        W30508  13.828   2.370  16.018  0.0177  0.1440  0.1299
10229W        W30509   1.002   1.670  16.518 -0.3190 -0.1266  0.0548
10230W        W30510   8.172   5.634  15.523  0.0402  0.0149 -0.0229
10231W        W30511  11.589   5.441  13.295 -0.0689  0.1283 -0.1924
10232W        W30512   8.967   1.233  12.837  0.0591  0.2596  0.0826
10233W        W30513  14.260   1.380  15.923 -0.5168  0.1492 -0.0746
10234W        W30514  13.091   4.327  12.296 -0.2207  0.0775  0.0753
10235W        W30515   6.444   9.153  13.250 -0.0333  0.0033 -0.3902
10236W        W30516   1.639  10.274  15.340 -0.0798 -0.3328 -0.0208
10237W        W30517  16.994   8.743   1.127  0.2564  0.0673  0.0510
10238W        W30518  16.981   8.661   2.228  0.2162  0.3063 -0.4181
10239W        W30519   8.910   2.270  12.662 -0.1105  0.2149  0.1025
10240W        W30520   8.310  14.102  12.432 -0.0725 -0.0400  0.0303
10241W        W30521  10.266   2.414  13.779  0.0012 -0.2151 -0.1236
10242W        W30522   1.661  11.889   1.496  0.1466 -0.1588 -0.0610
10243W        W30523  12.221  11.501  16.580 -0.0882 -0.1495  0.4758
10244W        W30524  13.633   4.789  16.576 -0.0435  0.1124  0.4158
10245W        W30525  16.422  16.127   3.145 -0.1665  0.0021 -0.1337
10246W        W30526   1.326   0.403  16.846 -0.1052 -0.0229  0.0841
10247W        W30527   8.934   3.096  16.704  0.0346  0.0540 -0.1276
10248W        W30528  10.511   3.903  14.630 -0.0186  0.0876 -0.0984
10249W        W30529  17.094   3.866   3.089 -0.0011  0.0966  0.0259
10250W        W30530   0.982   2.528  15.414 -0.0114 -0.1034  0.2339
10251W        W30531  13.248  11.047  12.705 -0.3336 -0.2991  0.0789
10252W        W30532   3.840  16.048  12.999 -0.0627 -0.1172  0.1002
10253W        W30533  11.458  11.977   2.917 -0.0388 -0.1933  0.5231
10254W        W30534   9.589   4.071  16.808  0.2235 -0.1329  0.2027
10255W        W30535   5.733  17.230   2.923  0.2090  0.0408  0.1204
10256W        W30536   6.033  14.101  15.899 -0.2363 -0.1796  0.2498
10257W        W30537   1.381   0.877   0.035 -0.0190 -0.1152 -0.3969
10258W        W30538   8.626  13.867  14.411 -0.0865 -0.1020  0.1211
10259W        W30539   4.147   3.893  15.115  0.0142 -0.3912 -0.1928
10260W        W30540   3.354   1.508  15.122  0.2655  0.0670  0.1142
10261W        W30541   7.079  16.646   1.911  0.2687  0.0339  0.0027
10262W        W30542  15.652   1.073   4.501  0.0350  0.1871  0.0231
10263W        W30543  14.368   5.429   1.692 -0.0713 -0.1568  0.0286
10264W        W30544   1.332   8.735   5.053 -0.2356 -0.0234 -0.1834
10265W        W30545  16.705  12.729   4.111  0.2130  0.2325  0.1306
10266W        W30546   6.385   9.584  13.493 -0.0723 -0.1885 -0.0518
10267W        W30547  10.012  10.791   4.712  0.2213 -0.1532  0.2209
10268W        W30548  17.630   9.679  12.838  0.1359 -0.2861  0.1352
10269W        W30549   5.407   7.533   3.344 -0.0695  0.0636  0.3145
10270W        W30550  14.812   1.394  14.408  0.4091 -0.0727 -0.1535
10271W        W30551   6.770  11.716   3.451  0.1663  0.1347  0.1747
10272W        W30552   5.942   2.190   4.654 -0.2094 -0.0702  0.0212
10273W        W30553   7.737   5.380  13.661 -0.3535 -0.1675  0.2491
10274W        W30554  14.291   2.721  16.321 -0.3949 -0.0192 -0.0835
10275W        W30555   1.348   7.351   2.585  0.0500 -0.0623 -0.3977
10276W        W30556   0.013  15.147  13.516 -0.0116 -0.1362 -0.0367
10277W        W30557   3.915   2.142  13.727 -0.4198 -0.0526  0.1216
10278W        W30558   6.251   0.879  15.488 -0.0181  0.2550 -0.0185
10279W        W30559   5.338  11.733   5.143 -0.1905 -0.1172 -0.0404
10280W        W30560   0.243  13.814  13.249  0.0255 -0.0527 -0.2610
10281W        W30561   6.232   5.704   4.842 -0.1991 -0.1524  0.1043
10282W        W30562   3.691  15.790   2.755 -0.0614 -0.0995  0.0496
10283W        W30563  14.387  10.250   2.763 -0.1455  0.1870 -0.0838
10284W        W30564   8.377  16.352  12.734 -0.0404 -0.1470  0.0688
10285W        W30565  16.306  15.837  13.100 -0.1256 -0.0161  0.1132
10286W        W30566   4.291  17.472   3.563 -0.0399 -0.0662 -0.0738
10287W        W30567   9.162  17.402  14.546 -0.2759  0.0107 -0.0333
10288W        W30568  16.148  11.623  16.937  0.1400  0.2664  0.0482
10289W        W30569   2.169  12.389   3.491  0.0200  0.2561 -0.1591
10290W        W30570   3.373   4.484  16.520 -0.3326 -0.0567 -0.4400
10291W        W30571   1.754  15.806  14.913  0.2421 -0.2935 -0.1216
10292W        W30572   4.059  14.831   3.179  0.0691  0.1407  0.0023
10293W        W30573   2.765   6.012  13.299 -0.1462 -0.3241  0.2571
10294W        W30574  12.299  15.737  15.824  0.1211 -0.2083  0.0234
10295W        W30575   5.406   8.775   3.920  0.0165  0.1503 -0.3012
10296W        W30576   9.464   9.183   2.148  0.3345 -0.3692 -0.0731
10297W        W30577  16.078   3.933  14.937 -0.1058 -0.2095 -0.0527
10298W        W30578   0.203   2.603   3.914 -0.2094 -0.2312  0.2914
10299W        W30579   9.057  10.632  15.563 -0.1012  0.2854  0.2226
10300W        W30580   3.364   1.405   3.916 -0.0569 -0.2594 -0.3235
10301W        W30581   9.422   1.032  16.346 -0.2945  0.1538  0.3646
10302W        W30582  10.323   7.759  13.949 -0.0111 -0.0176 -0.3335
10303W        W30583   8.474   0.853   4.506  0.0403 -0.1012 -0.1119
10304W        W30584   2.345  13.135   4.607  0.1692  0.2416 -0.0989
10305W        W30585   6.406   3.961  14.760  0.0864 -0.0404  0.1151
10306W        W30586  13.773   8.899  15.868  0.4160 -0.3526 -0.1313
10307W        W30587  15.349   2.360  12.278 -0.2719 -0.1850 -0.2464
10308W        W30588   3.482   5.138  12.588 -0.1402 -0.0386 -0.1465
10309W        W30589  15.959   4.414   2.042 -0.2622  0.1950 -0.1456
10310W        W30590   6.433  16.286  14.535  0.2852 -0.1162 -0.2259
10311W        W30591  14.730   1.256   0.348 -0.2546  0.0009  0.0952
10312W        W30592   2.440   6.984   0.065  0.0271 -0.1734  0.0400
10313W        W30593   7.677  14.068  13.934 -0.0910 -0.0800 -0.0838
10314W        W30594   3.631   2.272   1.781 -0.0749 -0.5802 -0.1056
10315W        W30595   5.571   2.757  15.842 -0.1876  0.0482 -0.0706
10316W        W30596  11.897  16.085  13.115 -0.3870  0.1277  0.0387
10317W        W30597  14.370   9.018  16.358 -0.5074  0.2553 -0.2768
10318W        W30598   0.125  15.732  12.542 -0.0832  0.1143 -0.2390
10319W        W30599   0.497  14.951  12.256 -0.2115  0.1548  0.1333
10320W        W30600  17.599   2.502   0.301  0.1398  0.0115  0.2614
10321W        W30601   3.342   9.772   1.421  0.1202 -0.1165 -0.0397
10322W        W30602   8.881   8.372   1.868 -0.0535 -0.2399 -0.0079
10323W        W30603  10.567   3.463  13.736 -0.1366 -0.1265 -0.2395
10324W        W30604   4.691  17.224   0.607  0.1637 -0.0852 -0.1278
10325W        W30605   6.185   3.233  16.133  0.0012  0.2189 -0.0865
10326W        W30606  15.674  16.924  12.420 -0.1156  0.0999  0.0086
10327W        W30607   1.621  15.277  12.304 -0.3021  0.2269  0.1862
10328W        W30608   1.835  14.426  14.445 -0.0345  0.0584 -0.2802
10329W        W30609   9.193  11.822  12.582 -0.0803  0.0755  0.0494
10330W        W30610  13.312  13.035   0.964  0.0997 -0.0811  0.1662
10331W        W30611  14.743  14.748  16.396 -0.0304 -0.1152 -0.0291
10332W        W30612   0.285   2.276  15.467 -0.0245  0.2569  0.1508
10333W        W30613  16.620   1.134   1.741 -0.1815  0.2144 -0.0418
10334W        W30614   4.208  13.307  12.735  0.0052 -0.1233  0.0143
10335W        W30615  12.004   4.972  15.771 -0.1332  0.4151  0.0419
10336W        W30616   9.511   1.015  12.958 -0.2386  0.1032 -0.0244
10337W        W30617  13.398   5.296  16.602  0.5034  0.1751  0.0232
10338W        W30618   5.440   4.303  14.635  0.0168 -0.0526 -0.0297
10339W        W30619  13.905  14.795  15.777 -0.3214 -0.1315  0.1193
10340W        W30620   1.265  11.942   2.376  0.0968  0.2566 -0.1209
10341W        W30621   7.985   5.352   4.232  0.0443 -0.2987  0.3568
10342W        W30622  12.237   1.219  12.617  0.1845 -0.0282 -0.4014
10343W        W30623   5.918  11.515   0.368  0.0841  0.1536 -0.2836
10344W        W30624  11.050   4.287   1.114  0.2141 -0.0325  0.2353
10345W        W30625  10.511   6.386   2.196 -0.0351 -0.0623  0.0539
10346W        W30626   9.986  15.882   0.312  0.1998  0.2248 -0.2699
10347W        W30627   6.889  13.351   2.432 -0.2461 -0.2525  0.2127
10348W        W30628   7.753   7.297  13.296  0.1085  0.2311 -0.4779
10349W        W30629  11.458   9.137   2.773  0.1875  0.2105 -0.1403
10350W        W30630   7.547   7.282   1.218 -0.1523 -0.1449  0.1802
10351W        W30631   4.881   6.428   4.884  0.1879  0.0774 -0.2377
10352W        W30632   9.848  16.787  14.019  0.1693  0.0078 -0.1488
10353W        W30633   4.832   8.537   4.273 -0.2464  0.0027 -0.2536
10354W        W30634  13.720   6.804  13.605  0.0920  0.0514  0.1505
10355W        W30635   6.067   5.480  12.181 -0.1896  0.0219 -0.1280
10356W        W30636  10.712   9.816  14.164  0.0617  0.2208 -0.1988
10357W        W30637   9.163   5.981   1.110 -0.1545  0.0095 -0.2505
10358W        W30638   6.765  13.121   1.968 -0.4271 -0.1376 -0.0698
10359W        W30639   2.519   8.248  14.878  0.1772  0.0512 -0.1675
10360W        W30640  17.619   6.263  15.822  0.0733 -0.1512 -0.1392
10361W        W30641   0.867   1.833  13.495 -0.2406 -0.2716 -0.0134
10362W        W30642  12.172  11.996   2.898  0.0532 -0.1874 -0.0357
10363W        W30643  11.626  10.756   5.888 -0.0916  0.2745 -0.0939
10364W        W30644   5.526   1.928  15.349  0.0529 -0.1288  0.1001
10365W        W30645   5.113   7.508   1.809 -0.1484  0.3354 -0.0950
10366W        W30646  17.447   3.059   4.169 -0.1482 -0.1658  0.0496
10367W        W30647  10.737  14.319  16.855  0.0321  0.2206  0.0417
10368W        W30648  12.509  15.160  14.487  0.0497  0.2399  0.0858
10369W        W30649  17.577  17.043  14.681 -0.1291 -0.2913  0.2976
10370W        W30650  12.207   4.938  12.230  0.0092  0.1366 -0.0856
10371W        W30651  17.337  12.758  16.481  0.1834 -0.0770  0.0439
10372W        W30652   2.108  12.534   1.251 -0.1248  0.0394  0.0581
10373W        W30653  13.149   7.586  13.235 -0.1730  0.3104 -0.0720
10374W        W30654  10.158  10.027  15.438  0.0886  0.4338 -0.3129
10375W        W30655  17.020   3.814   4.602 -0.2210 -0.2676  0.0192
10376W        W30656   5.109  17.595   2.385  0.0072  0.0722 -0.1351
10377W        W30657  16.746   2.801  14.936 -0.2425 -0.1141 -0.3063
10378W        W30658   9.358  11.502   3.023 -0.3342 -0.0767  0.0210
10379W        W30659  13.176  12.747   3.750  0.1422  0.0779 -0.0217
10380W        W30660  14.323   2.559  15.268  0.0389  0.0570  0.2285
10381W        W30661   3.115  16.644   1.986 -0.5006 -0.1251  0.0459
10382W        W30662   9.149  15.173  14.196 -0.0853  0.2355 -0.2598
10383W        W30663  14.905  14.220   0.317 -0.0994 -0.3083 -0.2498
10384W        W30664  10.277  14.046   4.946  0.0088  0.0278 -0.1253
10385W        W30665   3.048   1.349   2.390  0.2375 -0.0611 -0.0825
10386W        W30666  13.330   7.031  15.775  0.4018 -0.0472  0.1199
10387W        W30667  10.970  10.235   3.518  0.0476  0.2451 -0.0330
10388W        W30668   4.573  14.816   2.829  0.2010 -0.1246  0.0096
10389W        W30669   8.768   6.336   3.491  0.0103 -0.3341 -0.1168
10390W        W30670  12.825   6.441  16.429 -0.0790  0.2905  0.0552
10391W        W30671   4.793  14.099  12.452 -0.3181 -0.1619  0.4012
10392W        W30672   9.795   4.648  13.850  0.0158 -0.0423 -0.1820
10393W        W30673   6.989   9.951   0.675  0.0337  0.2033 -0.0286
10394W        W30674   7.119   5.157   2.324  0.0111  0.1118 -0.1713
10395W        W30675   5.913  15.638  14.775  0.3475  0.0564 -0.0626
10396W        W30676  12.243   3.065   0.502 -0.1493  0.0753 -0.0179
10397W        W30677  14.404   4.786   3.711  0.0821  0.2154  0.0321
10398W        W30678  13.735  12.293   1.637 -0.0284 -0.3328 -0.1873
10399W        W30679   0.353  15.463   0.795 -0.2137  0.2471 -0.1426
10400W        W30680   1.193   4.377   3.136 -0.1363 -0.1982  0.1166
10401W        W30681  12.255  15.818   2.818 -0.0454  0.2098 -0.0279
10402W        W30682   2.586   7.574   4.073  0.1255  0.0785  0.0423
10403W        W30683  12.158  14.796  14.800  0.2306 -0.0329 -0.0637
10404W        W30684  11.357  15.590  16.748  0.0353  0.1702  0.0889
10405W        W30685  12.359  10.484  14.918 -0.1550  0.0634  0.0938
10406W        W30686   2.238   3.481   0.622 -0.3184 -0.3080  0.0347
10407W        W30687  15.909   5.397   5.953 -0.0957 -0.1910 -0.0114
10408W        W30688  14.933   0.883   1.231 -0.0250 -0.1985 -0.4243
10409W        W30689   5.318  14.683   4.543  0.3981 -0.1705  0.1819
10410W        W30690   0.225   4.159  13.687 -0.1624 -0.3003  0.1082
10411W        W30691  10.471   5.872  15.750 -0.0392 -0.1727 -0.1322
10412W        W30692   8.166   5.757   3.994  0.1927 -0.0537  0.1985
10413W        W30693  16.349   0.163   1.845  0.2050  0.0191 -0.1368
10414W        W30694   0.308  17.486  15.195  0.1267  0.0185  0.1100
10415W        W30695  11.110   0.897  14.841  0.0382 -0.0076  0.1384
10416W        W30696   1.274  12.520  16.473 -0.0392 -0.0596 -0.2563
10417W        W30697   3.774   4.183   2.182  0.0690  0.1089 -0.0650
10418W        W30698   1.405   1.766  14.336  0.2699  0.2289 -0.2053
10419W        W30699  16.104  14.717  13.867  0.2263  0.0810  0.0176
10420W        W30700   5.337  10.648  14.611  0.1367 -0.0435 -0.0663
10421W        W30701   4.289  15.204  12.588  0.2580  0.1257 -0.0366
10422W        W30702   8.018  11.469  13.005  0.0681  0.1407  0.0739
10423W        W30703  13.864   4.336   4.377 -0.1023  0.3970 -0.3796
10424W        W30704  15.821  16.158  13.001 -0.3028  0.2308 -0.2209
10425W        W30705   5.653   7.491  11.749 -0.1353  0.1594 -0.1576
10426W        W30706  12.201   1.415   1.280 -0.3639 -0.1291 -0.2300
10427W        W30707   5.309   5.898   0.605 -0.0179  0.1221 -0.0137
10428W        W30708   0.817   2.162  13.916 -0.1104 -0.2554 -0.2424
10429W        W30709   6.227   4.228   1.741 -0.0736  0.0252 -0.0600
10430W        W30710   0.638  13.476  13.409  0.1907  0.0564  0.0161
10431W        W30711   2.960  12.223   0.991  0.1821 -0.1962 -0.1581
10432W        W30712   9.941  13.033   1.022 -0.0574  0.0126  0.0829
10433W        W30713  12.585   1.779   2.848 -0.2104 -0.0214 -0.2017
10434W        W30714   7.032   4.370  12.684  0.0815  0.3273 -0.0951
10435W        W30715  10.655  11.308   3.135 -0.0358 -0.0517  0.1335
10436W        W30716   4.832  15.753  15.476  0.1108 -0.0289 -0.0172
10437W        W30717   7.965   6.611  15.517 -0.0501  0.0557  0.0253
10438W        W30718   7.075   0.030   1.235 -0.1268  0.2369 -0.0053
10439W        W30719   9.636   9.156  12.429 -0.0651  0.2814  0.0900
10440W        W30720  13.018   2.837   2.053  0.1573 -0.1511 -0.1988
10441W        W30721  11.363  14.998   4.754 -0.2041  0.1425  0.0114
10442W        W30722   2.911  10.149   2.844 -0.0565  0.1577 -0.4349
10443W        W30723   6.085  13.577   3.650 -0.1304  0.0824  0.1533
10444W        W30724   7.244  16.068   3.473  0.2621  0.2685  0.2280
10445W        W30725  16.391   9.342  13.567  0.1667 -0.0780  0.3265
10446W        W30726   9.099  16.506   3.978 -0.1095  0.2057 -0.0765
10447W        W30727  15.180   2.844  16.700  0.0387 -0.1714 -0.1302
10448W        W30728   6.267   3.784   3.339  0.0362  0.1567  0.2453
10449W        W30729  14.496   9.834   3.046 -0.0042 -0.1306 -0.0537
10450W        W30730   9.024   7.686  13.315 -0.2307  0.2641  0.1686
10451W        W30731   5.933  17.378  16.940 -0.3011 -0.3161 -0.4597
10452W        W30732   4.955  16.454   4.496  0.5400  0.0396  0.2111
10453W        W30733   5.635   4.105  12.231  0.2201  0.1116  0.0680
10454W        W30734   9.576  17.122   5.097 -0.1307  0.0224  0.0806
10455W        W30735  11.172   9.804   1.901 -0.0545 -0.2185 -0.0582
10456W        W30736   5.466   9.905  15.089 -0.2554 -0.0052 -0.0869
10457W        W30737   0.758   8.999  14.237 -0.1375 -0.0276  0.2518
10458W        W30738   9.590  14.603   2.170  0.1741  0.2513 -0.3428
10459W        W30739   1.611   9.529   3.528  0.1279  0.1988  0.1671
10460W        W30740  15.223  10.872   1.730  0.1392  0.1386  0.1475
10461W        W30741  10.467   5.687   1.328 -0.2312 -0.1555 -0.0720
10462W        W30742   4.736  15.318   1.911 -0.2389 -0.1564  0.2406
10463W        W30743  11.951   9.039  13.462 -0.1776  0.1102  0.2893
10464W        W30744   4.675  16.603   3.734  0.2585  0.0028 -0.0955
10465W        W30745  12.797   2.240   2.479  0.0799  0.0229  0.1291
10466W        W30746  10.223  12.289  12.123 -0.2275  0.1290 -0.2462
10467W        W30747   4.683  16.286  15.537 -0.1539  0.0742  0.0763
10468W        W30748  16.678   0.615   3.407  0.0458 -0.0578  0.0258
10469W        W30749  15.326  14.534   3.219  0.1246  0.0548  0.1680
10470W        W30750   8.526  11.580   2.000  0.2491  0.1289  0.1036
10471W        W30751   0.566  15.368   3.779 -0.2771 -0.2538 -0.2469
10472W        W30752   2.568   1.303  12.402  0.0897  0.1013 -0.0582
10473W        W30753   6.654  13.202   4.129  0.0745  0.3652 -0.2177
10474W        W30754  10.486   7.860   1.323  0.3658 -0.0203  0.1003
10475W        W30755  13.553   7.565   4.647 -0.4182  0.1079  0.1892
10476W        W30756  11.213   0.094  12.435  0.0506 -0.0395  0.0106
10477W        W30757   4.384   0.390  12.527 -0.1960  0.0443 -0.0810
10478W        W30758  17.176   2.978  16.238 -0.1898 -0.2005  0.3102
10479W        W30759   0.332  13.666  12.647 -0.3873 -0.0628  0.2559
10480W        W30760  17.128   7.191   3.097 -0.0062 -0.1859  0.0812
10481W        W30761  15.960   3.401   2.492 -0.0779  0.1343  0.0615
10482W        W30762  15.572   7.416  13.909 -0.4336  0.0526  0.2275
10483W        W30763   7.969  14.569  15.266  0.3347 -0.0918  0.1399
10484W        W30764  10.374  13.409  16.983 -0.2034  0.1347 -0.2083
10485W        W30765   7.155  17.640  12.509  0.0415 -0.2994 -0.2580
10486W        W30766   2.294  13.852   1.886  0.0614  0.2563  0.0354
10487W        W30767   5.977   2.890   2.775  0.2029  0.0315 -0.2373
10488W        W30768   3.320  16.860  15.883  0.0192  0.1848  0.1126
10489W        W30769  13.454   4.225   4.051  0.1981  0.2228  0.0423
10490W        W30770  13.699  12.948  15.967  0.1869 -0.1275  0.1305
10491W        W30771  16.621  12.378  15.783 -0.1738  0.0422 -0.0334
10492W        W30772  14.706  17.293  12.400 -0.1199 -0.3359 -0.0506
10493W        W30773  13.565   6.609   1.012  0.0524 -0.2217  0.0893
10494W        W30774  13.515  14.312   0.001 -0.1374 -0.0485 -0.0383
10495W        W30775   2.082   1.372   0.262  0.0118 -0.3097  0.0310
10496W        W30776   5.301   5.543  13.403 -0.1873 -0.1680 -0.2147
10497W        W30777   3.409  11.247   4.245  0.2098 -0.3789  0.3634
10498W        W30778   7.063   0.620  13.248 -0.0736  0.0500 -0.2343
10499W        W30779   0.229  16.395  16.301 -0.3137  0.0984  0.1677
10500W        W30780   9.921   4.211   3.643  0.1207 -0.0472 -0.1857
10501W        W30781   0.884   3.114   1.359  0.1942 -0.1591  0.0145
10502W        W30782   4.669  16.533   4.991 -0.1209 -0.2697  0.3826
10503W        W30783  13.267   0.021   4.159  0.0522  0.1758  0.0998
10504W        W30784  12.539   7.323  15.246 -0.0817  0.3625  0.0172
10505W        W30785   6.430  13.322   2.352 -0.0431  0.2078  0.4429
10506W        W30786   9.139   4.229   0.401 -0.0460 -0.0560  0.0649
10507W        W30787  14.634   9.732   4.802 -0.0596 -0.0697  0.1418
10508W        W30788   9.307   1.560   2.802 -0.3767 -0.0379 -0.2892
10509W        W30789  15.304   8.001   2.857 -0.0208  0.1844  0.3731
10510W        W30790  11.827  15.378  15.455  0.4070 -0.4394  0.2343
10511W        W30791   3.348   0.531   0.619  0.1261 -0.1641 -0.0198
10512W        W30792  17.712   5.673   0.693  0.2471  0.0200  0.0936
10513W        W30793   3.373   0.312  16.154 -0.1460 -0.0111  0.0755
10514W        W30794   6.342  11.396   0.096 -0.1932 -0.1164 -0.2567
10515W        W30795   3.082   3.184   1.687 -0.2655  0.1027  0.2455
10516W        W30796   6.667  15.698  15.098 -0.2032 -0.1716 -0.0139
10517W        W30797  13.135  11.796   1.210  0.1008 -0.2223 -0.3070
10518W        W30798   8.422  15.569  13.002 -0.1562 -0.3280 -0.1190
10519W        W30799  11.195   7.852  13.259  0.0509  0.1299 -0.1560
10520W        W30800  14.986  16.578   1.734 -0.2971  0.2004  0.0485
10521W        W30801   5.974   1.599   3.371 -0.0452 -0.1440  0.1863
10522W        W30802   1.898  12.084  12.949  0.0988 -0.0073 -0.1415
10523W        W30803   7.841  15.063  15.523 -0.2962  0.0575 -0.1143
10524W        W30804  15.815   0.187  14.370 -0.1885 -0.0025  0.4371
10525W        W30805   2.031   0.080   4.880 -0.1352  0.3058  0.0070
10526W        W30806   9.889   6.556   4.380 -0.0447  0.0283 -0.1316
10527W        W30807  16.696  15.526   2.529  0.3857 -0.0074  0.0366
10528W        W30808   5.950  15.102  15.901 -0.2051 -0.3866  0.1309
10529W        W30809  14.346   5.215  14.945  0.0264  0.0197 -0.0398
10530W        W30810   6.323   1.278   3.544 -0.2073  0.1162  0.2000
10531W        W30811  10.694   1.019   1.651 -0.2160 -0.2888 -0.1492
10532W        W30812  15.536  16.091   0.689  0.1156  0.2600 -0.1781
10533W        W30813  11.857  11.203  12.537 -0.1899 -0.1598 -0.0234
10534W        W30814   2.173   3.174  15.775 -0.1277 -0.1381  0.3340
10535W        W30815   6.426  12.006   1.941  0.1872  0.0373  0.0052
10536W        W30816   5.006   7.340   0.574 -0.1747 -0.1382 -0.1088
10537W        W30817  14.381   2.351   0.568 -0.0099  0.0691  0.0076
10538W        W30818  11.216   5.909   0.019  0.0638  0.3032 -0.1985
10539W        W30819  17.417   5.792  13.437 -0.2015 -0.3334  0.0457
10540W        W30820   6.336   7.823   1.779 -0.1217 -0.3142 -0.2028
10541W        W30821  10.997  15.090  13.954 -0.0810  0.0553  0.1311
10542W        W30822  10.794  16.557  14.682  0.2994  0.2543 -0.4330
10543W        W30823   6.698   5.777   4.915 -0.0611 -0.0498  0.0040
10544W        W30824  17.699  17.378   4.661 -0.0635 -0.4127  0.3332
10545W        W30825   2.138   9.503  12.272 -0.0105  0.0663 -0.2062
10546W        W30826   8.189  17.150  13.009  0.2567  0.1176 -0.0223
10547W        W30827   5.567  16.795   5.108 -0.0212  0.1135 -0.1080
10548W        W30828   6.741   1.827  14.286 -0.1203  0.4321  0.1332
10549W        W30829   1.256   4.476  12.480  0.0311  0.3147  0.3043
10550W        W30830   1.573  11.616  12.673 -0.0101  0.1787 -0.3954
10551W        W30831   6.155  10.183   0.646  0.5815 -0.2210 -0.0258
10552W        W30832   0.064  14.619   5.064  0.3922  0.0023 -0.0216
10553W        W30833  10.225  11.477  16.038  0.0271 -0.1038  0.1619
10554W        W30834  15.298  13.991  15.961 -0.1594  0.3731 -0.1230
10555W        W30835  13.450   5.621   4.846 -0.0996 -0.2129 -0.2617
10556W        W30836   3.422   6.081   1.957 -0.0648  0.0842  0.1609
10557W        W30837  15.494   3.551   0.263 -0.0604  0.0999 -0.2256
10558W        W30838  16.712   2.254   0.316  0.0445  0.1345  0.0861
10559W        W30839   3.091   2.611   3.305 -0.2727 -0.1843 -0.0209
10560W        W30840   3.560   2.887   1.622 -0.1281  0.1619 -0.2395
10561W        W30841  10.516   2.144   2.222 -0.2063 -0.3024 -0.2459
10562W        W30842  13.187  15.076   2.290 -0.0115 -0.0323 -0.0795
10563W        W30843   7.557   0.513  14.114 -0.3449  0.0645  0.1684
10564W        W30844  10.727   3.690  16.249  0.1109 -0.0984  0.1632
10565W        W30845  16.824  17.129  14.302 -0.1215  0.1194 -0.0398
10566W        W30846   9.935  10.169   4.047  0.1010  0.2418  0.1205
10567W        W30847  12.100  12.942   1.163 -0.0932  0.1366 -0.4248
10568W        W30848  12.966   3.114   1.211  0.0583  0.0670 -0.0376
10569W        W30849  15.745  17.030   0.609  0.0029 -0.0001 -0.4752
10570W        W30850   5.015   4.351  16.005  0.0151  0.0175  0.2728
10571W        W30851   5.103   2.736  15.489  0.1608 -0.1930 -0.0547
10572W        W30852  13.342  11.025   4.589  0.1247 -0.0530 -0.1433
10573W        W30853   0.099  14.804   3.177  0.1641 -0.1345  0.2272
10574W        W30854   3.415  15.735  15.288  0.0420 -0.1646  0.1465
10575W        W30855  11.035   8.767   0.602  0.0598  0.2883 -0.1468
10576W        W30856   5.162   3.501  13.763 -0.1420  0.1281 -0.1770
10577W        W30857  15.365  12.706  15.615 -0.1016 -0.2238  0.0572
10578W        W30858   2.895  11.452  16.747  0.1887 -0.2215  0.2151
10579W        W30859  15.308   3.902   3.960  0.2018 -0.0076  0.0115
10580W        W30860   8.033   0.869   1.658  0.1357  0.2386 -0.1664
10581W        W30861  17.457   3.521  14.896 -0.0681 -0.0031  0.0796
10582W        W30862   0.539  15.973  15.594 -0.3622  0.2378 -0.0292
10583W        W30863   7.510   0.081   0.577 -0.0953 -0.2492  0.0008
10584W        W30864   7.779  17.679  14.886 -0.3530 -0.0148 -0.3222
10585W        W30865   5.015  11.917   1.813 -0.0130 -0.0264 -0.0979
10586W        W30866   9.447   1.282  16.755 -0.1045  0.1307  0.0754
10587W        W30867  12.254   8.753   4.171  0.0626  0.2705 -0.2114
10588W        W30868   8.747   6.109  15.292  0.0144  0.1040  0.0736
10589W        W30869   9.494   4.242  15.962  0.1226 -0.0373  0.0809
10590W        W30870  13.232  11.002  16.805  0.1600 -0.2191 -0.0498
10591W        W30871  11.601   5.906   4.493  0.0036  0.2009 -0.2429
10592W        W30872   0.762  13.449  15.489 -0.1366  0.4394 -0.0206
10593W        W30873   1.218   0.249  15.528 -0.2517 -0.0073 -0.0778
10594W        W30874   8.965  15.427  15.855  0.3740  0.2645  0.0517
10595W        W30875  15.451  14.769   4.296  0.1163 -0.0328 -0.5074
10596W        W30876   6.513  15.584  13.344 -0.1315  0.2027  0.0444
10597W        W30877  13.964   1.331  13.966 -0.0510  0.0205  0.1087
10598W        W30878  17.452   5.459  16.945  0.1902  0.0498  0.1060
10599W        W30879  13.624   2.700  13.768 -0.2054  0.3055  0.1345
10600W        W30880  10.969  10.637   2.798  0.2009 -0.0524  0.1601
10601W        W30881  17.704  13.231  16.198  0.3338  0.3535 -0.3335
10602W        W30882   2.518   1.122  15.552 -0.0534  0.0444 -0.0987
10603W        W30883   9.852  16.302  13.557  0.0727 -0.3763 -0.0359
10604W        W30884   3.889   9.654   4.887 -0.2292 -0.0455 -0.1270
10605W        W30885   0.063   6.799   2.433 -0.0288  0.0623  0.1931
10606W        W30886   9.522  14.057  13.187  0.0936  0.0110 -0.2237
10607W        W30887  11.100   4.564   2.457 -0.2994 -0.3450 -0.1100
10608W        W30888   4.513  15.112  13.194 -0.1406  0.1967 -0.1205
10609W        W30889  11.074   1.261   0.795 -0.2713  0.0193  0.0650
10610W        W30890  17.331  16.841  15.087  0.2936 -0.1452  0.3725
10611W        W30891   3.323   1.101  11.859  0.2659  0.1085 -0.0461
10612W        W30892   9.143  13.707   4.214 -0.3163  0.0001  0.0474
10613W        W30893   5.642   0.728  16.055 -0.1390 -0.0278  0.0419
10614W        W30894  14.670   3.700   1.254  0.0240  0.1391  0.1952
10615W        W30895  16.527   8.676  16.163 -0.1183 -0.2911 -0.0948
10616W        W30896   0.553  11.309  13.535  0.2635  0.0813 -0.3930
10617W        W30897   8.546  13.007   1.187 -0.0055  0.0222  0.2039
10618W        W30898   2.633  16.735  13.099  0.0184  0.4158  0.0656
10619W        W30899  13.988  11.678   5.915 -0.0598 -0.1777 -0.0680
10620W        W30900   1.721   0.564  14.020 -0.3181  0.3330  0.1949
10621W        W30901  11.892   7.148   1.619  0.3090  0.2664 -0.3988
10622W        W30902  12.591   8.205  13.277 -0.2370  0.0349 -0.0395
10623W        W30903  14.054   6.590  15.605 -0.1932  0.3966 -0.1149
10624W        W30904  13.827   6.341  13.466 -0.2421 -0.3037  0.0039
10625W        W30905   6.665   0.379   1.271  0.0540 -0.1158  0.1715
10626W        W30906   7.567   0.215   2.945 -0.0431  0.1365  0.1630
10627W        W30907   4.033   9.433   4.393 -0.1782  0.1142  0.2026
10628W        W30908  13.412  10.006  14.941 -0.0147  0.2392  0.1812
10629W        W30909   2.887  15.706  14.616  0.1633  0.4296  0.2701
10630W        W30910  10.669  16.586  12.086 -0.1156 -0.0063  0.0600
10631W        W30911  16.410   0.481   4.624 -0.0216 -0.2343 -0.3540
10632W        W30912  17.260   3.637  15.345 -0.3991  0.2514  0.0712
10633W        W30913   5.172   2.656  13.316  0.1023 -0.2202 -0.2608
10634W        W30914  13.828   5.353   1.744 -0.1108 -0.0218  0.0595
10635W        W30915   5.016  13.183   0.281  0.0049  0.0812  0.1575
10636W        W30916  17.048  11.725   2.743  0.0862  0.0833 -0.0755
10637W        W30917   0.929   9.090   0.227 -0.0207 -0.1687  0.4336
10638W        W30918  14.103   0.001  13.580  0.1568 -0.1412  0.3177
10639W        W30919   0.655  16.780  13.504  0.0517  0.2209 -0.3028
10640W        W30920  16.766   3.703  13.622 -0.0912  0.1335 -0.1625
10641W        W30921   5.427  12.041   2.119  0.2296  0.1456 -0.1139
10642W        W30922   9.893   7.880  12.886  0.1478 -0.0648  0.0277
10643W        W30923   6.358   1.510   3.054  0.0908  0.0645  0.1292
10644W        W30924   2.572   2.696   1.545  0.0834  0.2204  0.0753
10645W        W30925  13.350  11.929   0.396  0.1494 -0.0087 -0.0519
10646W        W30926  16.309  11.344  16.505  0.1003  0.0691  0.0729
10647W        W30927  10.660  15.829   2.728  0.1099 -0.0096 -0.0901
10648W        W30928  14.408   1.027   0.039  0.0936  0.0959  0.0653
10649W        W30929  13.061   8.087  13.554 -0.0817  0.0192 -0.0456
10650W        W30930   1.339  16.573   2.153 -0.2853 -0.3951 -0.0431
10651W        W30931  13.705  11.724   3.975  0.0486  0.0911  0.0768
10652W        W30932   8.004  13.195  13.267  0.1012 -0.1854 -0.0116
10653W        W30933  10.672  15.398   0.857 -0.1585 -0.1159  0.1684
10654W        W30934   0.966   9.085   2.548  0.3405 -0.0279  0.0782
10655W        W30935  13.583   3.475   2.916 -0.3644 -0.1549  0.0843
10656W        W30936  10.947   5.314   1.762 -0.2206 -0.0730 -0.1634
10657W        W30937  17.012   4.711   4.094 -0.1700 -0.1938 -0.0940
10658W        W30938   4.808  11.751   3.410  0.1631 -0.0262  0.2229
10659W        W30939   6.316  11.927   3.622  0.1282 -0.3580  0.1403
10660W        W30940   1.820   3.023   1.329  0.2351  0.1048 -0.1356
10661W        W30941  17.630  13.721  15.910  0.0109 -0.0524 -0.0331
10662W        W30942   2.747   1.536   2.714 -0.1066  0.1096  0.1543
10663W        W30943   3.578   7.388  15.860 -0.1514 -0.0576  0.1964
10664W        W30944  15.073  17.665   1.017 -0.0526 -0.0839  0.1403
10665W        W30945  13.331   3.370  12.472 -0.1587  0.1441 -0.3505
10666W        W30946  17.248  16.669   4.559 -0.0238  0.0452  0.0666
10667W        W30947   2.717  17.157   3.971  0.1011  0.2018  0.2952
10668W        W30948  10.660  10.004   0.581  0.2608  0.1175 -0.1172
10669W        W30949   0.846  14.032  15.868 -0.0120 -0.2095 -0.2496
10670W        W30950   4.386   7.216  15.138 -0.0226 -0.1059  0.1094
10671W        W30951   3.111   9.003  16.528  0.0947  0.3558  0.2144
10672W        W30952  12.962  17.097  14.783 -0.0361  0.2331 -0.0232
10673W        W30953   2.799   4.787  14.387  0.1846 -0.0319  0.0629
10674W        W30954   0.779  14.562  15.857 -0.0241  0.1350  0.2244
10675W        W30955  17.633   9.209  12.618 -0.3424 -0.1168 -0.1323
10676W        W30956   0.312   2.086  14.124 -0.0404  0.0561 -0.1581
10677W        W30957   9.939  11.917  12.371 -0.0886  0.3656 -0.4972
10678W        W30958  10.775   2.902  12.209  0.1417 -0.2934 -0.1482
10679W        W30959  13.870  11.668  16.411 -0.2459 -0.3720 -0.0790
10680W        W30960   5.427  13.516  15.160 -0.2947  0.1408  0.1805
10681W        W30961  11.722   7.390   3.561  0.1326 -0.0289 -0.0818
10682W        W30962  10.701  12.604   2.956  0.0143 -0.0841 -0.1010
10683W        W30963   9.695   0.433   0.013  0.0645  0.2912  0.3240
10684W        W30964  10.371   4.621   4.060 -0.1036 -0.1541 -0.0860
10685W        W30965  12.915   1.412  13.093 -0.1951  0.2289 -0.1753
10686W        W30966  15.543  10.874  15.203 -0.2127  0.0222  0.2812
10687W        W30967  13.089  16.215  16.635 -0.0384  0.1423 -0.1071
10688W        W30968   6.174  16.015  15.010 -0.0735  0.2744  0.1406
10689W        W30969   3.567   5.287   2.640  0.2246 -0.0757  0.0642
10690W        W30970   6.618  10.570  14.218  0.0244 -0.0139 -0.1511
10691W        W30971   7.488  10.260  16.111 -0.2996 -0.0618 -0.0314
10692W        W30972  14.158  17.405   3.699 -0.1070 -0.3999  0.0037
10693W        W30973   8.732   0.307  15.855  0.2746 -0.3214  0.1351
10694W        W30974   5.414  11.580  12.877  0.1279 -0.1904  0.0868
10695W        W30975   8.797  13.508  16.656 -0.2271  0.0992  0.2385
10696W        W30976   1.298  17.038  12.753 -0.1033 -0.1461  0.1313
10697W        W30977   3.139  11.767   1.110  0.0838 -0.0362  0.2148
10698W        W30978   1.685  11.154   0.038  0.1149 -0.0229 -0.1860
10699W        W30979  15.851   2.235   0.012  0.0965 -0.0428  0.0295
10700W        W30980   8.874   3.904  13.180  0.1202  0.0829  0.0314
10701W        W30981   5.845   6.078  16.540  0.1778  0.0357 -0.1846
10702W        W30982   4.204   9.632   1.136  0.1468  0.1119  0.0805
10703W        W30983   4.016   6.238  12.438  0.0987 -0.0793 -0.1699
10704W        W30984   1.213  17.076  15.195  0.0307 -0.0662 -0.0546
10705W        W30985  17.247  16.900  16.104 -0.1229 -0.1825 -0.2521
10706W        W30986  16.748   5.704  14.311  0.0363  0.0061  0.0542
10707W        W30987   9.293  13.835   3.148  0.0244 -0.0109  0.2265
10708W        W30988   3.017  17.483   5.092 -0.2013  0.0314  0.0597
10709W        W30989  10.802   0.508  15.224 -0.1826 -0.0176 -0.1417
10710W        W30990   2.448   5.702   2.906  0.0243  0.0146 -0.1149
10711W        W30991  14.269   6.242  14.814  0.1225 -0.0090  0.1956
10712W        W30992   4.403   4.656   0.696 -0.2057  0.1227 -0.3111
10713W        W30993  14.440  16.236   0.845 -0.2123 -0.0273 -0.4747
10714W        W30994  11.518   7.678   4.542  0.0733  0.1209  0.2278
10715W        W30995   4.606   0.564   2.353  0.0789 -0.2465 -0.3666
10716W        W30996   9.924   3.444   0.519 -0.2412 -0.0884 -0.1231
10717W        W30997   2.232  13.638  14.861  0.2194 -0.2395 -0.3984
10718W        W30998   8.850  13.140  13.877  0.1777 -0.0650  0.2296
10719W        W30999  13.639  17.406  16.516 -0.0719  0.2086  0.1694
10720W        W31000  17.230   5.037  15.728  0.0799 -0.0471 -0.1461
10721W        W31001  15.512  16.839  14.783 -0.1227 -0.4025 -0.0106
10722W        W31002  11.109  10.316   1.933 -0.0292 -0.2494  0.5001
10723W        W31003   8.288   6.389   3.846 -0.3312 -0.1152  0.0838
10724W        W31004   5.069   0.383   2.275  0.2331 -0.0332  0.2128
10725W        W31005   3.721   8.874   1.317  0.2432  0.0620  0.2025
10726W        W31006   8.243   2.796   2.574 -0.2933  0.0070 -0.2165
10727W        W31007  12.392   4.694   3.880  0.1078 -0.1022  0.2294
10728W        W31008  12.084  13.469  16.668  0.0625 -0.4273  0.0527
10729W        W31009   9.986  12.794   3.760  0.1210 -0.1153 -0.1207
10730W        W31010   6.590  17.240  15.502  0.1325 -0.0670 -0.0795
10731W        W31011   1.038   4.620   0.648  0.1218 -0.1027  0.1034
10732W        W31012   4.230  10.666   0.844  0.2547 -0.1663  0.0686
10733W        W31013  10.550  17.618   0.742 -0.2558  0.2339  0.1996
10734W        W31014  15.763   7.768  12.760  0.1687  0.1323  0.0813
10735W        W31015   5.860  10.731  14.623 -0.0559  0.3746 -0.1311
10736W        W31016  13.341   4.319   2.249 -0.0477 -0.0513 -0.2132
10737W        W31017   0.836   5.433  12.771  0.0790  0.2602  0.1517
10738W        W31018   7.855   1.831   3.810 -0.1222 -0.4299 -0.0518
10739W        W31019   2.734   1.136   0.681  0.0282  0.4701  0.0276
10740W        W31020   9.602  14.986  16.280 -0.0508 -0.1522  0.3557
10741W        W31021  15.928  15.558  12.280 -0.1896  0.0443  0.0451
10742W        W31022   2.919   2.489  15.326 -0.0855  0.0653  0.1786
10743W        W31023  16.090   7.753  15.674 -0.0987 -0.0344  0.0466
10744W        W31024   4.439  14.413  14.322  0.0728  0.1499  0.1322
10745W        W31025  10.617  11.455  15.692 -0.1141 -0.4021 -0.1763
10746W        W31026   2.797  12.233   0.464 -0.0686  0.1816 -0.0226
10747W        W31027   1.135   9.663   0.194  0.1614 -0.2331 -0.0488
10748W        W31028   6.973  13.935   4.670  0.0203  0.1207  0.0486
10749W        W31029   9.605   3.818   0.665 -0.2372  0.0821 -0.0741
10750W        W31030   1.250   8.485  13.564  0.0411  0.0718 -0.3599
10751W        W31031  13.605  10.974   1.966 -0.2338 -0.1002 -0.0123
10752W        W31032  14.996  15.362   2.568 -0.1494 -0.3512 -0.0258
10753W        W31033  12.278   9.250   4.391  0.1819  0.0299  0.2242
10754W        W31034   1.077  15.880   0.317  0.1799  0.2147  0.1331
10755W        W31035  10.855  15.121  14.525  0.1545 -0.1289 -0.2581
10756W        W31036  17.456  12.791  15.479  0.1423  0.0082 -0.1590
10757W        W31037  11.207   4.129  12.912 -0.1337 -0.0378  0.2555
10758W        W31038  16.917   2.673   2.519 -0.1207  0.0165 -0.0691
10759W        W31039   2.630   7.626   1.288 -0.2164 -0.1883  0.1126
10760W        W31040   0.613   0.448   0.919 -0.1062  0.2106 -0.3881
10761W        W31041  17.083   2.888  13.754 -0.1146  0.4491 -0.0765
10762W        W31042  15.066   3.888   0.444 -0.1104 -0.2552 -0.3005
10763W        W31043   0.016   5.930  13.781  0.0429  0.1079  0.2023
10764W        W31044   8.064  15.504  14.675  0.1036 -0.0791 -0.0068
10765W        W31045  10.062   2.967   0.825 -0.1913  0.1921  0.1542
10766W        W31046   6.111   0.769  15.939  0.1616 -0.0324 -0.2042
10767W        W31047  14.002  14.402  16.976 -0.0810 -0.0641  0.1783
10768W        W31048   0.461   9.195  16.249  0.1016  0.1797 -0.1400
10769W        W31049   7.549   2.397  15.172 -0.0072 -0.0556 -0.0226
10770W        W31050   2.527   1.099   2.292 -0.3319 -0.2198  0.0251
10771W        W31051  16.224  16.480  12.998 -0.1066 -0.1091  0.0746
10772W        W31052  11.436   2.263   3.762 -0.2145  0.2741  0.0286
10773W        W31053   8.320   6.990  15.721  0.0220  0.1678 -0.2160
10774W        W31054  16.258  10.802  15.197 -0.1321  0.3744  0.1524
10775W        W31055  12.644   9.294  14.243 -0.2796  0.3510  0.0043
10776W        W31056  16.181  13.353  15.371 -0.2277 -0.0144 -0.0697
10777W        W31057   1.687   6.819   1.480  0.0928 -0.2562  0.0885
10778W        W31058   1.660  17.701  16.271 -0.2213  0.0278  0.0421
10779W        W31059  16.803   3.237  16.391  0.2230 -0.1518 -0.1064
10780W        W31060   5.260   0.444  16.818 -0.1300  0.0326 -0.0429
10781W        W31061   0.205   9.609  16.922 -0.0956  0.1812 -0.2955
10782W        W31062   5.608   8.725   0.445 -0.0265 -0.1261 -0.1961
10783W        W31063   1.939  10.903   2.362  0.3013  0.1944 -0.2114
10784W        W31064   8.512  11.640  15.559 -0.0207 -0.1609  0.1163
10785W        W31065   9.508   5.480   0.448  0.0470  0.0471 -0.2069
10786W        W31066   7.033   3.741  15.832 -0.0512 -0.1088 -0.1720
10787W        W31067   7.381  12.807   3.713 -0.1799 -0.1532  0.2108
10788W        W31068  15.612   4.672   0.738  0.0352 -0.0618 -0.0567
10789W        W31069   1.131  11.315  13.499 -0.0681  0.1529 -0.1111
10790W        W31070   8.396   4.853  12.269 -0.1564 -0.0888  0.0748
10791W        W31071   6.275  13.984  14.995 -0.0693  0.0626  0.2085
10792W        W31072   5.140  12.231   1.220  0.1084 -0.3423 -0.1190
10793W        W31073   2.608  15.786   2.318  0.1081  0.0544  0.1017
10794W        W31074  17.533  16.109  13.724  0.1155 -0.0489  0.1794
10795W        W31075   2.000  13.661   0.911 -0.2129  0.1049 -0.3519
10796W        W31076  14.139  15.796  12.992  0.0184  0.1885 -0.2786
10797W        W31077  11.851   0.581  16.590  0.1853  0.2484  0.4725
10798W        W31078   0.991   1.875   1.572  0.0650 -0.1350 -0.0761
10799W        W31079   4.142  14.759   3.672  0.3363  0.0192 -0.3344
10800W        W31080   2.871  12.132   5.213  0.1330  0.0384 -0.1882
10801W        W31081   4.307   7.284  12.546  0.0621  0.1434  0.1468
10802W        W31082   8.154  12.033  15.154  0.1597  0.1855 -0.0786
10803W        W31083   2.539   8.660   4.264 -0.3642 -0.1167  0.0742
10804W        W31084  12.533   6.106  12.114 -0.0848  0.0990 -0.1452
10805W        W31085  12.389  10.451   1.347 -0.0486 -0.0272 -0.1832
10806W        W31086   2.949   6.575  14.268  0.1239  0.0030  0.3089
10807W        W31087   7.064   5.784   3.955  0.1762 -0.1074  0.2740
10808W        W31088   8.843   2.652  16.395  0.3792  0.2603  0.0568
10809W        W31089   7.757   7.473   3.846  0.0216  0.0104  0.1970
10810W        W31090   2.152   0.713  14.654  0.3454  0.2136  0.1432
10811W        W31091  14.481   2.640  11.914 -0.0036 -0.1010 -0.1587
10812W        W31092   6.906   3.915   2.438  0.2935  0.0838 -0.2007
10813W        W31093   7.571  12.829   2.691 -0.1060  0.1155  0.3824
10814W        W31094   7.958  17.417  12.643 -0.0476 -0.1282 -0.1939
10815W        W31095  15.721   3.769  16.900 -0.1249 -0.4196  0.1921
10816W        W31096   0.037  14.310   3.164  0.0677  0.0458 -0.1434
10817W        W31097   3.816   1.889   0.945 -0.1815  0.1179  0.0623
10818W        W31098   0.384  10.746  13.831 -0.2201 -0.0143  0.1212
10819W        W31099  14.059  11.285  13.842 -0.2144  0.2035 -0.1292
10820W        W31100  15.099  10.807  14.896 -0.0602 -0.2006  0.1676
10821W        W31101   3.705   5.764   6.046 -0.2518  0.4227 -0.1786
10822W        W31102  10.993   6.393   4.321 -0.2957 -0.2063  0.0206
10823W        W31103   7.572   5.596  15.218 -0.1572 -0.0385  0.0314
10824W        W31104  11.763   4.554  15.937  0.0765  0.1399 -0.1585
10825W        W31105  11.534  13.532  13.305 -0.2430 -0.1345 -0.2069
10826W        W31106   9.013  17.063   3.230 -0.0616  0.0446  0.0381
10827W        W31107   0.679   4.602   0.322  0.0721 -0.3060  0.1319
10828W        W31108   9.244   5.194  15.021  0.1491 -0.3579  0.1174
10829W        W31109   6.272   1.456   1.153 -0.1275 -0.4136  0.2323
10830W        W31110   2.486   4.447   3.517 -0.0666 -0.1576  0.0377
10831W        W31111  13.168   9.917  13.649  0.1012  0.0642 -0.0500
10832W        W31112   2.376   1.267  16.855  0.1714  0.1601  0.0969
10833W        W31113  13.621  11.331   4.248 -0.1097 -0.2046 -0.2066
10834W        W31114   9.626   8.634  13.299  0.1308 -0.1772 -0.2292
10835W        W31115   2.255  10.083   4.123  0.0012  0.0478 -0.1224
10836W        W31116  16.214  16.572  15.393  0.0997  0.0268  0.1030
10837W        W31117   3.378   7.714  13.399  0.1354  0.2979  0.1473
10838W        W31118  15.529   1.182   3.438 -0.0120 -0.1230 -0.4549
10839W        W31119   5.011   0.240  15.340  0.1613 -0.1593  0.1499
10840W        W31120  11.721  16.408  15.523  0.2825 -0.1276 -0.0529
10841W        W31121   0.836  17.404  15.097 -0.0196  0.1349 -0.2308
10842W        W31122   3.441   5.554   4.112 -0.5683  0.0001  0.0532
10843W        W31123   0.241   7.938  11.236 -0.2893  0.1502  0.1314
10844W        W31124   6.980   3.346  16.706 -0.1848  0.0060  0.0563
10845W        W31125   5.653   6.894   0.299 -0.0345 -0.2945  0.2314
10846W        W31126   3.649  15.875   0.550  0.0545  0.1458  0.0655
10847W        W31127   6.162  16.719   0.272  0.1552  0.1348 -0.0703
10848W        W31128  11.544  15.663   1.539 -0.2121 -0.0927 -0.1511
10849W        W31129  13.847  12.976  16.465  0.2815  0.2061 -0.2049
10850W        W31130  16.228  14.001  15.145  0.0016  0.0759  0.0462
10851W        W31131   4.542   8.093  12.864  0.1975 -0.1257  0.1881
10852W        W31132  14.045  15.797   1.575 -0.2728 -0.0940  0.0175
10853W        W31133  15.065   4.891  16.218 -0.2124 -0.0185 -0.0339
10854W        W31134  15.198   1.997  15.558 -0.4296 -0.0321  0.0467
10855W        W31135   9.733  15.116   0.919 -0.1554  0.0623 -0.2504
10856W        W31136   5.243   4.791  14.653  0.0760 -0.0696  0.1240
10857W        W31137   6.821  11.556   4.992 -0.1356  0.0013  0.3248
10858W        W31138  14.489   2.413  12.394  0.3510  0.0565  0.1303
10859W        W31139   4.066  15.232  16.118  0.2026  0.0895 -0.0854
10860W        W31140   1.393   5.118   4.100 -0.0466  0.1095  0.0438
10861W        W31141  11.273  11.940   4.672  0.0142 -0.0026 -0.1262
10862W        W31142   0.983   4.674  15.684 -0.1800 -0.2369  0.1876
10863W        W31143  12.031   3.891   2.135 -0.3264  0.3460 -0.0676
10864W        W31144  14.730   1.562   2.390  0.0813  0.2070  0.1418
10865W        W31145   2.607   8.448   2.039  0.2587 -0.4378 -0.2004
10866W        W31146   2.621   8.769  14.745  0.0576 -0.0146 -0.0848
10867W        W31147   8.920   9.075  13.977  0.0605  0.1216 -0.1182
10868W        W31148  11.022   9.677  13.773 -0.1092  0.0046  0.0647
10869W        W31149   0.820  10.771  15.246 -0.3466 -0.2550  0.1568
10870W        W31150  15.603   9.083   0.750 -0.2343  0.0673 -0.0018
10871W        W31151   7.294   0.792   5.233  0.1040 -0.1013 -0.0546
10872W        W31152   2.575   1.618  15.567  0.1544 -0.0377 -0.0737
10873W        W31153   3.758   3.040   2.180 -0.0665 -0.0986 -0.3488
10874W        W31154   3.976   5.397  13.678 -0.0205 -0.1806 -0.1693
10875W        W31155   7.733  12.926   4.069 -0.0326  0.3238 -0.1134
10876W        W31156   0.858   9.233  13.687 -0.1339 -0.1857  0.0808
10877W        W31157   8.109   3.830  14.925 -0.1297 -0.0566  0.1605
10878W        W31158   1.476  17.256  14.780 -0.1544 -0.0692  0.0931
10879W        W31159  15.892   6.873  15.292 -0.1367  0.1320 -0.0120
10880W        W31160   2.189   4.306   3.073 -0.0745  0.1892  0.0988
10881W        W31161   5.078   8.358  15.390  0.1442  0.2546 -0.0179
10882W        W31162  10.035   7.640  14.599 -0.0164  0.3442 -0.0315
10883W        W31163   8.263   5.212   0.702  0.3147  0.1901 -0.2660
10884W        W31164  14.642  11.986   2.873  0.1314  0.2386  0.1303
10885W        W31165   6.584   7.078   1.883  0.0335 -0.0210 -0.0203
10886W        W31166  11.825  15.760  15.071  0.0216  0.1411  0.0030
10887W        W31167  12.712   1.215   2.292 -0.0695  0.0013 -0.0615
10888W        W31168   5.303  15.294   3.043  0.4883  0.3784  0.0700
10889W        W31169  14.465   2.010   1.062  0.3053 -0.1802 -0.0223
10890W        W31170  16.004  13.193   2.067  0.1863  0.3242 -0.1076
10891W        W31171   8.065   2.823   3.356  0.1696 -0.0647  0.0011
10892W        W31172  17.127   8.290  14.958  0.1630 -0.1023 -0.0641
10893W        W31173  16.113   2.763  12.372 -0.1770 -0.0608  0.1979
10894W        W31174   5.282  13.491   1.369  0.1266 -0.2035  0.0425
10895W        W31175  14.043   1.175  12.114  0.1806  0.2026  0.2171
10896W        W31176  15.617   3.015   3.680 -0.2004 -0.0316  0.2675
10897W        W31177  10.472   8.556   4.470 -0.0743  0.0195 -0.0525
10898W        W31178   0.202   4.298   3.469 -0.2174 -0.3283 -0.1274
10899W        W31179   7.907  16.434  12.552  0.1638 -0.1504 -0.1681
10900W        W31180  14.941   0.103   3.628 -0.1134  0.0235 -0.0294
10901W        W31181  13.798   6.595   2.477  0.1889 -0.1166 -0.3621
10902W        W31182  14.328  11.264   4.521 -0.0821  0.3061  0.0448
10903W        W31183  15.503  13.589  16.179 -0.2377  0.2754 -0.1236
10904W        W31184  14.067   9.533  13.610  0.0226  0.1051 -0.1117
10905W        W31185   5.420   1.967   1.685 -0.1785 -0.1768 -0.1949
10906W        W31186   1.258  13.801  12.942  0.2263  0.0555 -0.0708
10907W        W31187  16.850   8.532  12.443  0.1998 -0.1217  0.0817
10908W        W31188  16.017   0.010  12.748  0.2163 -0.0644 -0.1095
10909W        W31189   5.344  12.408  15.238 -0.2119  0.1912  0.1591
10910W        W31190   3.298   0.154   4.911  0.2576 -0.0666  0.1415
10911W        W31191  10.805   2.175  16.480  0.1053 -0.0053  0.2464
10912W        W31192  14.057   7.125   3.264 -0.3246 -0.1760 -0.2023
10913W        W31193  14.715  10.870  16.138 -0.3969  0.2629 -0.1001
10914W        W31194  16.304   0.778  14.723  0.2498 -0.1333  0.3758
10915W        W31195   2.882   7.346  16.269 -0.1031  0.0707  0.0898
10916W        W31196  15.009   0.750   2.576 -0.1379 -0.0540 -0.3546
10917W        W31197  12.756   1.615   0.003  0.2068  0.1973 -0.2458
10918W        W31198   7.349   8.057  15.504  0.1072 -0.2527 -0.1885
10919W        W31199   1.892  16.512  15.474  0.1994 -0.1585  0.3532
10920W        W31200  11.577  11.805   4.234  0.3748 -0.0403  0.2785
10921W        W31201  11.520  14.197  16.406  0.1293 -0.1583 -0.2820
10922W        W31202   8.646   1.280   0.420  0.4286 -0.0260  0.0777
10923W        W31203  10.417   3.490  16.573  0.0373  0.0433  0.0120
10924W        W31204  11.639  12.419  14.379 -0.1996 -0.0210  0.2568
10925W        W31205   3.779  11.982   4.235 -0.0468  0.1571  0.2310
10926W        W31206   6.114  11.014   4.409 -0.0239  0.0792 -0.1405
10927W        W31207   1.529   2.625   0.400 -0.0446  0.1502 -0.1582
10928W        W31208   5.977  12.365   1.772  0.0319 -0.0288 -0.0884
10929W        W31209  15.737  13.053   2.785  0.1832  0.0100 -0.1453
10930W        W31210   2.585  13.366  16.213  0.0870  0.1046 -0.0877
10931W        W31211   2.748   4.046   4.016  0.1199 -0.0062 -0.1271
10932W        W31212  11.289  13.871  15.586  0.1583 -0.1224 -0.0073
10933W        W31213   5.624   3.181   3.266  0.0517 -0.1092  0.0513
10934W        W31214  10.996  12.738  16.562  0.0785 -0.1684 -0.4651
10935W        W31215   3.784  12.516   2.069  0.1454  0.3712  0.0191
10936W        W31216  11.787   1.473   2.334  0.2469  0.2025  0.1674
10937W        W31217  16.042   9.026  13.867 -0.0720 -0.3601  0.0013
10938W        W31218   4.461   3.090   3.363 -0.1796 -0.2088  0.2955
10939W        W31219   5.243   3.067   1.019 -0.1106 -0.1418 -0.0534
10940W        W31220  17.639   6.139   1.670  0.0910  0.1184 -0.1366
10941W        W31221   5.140   9.323   1.328 -0.2515  0.1630  0.1919
10942W        W31222  16.180  11.247  14.024  0.3244 -0.0558 -0.0346
10943W        W31223   7.790   0.847  14.465 -0.1334  0.2104 -0.2280
10944W        W31224   5.135   7.399  14.362 -0.3379 -0.3267  0.2622
10945W        W31225  15.273  13.929   2.066  0.0789 -0.1862 -0.2547
10946W        W31226  14.702   5.366  16.100  0.0477  0.0178 -0.0782
10947W        W31227   6.454   8.696   1.621  0.1640  0.0118  0.0473
10948W        W31228  15.938  10.342  15.780 -0.1664  0.0162  0.1218
10949W        W31229   9.863  11.034  13.765 -0.0826  0.6225  0.2293
10950W        W31230  13.245   3.261  14.265  0.1285 -0.0809 -0.0040
10951W        W31231   4.886   7.070  16.200  0.1738 -0.1504  0.2166
10952W        W31232   1.593   9.951  13.607 -0.0967 -0.0470  0.0575
10953W        W31233   0.464  16.052  16.648 -0.0695  0.1904 -0.1327
10954W        W31234  14.641  11.076  12.037  0.1392 -0.0154  0.0326
10955W        W31235  13.485  11.521   4.746  0.1723  0.1809 -0.0389
10956W        W31236   8.189   7.831   1.706  0.2618  0.0620 -0.3183
10957W        W31237  14.826  14.339  16.000  0.4126 -0.1361 -0.1213
10958W        W31238   7.216   8.293  12.653 -0.1797 -0.0975  0.1282
10959W        W31239   0.301  12.967   3.667  0.0220 -0.0854 -0.0208
10960W        W31240   9.508   5.456   2.849 -0.0520 -0.0052  0.0391
10961W        W31241   9.219   5.561  13.077  0.0197  0.0366  0.3322
10962W        W31242  11.368   8.283  16.760 -0.3604 -0.0210 -0.0142
10963W        W31243   6.913   0.122  14.604 -0.1645  0.0005  0.1265
10964W        W31244  13.054  10.372  16.608 -0.0031  0.2768 -0.0441
10965W        W31245   9.535  15.161  15.088 -0.2182  0.0219  0.0217
10966W        W31246   5.529   4.481   4.908  0.0129 -0.2630 -0.1214
10967W        W31247   7.756  12.075  13.795 -0.0775 -0.0580  0.0808
10968W        W31248  11.510   4.015  15.850 -0.1459 -0.2903 -0.1746
10969W        W31249   8.630  17.418  13.828  0.6002 -0.3979 -0.0071
10970W        W31250  15.470  10.708   3.858 -0.1762 -0.0387 -0.0376
10971W        W31251  11.209  11.212   4.001 -0.2369 -0.1688 -0.0966
10972W        W31252   9.987   3.212  13.951  0.1539  0.0948 -0.0673
10973W        W31253  12.325   5.660  14.337  0.2929 -0.1137  0.0946
10974W        W31254   3.466   5.174  14.802 -0.2176 -0.1599 -0.1945
10975W        W31255   2.703  11.469   1.090 -0.0053  0.1484 -0.2724
10976W        W31256   4.869   3.518  12.900  0.0745 -0.2269 -0.1268
10977W        W31257  13.540   2.979  12.121  0.0551  0.0470  0.0407
10978W        W31258  16.389  15.830   3.604  0.1572  0.1509 -0.1338
10979W        W31259   6.388   8.771   4.999 -0.2054  0.3912  0.1653
10980W        W31260   7.370   9.888   4.383  0.2194 -0.2297 -0.0595
10981W        W31261   3.664   3.387   2.697  0.0352 -0.1344  0.1321
10982W        W31262  17.385  15.822   2.900 -0.0077  0.2917  0.1210
10983W        W31263  12.950  16.621   4.796  0.2821 -0.1568  0.0820
10984W        W31264  14.245   1.827   3.269  0.0828  0.0155  0.3791
10985W        W31265   8.875   7.304  12.369 -0.0123 -0.0887 -0.1193
10986W        W31266   6.960   2.698   2.975 -0.2266 -0.1847  0.0861
10987W        W31267  10.811  16.986  12.336 -0.2988  0.0260 -0.1747
10988W        W31268   4.892  10.856   3.298 -0.0138  0.0150  0.1103
10989W        W31269   4.965   3.148   4.446 -0.3773 -0.1517 -0.2124
10990W        W31270  11.248   4.850   0.724  0.2446 -0.1985 -0.0635
10991W        W31271   9.702   7.996   2.516 -0.0669 -0.3043  0.0623
10992W        W31272   2.496  17.703  16.368  0.3313 -0.1181  0.0086
10993W        W31273   2.397   9.711   3.524 -0.0084 -0.0949 -0.0041
10994W        W31274   3.172  10.381  15.914 -0.1781  0.1068  0.1199
10995W        W31275   1.002   3.612   1.474  0.2022  0.1318 -0.2373
10996W        W31276   5.137   3.322   4.973  0.1191  0.2231 -0.2941
10997W        W31277   7.348   6.469  11.983  0.1764  0.1165 -0.3913
10998W        W31278   7.505   0.371  16.764  0.1433 -0.1604  0.0483
10999W        W31279   6.316  10.052  16.533  0.1142 -0.0222  0.1279
11000W        W31280   2.189   4.216   0.477  0.0485  0.0944 -0.0517
11001W        W31281   0.324   0.431  15.951 -0.0168 -0.2192  0.0464
11002W        W31282   5.241   2.789  11.976 -0.1931  0.0693  0.3054
11003W        W31283   9.996   9.474   4.741 -0.1215 -0.3130 -0.1186
11004W        W31284  11.709   7.982  12.509  0.0324  0.0511 -0.3557
11005W        W31285  17.026  12.346   3.747 -0.2972  0.1056 -0.0660
11006W        W31286  15.643  14.875   5.117 -0.4149 -0.0413 -0.0940
11007W        W31287   4.671   5.854  15.098 -0.0424  0.1674  0.1066
11008W        W31288  10.638  14.029   3.675  0.3278 -0.2760  0.0593
11009W        W31289   2.185   1.059  16.361 -0.0644 -0.1724 -0.2477
11010W        W31290   2.443  15.226  16.822 -0.0483  0.2403 -0.0476
11011W        W31291   2.879   6.023   2.000  0.0561  0.2151  0.3511
11012W        W31292   3.354   5.061   2.145 -0.1659  0.1146 -0.0041
11013W        W31293  11.255  16.620  14.802 -0.1600  0.3046  0.1482
11014W        W31294   0.919   5.976  13.346 -0.4258  0.2401  0.3202
11015W        W31295   3.055   4.873   4.828  0.1386 -0.1033 -0.1800
11016W        W31296  16.665  17.495   5.106  0.0716 -0.0338  0.0269
11017W        W31297   8.947  11.676  15.772 -0.0191 -0.2155 -0.1727
11018W        W31298  17.535  14.178   1.854 -0.2437  0.2424  0.0034
11019W        W31299   8.220   8.193   2.056  0.0155  0.0007  0.0823
11020W        W31300   3.097  10.993  15.338  0.1155  0.1794 -0.2379
11021W        W31301  17.421  10.303   2.532  0.1438 -0.0268  0.1858
11022W        W31302  13.055   8.341   0.463 -0.0964  0.1931 -0.0534
11023W        W31303   3.112   1.476   0.391 -0.1353 -0.0274  0.0221
11024W        W31304  17.251   2.276   2.943 -0.3316  0.0063 -0.1333
11025W        W31305  15.963  12.695  13.193  0.0136 -0.3766  0.3361
11026W        W31306   6.874  15.341   4.282  0.2422 -0.0172  0.2027
11027W        W31307   5.302  13.058  12.599  0.2009  0.1531 -0.2094
11028W        W31308  16.788   2.422  16.834  0.0903 -0.0531 -0.1084
11029W        W31309   2.435   5.796  16.164 -0.0320  0.0667  0.1773
11030W        W31310  10.593  11.766  12.995 -0.2698 -0.2613  0.1248
11031W        W31311  17.334   9.976   4.378  0.0517  0.1943  0.0172
11032W        W31312  12.748   0.093   4.105  0.2170 -0.5335  0.3912
11033W        W31313   4.902   4.434   2.661 -0.1075  0.2573  0.1955
11034W        W31314   4.242  12.000   2.555 -0.1722  0.0900  0.0076
11035W        W31315  13.879  14.508  16.220  0.1558 -0.0560  0.0685
11036W        W31316  12.395   4.722   3.294  0.1339 -0.1175  0.1264
11037W        W31317   1.973   5.718   3.655 -0.2795  0.4797 -0.1747
11038W        W31318  13.169  15.361  15.446 -0.3037  0.1612 -0.3940
11039W        W31319   6.014  17.518   2.501  0.1685 -0.0280  0.0341
11040W        W31320   0.769  14.494   1.556 -0.1513 -0.0622 -0.1890
11041W        W31321   4.119   8.000   4.847 -0.3653 -0.0978 -0.3043
11042W        W31322   7.839   1.921   1.858 -0.3144 -0.0281  0.0787
11043W        W31323   7.611  11.659   0.721 -0.1504  0.1339  0.0988
11044W        W31324  10.729  13.503   4.505  0.0101  0.1152  0.1158
11045W        W31325   7.376   5.403   2.727 -0.1804 -0.1516  0.1156
11046W        W31326  11.679   2.939   2.506 -0.0625  0.0961 -0.1689
11047W        W31327  16.738   6.491  14.896  0.0889  0.0704  0.3764
11048W        W31328   5.066  11.152   0.068  0.1719 -0.1886 -0.1679
11049W        W31329   8.781   1.729   1.715  0.2108  0.0041  0.1722
11050W        W31330  10.683   8.302   1.264  0.0134  0.1510 -0.0121
11051W        W31331  10.056   1.963   2.398 -0.2821  0.1356  0.0026
11052W        W31332  12.478   0.310   1.222  0.3079  0.0316  0.0145
11053W        W31333   8.651   0.218  12.637  0.0726  0.0143  0.0706
11054W        W31334  10.294  15.476   2.917  0.0185  0.1954 -0.3310
11055W        W31335   6.210   5.505   3.320 -0.0786  0.1399  0.2601
11056W        W31336  15.869  10.568  14.170  0.1473  0.0619 -0.0362
11057W        W31337   7.807  11.318   1.045  0.3770  0.1379  0.3314
11058W        W31338  11.702  11.261  16.481  0.1643  0.1328  0.0372
11059W        W31339   2.344   6.365   0.937 -0.2258  0.2425  0.2177
11060W        W31340  17.209  13.775  13.093  0.1449 -0.0712  0.0553
11061W        W31341  17.245  15.046  15.609  0.2826  0.2510 -0.0296
11062W        W31342   0.703   1.537   2.315 -0.2876  0.0063  0.0685
11063W        W31343   9.571  16.179   4.724  0.3315 -0.0196 -0.1127
11064W        W31344   3.309   3.412   4.835 -0.2734 -0.2713  0.1450
11065W        W31345   2.765   8.199  16.470 -0.1363  0.4681 -0.2718
11066W        W31346   2.068  15.958  14.508  0.0833  0.0130 -0.1390
11067W        W31347   3.448  12.741   0.090 -0.1058 -0.0188  0.3997
11068W        W31348   0.597   1.048   0.198 -0.0183 -0.1087  0.1371
11069W        W31349   0.429   5.962   1.452 -0.5011  0.2483 -0.1550
11070W        W31350   3.063   9.497   4.482  0.0008 -0.1850  0.0377
11071W        W31351  13.544  13.467  15.304 -0.0080 -0.3197  0.1445
11072W        W31352   9.423   3.185  15.920  0.0017 -0.0238  0.1980
11073W        W31353  15.046  16.681   2.919 -0.0668 -0.0179  0.2771
11074W        W31354   9.595   1.879  11.685 -0.1803 -0.1562 -0.0410
11075W        W31355  13.396   4.982  14.571  0.3651 -0.1024 -0.2479
11076W        W31356  10.256  16.271   1.600  0.0560 -0.0247 -0.3320
11077W        W31357   9.801  17.563   2.989  0.0483 -0.0210  0.0243
11078W        W31358  14.590   8.855   0.899  0.0002  0.0330  0.1159
11079W        W31359  16.997   2.458  13.460  0.2727 -0.0335 -0.2626
11080W        W31360   1.300   3.636  14.761 -0.1124 -0.0057 -0.0751
11081W        W31361  11.460  15.321  13.101  0.2362  0.1739 -0.1012
11082W        W31362   2.802   9.571   3.076  0.2201  0.1750  0.2933
11083W        W31363  14.553  12.348   4.730  0.4719  0.1591  0.3094
11084W        W31364   9.193   0.379   1.876 -0.0325  0.0627  0.2613
11085W        W31365  16.374  14.749   0.382  0.0292 -0.0744  0.1309
11086W        W31366  16.128  13.946   1.493 -0.1845 -0.0302 -0.0412
11087W        W31367  12.161  14.499   3.948 -0.2165 -0.1624 -0.0573
11088W        W31368  13.148   1.443   4.116  0.1776  0.2099  0.1834
11089W        W31369   9.919  14.623  12.820 -0.0187  0.2675  0.0141
11090W        W31370   5.155  16.235  14.248 -0.0099  0.2264 -0.0544
11091W        W31371   0.950   5.690   2.795 -0.0861  0.0063  0.2888
11092W        W31372  15.938   5.591  12.942  0.0671  0.0316  0.1320
11093W        W31373  10.794  11.739   3.424  0.0171 -0.1993 -0.0099
11094W        W31374  14.432   9.608   1.625 -0.1886  0.1527  0.1066
11095W        W31375  12.603  14.113  15.660 -0.2477  0.2323  0.1145
11096W        W31376   1.456  17.090  13.260  0.4276 -0.0397  0.0260
11097W        W31377   2.817   2.947   2.377  0.0611  0.3025 -0.2957
11098W        W31378   4.320  15.763  15.561 -0.0063  0.1592  0.2591
11099W        W31379   2.839  17.132   0.085 -0.0827  0.0953 -0.2914
11100W        W31380  10.926  16.809   0.983  0.0714 -0.1594  0.1511
11101W        W31381   0.374   9.062  17.003 -0.0300  0.3150 -0.3187
11102W        W31382  15.998  12.781  14.102  0.0188  0.1771 -0.1527
11103W        W31383  11.206  11.877  12.288 -0.1391  0.0529 -0.0367
11104W        W31384   8.731   3.554   3.502 -0.2194  0.0235 -0.1365
11105W        W31385  14.199   0.877  13.343 -0.2401  0.0981  0.2946
11106W        W31386   7.495   2.189  12.378  0.2501 -0.0596 -0.2569
11107W        W31387   3.191   6.112  15.860 -0.3629 -0.3413 -0.0509
11108W        W31388   8.436   4.065   4.695  0.0306 -0.0173 -0.0266
11109W        W31389  15.033  12.634   1.139 -0.0228 -0.1163 -0.1742
11110W        W31390  11.562   4.621   1.599  0.0215 -0.1122  0.0207
11111W        W31391   3.982   6.263   4.026  0.0972 -0.0135  0.4591
11112W        W31392  16.431  14.588   4.035 -0.0629  0.0091  0.2450
11113W        W31393  14.222  13.809  14.741  0.0561  0.0051  0.1077
11114W        W31394  16.918   2.806   4.250 -0.1985 -0.1341  0.0838
11115W        W31395   7.347  16.916   1.052  0.0587  0.0837  0.1895
11116W        W31396   3.377   7.172  16.351 -0.0324 -0.0928 -0.0589
11117W        W31397  17.262  17.107   4.859  0.1982 -0.2070  0.1082
11118W        W31398   3.071  13.321  16.401 -0.0477  0.1260  0.1252
11119W        W31399   8.469   9.979   2.748 -0.1315  0.2041  0.1816
11120W        W31400  13.324  16.236   4.598  0.0519  0.0894 -0.1449
11121W        W31401   4.335  10.122  16.607 -0.3130 -0.1010  0.1270
11122W        W31402   2.228   1.232   1.436 -0.0727 -0.2379  0.0939
11123W        W31403  13.658   1.588  14.912 -0.1006  0.1397 -0.4397
11124W        W31404  14.055   8.169   0.282 -0.1016 -0.2937 -0.0348
11125W        W31405   9.904   9.712   0.468  0.0065 -0.1439 -0.0632
11126W        W31406  13.251  11.892  15.727 -0.0615  0.2644 -0.0280
11127W        W31407  16.284   4.180  16.251  0.3498  0.1737 -0.1907
11128W        W31408   1.290   8.500  16.955  0.2480 -0.0517 -0.2695
11129W        W31409  14.348   8.246   2.552  0.1418  0.0266  0.0326
11130W        W31410  15.487  14.908   3.502 -0.1036  0.0621  0.3433
11131W        W31411   3.065   1.642  15.489  0.2945 -0.0478  0.0255
11132W        W31412   6.701  12.152  15.923 -0.0408 -0.1037 -0.2891
11133W        W31413   5.359   8.397   4.297  0.2546 -0.1049 -0.2449
11134W        W31414  12.593  11.573  13.591  0.1103  0.0796 -0.0388
11135W        W31415   2.917   5.041   3.063 -0.0888  0.0433 -0.3662
11136W        W31416   4.019  12.757   1.446 -0.1468 -0.5181  0.0168
11137W        W31417   9.799   5.620   3.441 -0.0152 -0.0903 -0.3529
11138W        W31418  17.374   2.060  12.478 -0.0789 -0.1362  0.0251
11139W        W31419   0.891  17.399   4.128 -0.1975  0.0339 -0.0248
11140W        W31420  12.940  13.750  16.341  0.1415 -0.1986  0.0103
11141W        W31421  15.531   6.692  14.970  0.0070  0.2075 -0.0185
11142W        W31422   5.242   8.550   2.855 -0.2997  0.2064 -0.6759
11143W        W31423   3.862  12.685  16.618 -0.2756  0.0109 -0.4083
11144W        W31424   0.327   3.210  16.674  0.0362 -0.3485 -0.2971
11145W        W31425   4.015  15.729  15.971  0.1265  0.2020  0.0136
11146W        W31426  11.999   1.171   3.318  0.0767 -0.0250 -0.0282
11147W        W31427   4.737   8.047  12.418 -0.2901  0.1398  0.0309
11148W        W31428  10.439   7.280  13.031 -0.1004  0.0537 -0.0030
11149W        W31429   4.617  17.368  16.441 -0.1647  0.4716  0.2465
11150W        W31430  12.685  11.493   4.940  0.2512 -0.1200  0.0559
11151W        W31431   2.454   2.887  14.607  0.2485  0.0225 -0.0307
11152W        W31432   4.966   6.368  14.142 -0.0262 -0.2965 -0.3664
11153W        W31433  16.104  15.599   0.669  0.0598  0.0816  0.2247
11154W        W31434   6.691  12.285   4.810  0.1919  0.0456  0.2252
11155W        W31435  15.363  10.133   0.504 -0.2266  0.3027  0.1799
11156W        W31436  13.356  10.446   1.109  0.2719 -0.3610  0.3070
11157W        W31437  16.060   0.379  14.879  0.0572  0.0322 -0.1145
11158W        W31438  10.860   6.437   2.542  0.1811 -0.0367  0.1537
11159W        W31439  15.603   4.275   4.073  0.2899  0.1143  0.0826
11160W        W31440   0.705  14.141  12.586 -0.0790 -0.0581  0.2624
11161W        W31441   2.078   4.332  12.895 -0.1110  0.1183  0.2969
11162W        W31442   9.508   8.935  12.908  0.2032 -0.1109  0.0248
11163W        W31443   7.222   3.872  14.071  0.1759 -0.0293 -0.0918
11164W        W31444  13.819   5.121  13.741 -0.0826 -0.0286 -0.2654
11165W        W31445   5.565   1.932   4.319 -0.0819  0.2959 -0.1052
11166W        W31446   5.529  10.979  14.225  0.0989 -0.0319  0.1203
11167W        W31447   3.848   1.750   3.099  0.4224  0.1055  0.1501
11168W        W31448   6.558  13.226   4.794  0.0063 -0.1330  0.0221
11169W        W31449   4.214   3.064  13.345  0.2253  0.0429  0.2130
11170W        W31450  11.184   6.361   0.252  0.1059 -0.1303  0.1227
11171W        W31451  15.170   4.355  14.128 -0.0965  0.2087 -0.0282
11172W        W31452   6.847   3.130  13.163  0.0293 -0.1968  0.0041
11173W        W31453   6.254  15.440  15.089 -0.2322  0.0575  0.0559
11174W        W31454  12.525   5.613  13.268 -0.0162  0.1393 -0.0639
11175W        W31455  13.025   2.697   1.541 -0.0577  0.1286  0.2079
11176W        W31456   4.659   9.850  14.387  0.2781  0.0212 -0.2333
11177W        W31457  15.237   2.484   4.848  0.1293  0.2970 -0.0607
11178W        W31458   2.961  10.072  15.442 -0.0007 -0.3142  0.0856
11179W        W31459   4.955  15.523   0.405 -0.0546  0.0465 -0.2398
11180W        W31460   5.466  17.728  15.665 -0.1071  0.0145 -0.1743
11181W        W31461  12.544   2.230  12.398  0.1507  0.2461 -0.0726
11182W        W31462   9.525   7.075  16.715  0.0882  0.2895  0.0319
11183W        W31463   1.785  13.092  13.060 -0.0592 -0.1819  0.0277
11184W        W31464  12.877   8.286  14.844  0.3754 -0.3876  0.2467
11185W        W31465  10.249   7.852   1.877 -0.0397  0.2021 -0.1984
11186W        W31466   0.903   4.376  14.787 -0.3795  0.1115 -0.1760
11187W        W31467  12.703  16.588   0.717  0.1698  0.3387  0.1071
11188W        W31468   3.054   6.814  16.575 -0.1352  0.1826  0.1931
11189W        W31469  12.026   9.880   1.628  0.1033 -0.0154  0.0847
11190W        W31470   4.865   8.459  11.274  0.2808 -0.1866 -0.0868
11191W        W31471  17.239   4.082   0.765 -0.0612 -0.2504  0.1804
11192W        W31472   1.802   4.711  13.750 -0.0068  0.1464  0.1069
11193W        W31473   8.588  11.043  17.017 -0.0771  0.1855  0.0683
11194W        W31474  13.216  17.692  16.398 -0.0309  0.2200 -0.2563
11195W        W31475   5.046  16.755  15.738 -0.0804  0.2002 -0.2767
11196W        W31476  16.404  14.238   0.775 -0.2147  0.1278  0.1882
11197W        W31477  10.103   1.220   3.954 -0.1134  0.1659 -0.1931
11198W        W31478   1.980  14.690   2.306  0.0209  0.1548  0.3253
11199W        W31479  12.919   5.835  15.755  0.2723 -0.0338 -0.0719
11200W        W31480  15.417   7.345   4.682  0.0807  0.0940  0.3725
11201W        W31481  14.235   5.588  15.996  0.3581 -0.2773  0.0992
11202W        W31482   6.597   8.242   4.792 -0.2734 -0.0835  0.0513
11203W        W31483  11.756  12.722  16.419 -0.1152  0.2521  0.2994
11204W        W31484  17.527  15.615  13.819 -0.0273 -0.1966 -0.0490
11205W        W31485   4.963  16.488  16.900  0.0275 -0.3170  0.2656
11206W        W31486   2.682  13.356  15.157 -0.2836 -0.1308  0.0277
11207W        W31487  12.287  10.374  13.480 -0.2296 -0.2412  0.1487
11208W        W31488   6.304  15.134  13.370  0.0903 -0.2133  0.0812
11209W        W31489  12.155   1.722  13.368 -0.2653 -0.0463  0.2404
11210W        W31490  13.077   7.988  15.320 -0.1314  0.4498  0.3621
11211W        W31491   7.027  13.477   4.316  0.3783  0.3614 -0.0374
11212W        W31492   8.686   1.712  11.060  0.2180  0.1161  0.3444
11213W        W31493  10.038  17.328   4.351  0.1647  0.1888  0.0837
11214W        W31494  10.128   3.503   3.369 -0.2033  0.0351  0.2033
11215W        W31495   4.964   9.004  13.134 -0.0635 -0.0176 -0.1148
11216W        W31496  17.734   2.000  16.878  0.2229 -0.0626 -0.0589
11217W        W31497   2.295  14.303   4.058  0.2531  0.4091 -0.1792
11218W        W31498   3.320   0.288  14.147  0.0111 -0.0421  0.0008
11219W        W31499  13.442  14.664   2.041  0.2744 -0.0237  0.2617
11220W        W31500   7.281  17.518   3.369  0.2224 -0.1818  0.0303
11221W        W31501   3.950   0.428  14.735 -0.1831  0.0727 -0.3278
11222W        W31502  16.614   3.865  11.727  0.2159 -0.0113  0.2416
11223W        W31503  13.883  13.987   0.352 -0.0383  0.1519  0.1626
11224W        W31504   0.740   0.172  15.285 -0.2808 -0.0538 -0.0964
11225W        W31505   4.176  17.302  16.664  0.1165 -0.2230  0.0781
11226W        W31506  17.580   5.010  14.932 -0.0042 -0.3496 -0.1412
11227W        W31507  16.857   9.314   3.959  0.2756 -0.0826 -0.0891
11228W        W31508  11.582  11.271  14.194 -0.1791 -0.1608  0.0800
11229W        W31509   0.422  13.449  14.344  0.3281 -0.2379 -0.2472
11230W        W31510  14.568   8.690   1.858  0.0681  0.1661 -0.0282
11231W        W31511  16.118   3.442  13.586 -0.0206 -0.2651  0.1697
11232W        W31512   7.304   0.579  16.369 -0.0844 -0.2456 -0.0418
11233W        W31513   2.426  15.227   2.473  0.3573  0.1430 -0.0411
11234W        W31514   2.033   9.508  14.822  0.0722 -0.2718  0.2920
11235W        W31515   6.697  12.168   3.913  0.2792 -0.3391  0.2143
11236W        W31516  15.833   8.406   1.056 -0.0861  0.1331 -0.3878
11237W        W31517  10.492   4.026  15.360  0.0934 -0.1363 -0.0060
11238W        W31518  16.508   4.011  16.687  0.0274 -0.2163 -0.1246
11239W        W31519  11.657   5.153   1.040  0.0729 -0.0028 -0.2113
11240W        W31520   7.043  15.758   3.830  0.1504  0.3216  0.0956
11241W        W31521  13.206  16.824   3.875  0.0599  0.2015  0.0940
11242W        W31522   6.168   7.236   3.153  0.1634  0.3875 -0.0404
11243W        W31523  13.382  14.905   4.708 -0.0250 -0.1206  0.0202
11244W        W31524   1.515  11.484  13.156  0.0697  0.0194 -0.3566
11245W        W31525   5.659  11.201  15.964  0.0537  0.1310 -0.0366
11246W        W31526   7.978   1.461  15.791  0.1679 -0.0180  0.0258
11247W        W31527   6.210  14.632  16.489  0.0941  0.1298  0.2157
11248W        W31528   0.692  10.350  14.359 -0.1196  0.1221  0.0594
11249W        W31529   5.366   4.096   4.636  0.1446 -0.2718  0.2181
11250W        W31530   6.672   4.913  15.069  0.0551  0.2563  0.0223
11251W        W31531   5.379   9.565  14.600  0.3284 -0.1463 -0.1773
11252W        W31532  16.416   4.291   1.796  0.4779 -0.1238 -0.0882
11253W        W31533  10.833  10.852   3.265  0.3175  0.1910  0.1240
11254W        W31534   6.332  11.809   0.442  0.0956 -0.1705  0.2651
11255W        W31535   5.281   1.239   4.963  0.0508  0.3205 -0.0400
11256W        W31536   2.552  12.855  15.172  0.0843  0.0881  0.1407
11257W        W31537   0.762   6.966  16.874 -0.4946  0.1421 -0.1201
11258W        W31538   1.983   9.505   2.739  0.1162 -0.1453 -0.2285
11259W        W31539   2.291   0.978  12.710 -0.0805 -0.0990 -0.0358
11260W        W31540  10.646   4.448   2.578 -0.0618 -0.1663  0.1945
11261W        W31541   2.448   1.746  14.943 -0.1277 -0.0165  0.0392
11262W        W31542   8.935  14.225  16.080 -0.1708  0.0215 -0.0999
11263W        W31543   4.442   9.605   1.648  0.0557 -0.1760 -0.1707
11264W        W31544  15.889  12.204  11.879 -0.2753 -0.0718 -0.0555
11265W        W31545   1.560  14.149  16.437 -0.1073  0.3089 -0.4060
11266W        W31546   9.853  14.829  13.590  0.1111 -0.0589  0.2007
11267W        W31547  15.307   3.348   3.912  0.1812  0.0403  0.2743
11268W        W31548  13.834  15.145   4.561  0.1952  0.0232  0.0796
11269W        W31549  17.056   4.945   2.299 -0.0409  0.0224 -0.0454
11270W        W31550   3.461   6.326   0.722  0.1392 -0.1618  0.0062
11271W        W31551  16.857   8.863   3.678  0.0591 -0.4186  0.2031
11272W        W31552   4.079  14.741  12.465  0.0478  0.0754  0.3209
11273W        W31553  16.385  13.550  13.596 -0.2479  0.0627 -0.0329
11274W        W31554   4.066  15.255   5.105  0.0756  0.0659 -0.0112
11275W        W31555  10.230   6.806  12.162  0.2903  0.0921 -0.1662
11276W        W31556   9.215   6.189  13.189  0.3100  0.0201  0.0124
11277W        W31557   8.261   7.566   0.826  0.0132  0.2571 -0.0037
11278W        W31558   2.885   4.334  12.150  0.1515  0.2929 -0.1276
11279W        W31559  17.539   3.960  14.992 -0.0668  0.1491 -0.0231
11280W        W31560  16.329  16.980  16.767 -0.1075 -0.0393  0.2653
11281W        W31561  10.756   3.118   0.775 -0.1382  0.1143  0.2826
11282W        W31562  14.371   7.867   3.641 -0.0289 -0.2766  0.1122
11283W        W31563  12.562  16.261  14.694 -0.2798 -0.0615 -0.3376
11284W        W31564  16.323  12.308   2.973  0.2162  0.0287  0.2377
11285W        W31565   7.755  15.399  16.418  0.1338  0.0867 -0.0403
11286W        W31566   9.280   0.791  16.914  0.0219  0.0767 -0.0428
11287W        W31567   4.607  10.927  16.918 -0.0559  0.2018  0.2703
11288W        W31568   7.259   2.735  14.820  0.2203  0.1500 -0.1333
11289W        W31569   9.367  10.271  14.275  0.1692  0.3481 -0.0339
11290W        W31570   5.401   3.409   4.240  0.2749  0.0080  0.1822
11291W        W31571  14.553  10.625   3.720  0.0829  0.0776 -0.0190
11292W        W31572   8.800  16.802   2.632  0.3266 -0.3579  0.2025
11293W        W31573   5.327  15.216  13.427 -0.0448 -0.2848  0.3438
11294W        W31574   4.352  14.934  14.484  0.0620  0.1820 -0.0260
11295W        W31575   6.906   5.871   1.285  0.1130 -0.1340 -0.2815
11296W        W31576   8.850   1.430  14.831  0.3038  0.2042 -0.1304
11297W        W31577  15.358  15.372   3.610 -0.1731  0.1245  0.0786
11298W        W31578   9.132   0.452  16.446 -0.1427 -0.4121 -0.2407
11299W        W31579   8.803   9.496  14.407  0.3051  0.0915  0.3391
11300W        W31580   7.463  11.963  15.862 -0.0641 -0.1737 -0.1893
11301W        W31581   0.165   9.672  12.377  0.2053  0.1408 -0.4947
11302W        W31582   9.257   3.005   0.068  0.2636 -0.0544 -0.0994
11303W        W31583  17.575  14.103  15.070  0.0750  0.3352 -0.3779
11304W        W31584   4.449   1.387   3.993  0.0133 -0.0703 -0.0556
11305W        W31585  12.432  14.675   2.051 -0.2084 -0.0873  0.0609
11306W        W31586   7.561   0.094  13.774 -0.2976  0.0282  0.0082
11307W        W31587   4.669   8.280  16.578 -0.3235  0.1738  0.1449
11308W        W31588   2.267  10.746   1.958  0.1806  0.0261 -0.1109
11309W        W31589  10.639   4.992  15.478  0.1447 -0.3040 -0.2786
11310W        W31590   9.213   0.944  14.941  0.1085 -0.1071 -0.0213
11311W        W31591  14.649   2.919   3.023  0.3725  0.1998 -0.2594
11312W        W31592   1.438   1.044   4.534  0.2629 -0.2309  0.1285
11313W        W31593  15.458   4.242   1.067  0.2249 -0.0300 -0.0910
11314W        W31594   0.127  14.639  14.784  0.0300 -0.0589  0.2988
11315W        W31595  14.840   2.364   0.989 -0.0791  0.0074  0.0202
11316W        W31596   3.604   6.781   0.920  0.2069 -0.3577 -0.0688
11317W        W31597   3.989   2.006  12.784 -0.2255 -0.3352  0.1205
11318W        W31598  15.216   6.132   1.402 -0.1471 -0.0682 -0.1956
11319W        W31599  10.019   0.123   4.908 -0.0511  0.0747 -0.1495
11320W        W31600  10.304   1.958  13.235 -0.1607  0.0186  0.1686
11321W        W31601   5.629   4.797   1.200 -0.0097  0.1041  0.3117
11322W        W31602   3.029  16.991   2.410  0.3063  0.1838 -0.3747
11323W        W31603   4.994  14.813  15.193  0.0066 -0.0317 -0.1165
11324W        W31604   8.911   5.835   3.457  0.5639  0.2053 -0.1336
11325W        W31605   9.322   9.771  15.143 -0.2443 -0.1691 -0.1290
11326W        W31606  15.937  17.459  15.991  0.0988 -0.0917 -0.1653
11327W        W31607   3.124   4.491   0.357 -0.1879 -0.1031 -0.1822
11328W        W31608  15.023  14.567  16.829 -0.1376 -0.2583  0.1158
11329W        W31609  16.527   0.197   1.381  0.5511  0.0276  0.0840
11330W        W31610   7.563  16.298  13.001 -0.2598 -0.0170  0.3409
11331W        W31611   8.542  15.209  13.981  0.2549  0.1082 -0.0820
11332W        W31612   0.634  14.255  16.245 -0.0938 -0.2374 -0.1876
11333W        W31613   1.332  14.533  11.960  0.0380  0.0936  0.1448
11334W        W31614   9.355   1.217  15.883 -0.1213 -0.3989  0.2631
11335W        W31615  12.082   7.687  16.852  0.0242 -0.1337 -0.0506
11336W        W31616   5.939   0.720  12.345  0.0230  0.0595  0.0774
11337W        W31617   8.927   9.971   2.316  0.0465  0.0852  0.0366
11338W        W31618   2.694   8.806   1.228 -0.1160 -0.0538  0.1415
11339W        W31619  11.751   1.721   3.327 -0.0077  0.0525 -0.2354
11340W        W31620   8.022   3.252  16.607 -0.2070  0.1556 -0.0725
11341W        W31621   1.502  11.903  12.226  0.4588 -0.2638  0.1089
11342W        W31622  12.881   9.882   2.486  0.0031  0.1235 -0.1431
11343W        W31623  14.131  13.530   0.072  0.0885 -0.0972 -0.2540
11344W        W31624  17.656  16.942  12.174 -0.1987  0.2275  0.1821
11345W        W31625   7.720  12.324   4.851 -0.1366 -0.2609  0.1294
11346W        W31626  12.985   5.368  12.549  0.0295 -0.0182  0.2469
11347W        W31627  17.046  17.306  15.536 -0.0046 -0.1335  0.0376
11348W        W31628  12.007  15.948   1.383 -0.4279  0.2185  0.2076
11349W        W31629   9.242   8.603   0.383  0.0397 -0.2011 -0.1332
11350W        W31630  15.680   2.454  12.722 -0.2059  0.0764  0.0308
11351W        W31631   2.586   1.390   4.520 -0.1028 -0.4587  0.1857
11352W        W31632   6.887  11.386   4.386 -0.0317 -0.0206  0.0723
11353W        W31633  15.938   6.644  14.726  0.1633 -0.1007  0.1069
11354W        W31634  14.284  17.103  15.771  0.0658  0.2817 -0.0143
11355W        W31635  17.026  13.492  15.356  0.0093 -0.1957  0.0581
11356W        W31636  16.137  16.554  15.894 -0.2113 -0.1413 -0.0932
11357W        W31637  10.613  11.600  13.949 -0.0109 -0.1006 -0.2083
11358W        W31638  14.662   2.006  16.875  0.2415  0.0023 -0.0011
11359W        W31639   6.393   1.820  13.120 -0.0221 -0.4726  0.2704
11360W        W31640   1.909  13.414  13.435  0.1496 -0.0242  0.0718
11361W        W31641   1.464   2.444   0.949 -0.0240  0.2535  0.0804
11362W        W31642  13.371   6.133   0.875  0.0143 -0.1764  0.0373
11363W        W31643   5.786  15.541   1.504 -0.2816 -0.1159  0.0716
11364W        W31644   5.509  14.631  15.079  0.2063 -0.3277  0.2906
11365W        W31645  10.868   0.320  14.257  0.1577  0.0003  0.0282
11366W        W31646   5.143   8.107   0.486 -0.1151  0.2176 -0.1948
11367W        W31647   1.702   4.316   4.074  0.0036 -0.3698  0.1133
11368W        W31648   5.855   1.148  14.390  0.1051 -0.1071  0.0388
11369W        W31649  15.984   0.458   2.545  0.1073 -0.2021 -0.0181
11370W        W31650  17.694  11.847   4.093 -0.2293 -0.2189  0.4100
11371W        W31651   0.745   9.556   3.776  0.0233 -0.0617 -0.1932
11372W        W31652  12.230  16.517   4.449  0.2735  0.0661 -0.1682
11373W        W31653   8.894  17.654  15.570  0.2951 -0.0425 -0.1794
11374W        W31654   1.095  12.208   0.922 -0.0949 -0.0849  0.1162
11375W        W31655  17.019  14.493  14.210 -0.0141 -0.0042 -0.0545
11376W        W31656  15.443   8.310   2.279  0.0879  0.0461  0.1028
11377W        W31657   8.093   1.953  13.327  0.2389  0.0036  0.2736
11378W        W31658   7.831   9.682   3.163 -0.0777  0.0789 -0.0464
11379W        W31659  10.966  15.060   3.897  0.0398 -0.0604  0.1180
11380W        W31660  11.701   0.467   2.641  0.1876  0.0413 -0.1488
11381W        W31661  14.200  13.088   0.803 -0.0018 -0.3272  0.0620
11382W        W31662  13.490   6.565   3.190  0.1117 -0.2821 -0.1888
11383W        W31663  12.323  11.890   4.886 -0.3265  0.2171  0.1258
11384W        W31664   1.936   3.242  15.333 -0.2771 -0.1056  0.1754
11385W        W31665  15.630  10.753  15.991  0.1759  0.0599  0.1537
11386W        W31666  11.178  13.462   4.934  0.2426 -0.2260  0.0811
11387W        W31667   3.083   1.852   4.049 -0.0665  0.0831  0.0561
11388W        W31668   4.321   1.213  12.291 -0.0345  0.1505 -0.1136
11389W        W31669   7.109   5.458  12.665 -0.0015 -0.2443  0.2412
11390W        W31670  15.739   2.507  15.416  0.1006  0.1219  0.0553
11391W        W31671  15.250   6.593   1.643 -0.1694 -0.1667 -0.0949
11392W        W31672   6.414  17.535   4.313 -0.0116  0.0976  0.2818
11393W        W31673   8.103   7.074  15.278  0.1826 -0.0587 -0.1385
11394W        W31674   6.608   9.761  16.228 -0.2483  0.0519 -0.1043
11395W        W31675   6.013   2.809   4.430  0.1086  0.1504 -0.1168
11396W        W31676   4.319  16.043   4.264 -0.0512  0.1636 -0.0271
11397W        W31677   1.916  15.382  15.180  0.2523  0.0339 -0.1553
11398W        W31678   8.414   0.385   4.314 -0.1189  0.0024 -0.2481
11399W        W31679   0.257  16.802   0.973 -0.2537 -0.0710  0.1965
11400W        W31680   1.096   8.318  13.960  0.2884  0.0130 -0.0627
11401W        W31681   8.631  16.423   3.658 -0.1266  0.0566 -0.1252
11402W        W31682  14.794  10.535  12.292 -0.0667 -0.2260 -0.1185
11403W        W31683  15.277  15.053  14.164 -0.1970  0.0414  0.0813
11404W        W31684   9.622  10.238   3.511  0.0837 -0.2964 -0.0556
11405W        W31685   6.733  11.047   1.638  0.0955  0.0700 -0.2332
11406W        W31686   2.848   4.779   3.517  0.0083  0.1628  0.0423
11407W        W31687   9.489   1.253  14.129  0.0135  0.0374 -0.0581
11408W        W31688   1.136   5.812  14.297  0.0119  0.0441  0.0715
11409W        W31689   5.260  14.591  16.878  0.0963  0.1436 -0.2980
11410W        W31690   6.883  14.153  16.389 -0.1541  0.2102 -0.0451
11411W        W31691  12.133   1.667   3.027  0.0338  0.0400 -0.0980
11412W        W31692  16.802   8.640   4.552  0.0258 -0.2288  0.0973
11413W        W31693  16.369   1.748  12.432  0.1675  0.0457  0.2997
11414W        W31694  11.417   7.504  16.350 -0.3196 -0.0774  0.1389
11415W        W31695   2.867   7.191   4.163  0.1332 -0.0808  0.3454
11416W        W31696   5.319  17.285  13.156  0.1909  0.0314 -0.0733
11417W        W31697   8.046  14.024   0.403  0.2709  0.1710 -0.0224
11418W        W31698  12.753   4.909  16.085  0.0518 -0.0071  0.0781
11419W        W31699   3.476  17.307  13.183  0.2695  0.0122 -0.1179
11420W        W31700   8.735   2.129   3.021 -0.0782  0.2109 -0.3077
11421W        W31701  13.781  13.866  16.900 -0.0917 -0.4098  0.1406
11422W        W31702   9.349   5.352  11.973 -0.1959 -0.0833 -0.2164
11423W        W31703   2.871   0.849  13.352  0.1286  0.0665  0.1675
11424W        W31704  16.287   7.385  14.703  0.0233  0.1105 -0.1152
11425W        W31705  12.303   5.903   0.042  0.0503 -0.0435  0.1193
11426W        W31706  13.307  14.702  14.733 -0.2160  0.4061 -0.1209
11427W        W31707   2.531   3.921  12.136 -0.1027  0.1493  0.0315
11428W        W31708   1.686  15.687   2.147  0.1526 -0.3185 -0.0679
11429W        W31709   8.059  17.636  13.857  0.0337 -0.0010  0.0185
11430W        W31710  17.310  13.625  12.563  0.1603  0.0591  0.1973
11431W        W31711   8.151  16.584   0.391 -0.0553 -0.1081  0.4074
11432W        W31712  12.982  10.624   0.105  0.0724  0.0777  0.1253
11433W        W31713  15.134   2.201   2.782 -0.1182  0.1604 -0.2319
11434W        W31714   2.216   6.859  14.688 -0.1463 -0.1204 -0.1445
11435W        W31715  11.605  16.246  14.576 -0.1663  0.2440 -0.2034
11436W        W31716  11.694  14.410  12.639 -0.0239  0.0906 -0.0420
11437W        W31717  10.009  17.101   1.186  0.0272  0.1713 -0.3299
11438W        W31718   6.529   6.474   2.065  0.0078  0.2491 -0.1263
11439W        W31719   6.885  15.817   3.275  0.2277 -0.1182  0.0976
11440W        W31720   6.562   4.071  11.913 -0.2965  0.3105  0.1466
11441W        W31721  13.223  16.859  13.978 -0.4126 -0.0599  0.0480
11442W        W31722  12.205  15.371   0.148 -0.0037  0.1356 -0.0941
11443W        W31723   6.955  13.023   4.478 -0.0268 -0.4087 -0.2273
11444W        W31724  11.673  17.015  13.238  0.2597  0.1199  0.2662
11445W        W31725  14.758  16.946   3.916  0.1555 -0.2432 -0.0311
11446W        W31726  16.925  12.792  13.443  0.2883  0.1111 -0.0723
11447W        W31727   3.356   7.853   4.980 -0.2573  0.0457  0.1284
11448W        W31728  16.866   8.470  14.603  0.1255  0.1436  0.0818
11449W        W31729   4.619  11.822   4.642  0.3419 -0.0151  0.1441
11450W        W31730  15.816  12.661   2.284  0.0167  0.1904  0.0639
11451W        W31731  12.078  12.697   3.373  0.1390 -0.0836  0.0158
11452W        W31732  15.617   4.645   0.224  0.0161  0.1988 -0.0350
11453W        W31733   1.700   4.878   2.605  0.0288  0.0855  0.0863
11454W        W31734  16.724  12.046  12.213  0.0759  0.1349 -0.3401
11455W        W31735   5.234  12.071   4.411  0.0547 -0.0415  0.3426
11456W        W31736   5.189   9.611  16.261 -0.0545  0.1002 -0.2571
11457W        W31737  11.589  15.768   4.101  0.0060  0.0971 -0.0668
11458W        W31738   6.526   5.359  12.018  0.0240  0.2793 -0.0628
11459W        W31739   7.839  14.335   4.109 -0.0587 -0.3457 -0.3506
11460W        W31740  16.559   8.891  14.850 -0.1725  0.4870 -0.0253
11461W        W31741  11.253   3.934  15.320  0.1182 -0.2204  0.3347
11462W        W31742   8.112   6.713   2.621  0.0356  0.1229  0.3260
11463W        W31743  10.445   2.911  13.987 -0.2445 -0.0942  0.1395
11464W        W31744  16.339   6.079  14.166  0.1833  0.2056 -0.1394
11465W        W31745   0.700  17.715   1.284 -0.1863  0.4603  0.0620
11466W        W31746   3.150   9.037   1.029 -0.0303 -0.3390 -0.0667
11467W        W31747   0.567  14.335  14.589 -0.3721 -0.2270 -0.1460
11468W        W31748   6.293   2.745  12.618  0.1271 -0.0127 -0.2867
11469W        W31749   8.466   9.150  14.248  0.0048 -0.0647  0.0391
11470W        W31750   2.584   0.522   1.464 -0.0009  0.2720  0.1402
11471W        W31751   2.459   7.187   2.037 -0.2393 -0.1218 -0.2218
11472W        W31752   1.357   5.405  13.626  0.1276 -0.1718  0.0409
11473W        W31753   7.711   6.820  13.298 -0.4599  0.1106 -0.0068
11474W        W31754   0.807  12.935  14.199  0.1202  0.0432  0.3011
11475W        W31755  12.914   9.963  14.906 -0.0602 -0.3477 -0.0483
11476W        W31756  13.777  14.943   0.919  0.0153  0.0358  0.1072
11477W        W31757   5.709  17.524  14.851  0.1170 -0.1394  0.1740
11478W        W31758  11.997  13.628  14.490 -0.1991 -0.0305 -0.1979
11479W        W31759   9.792   9.292   4.260  0.1868  0.0380  0.1187
11480W        W31760   7.314   9.001  14.955 -0.0714 -0.3152 -0.0492
11481W        W31761  16.090   5.902  12.164 -0.0410  0.0523 -0.0222
11482W        W31762  10.849   2.114   4.742 -0.3588  0.0036  0.3305
11483W        W31763  14.242  14.097   1.815  0.2191 -0.1316  0.1238
11484W        W31764  10.053   8.598  12.020 -0.0092 -0.2241  0.2174
11485W        W31765   4.535  12.775  14.580  0.1994 -0.1510  0.0292
11486W        W31766   8.466  15.061  13.498  0.0182 -0.0189  0.1747
11487W        W31767   5.066   9.481   4.144 -0.3470  0.1907  0.0554
11488W        W31768   5.144   6.966   1.016  0.2179  0.2491  0.0291
11489W        W31769   5.681  14.528   3.499  0.0628  0.4273  0.1918
11490W        W31770  13.561   2.305   1.332  0.1587  0.0496  0.1528
11491W        W31771  11.959   0.482   4.927  0.2223  0.2586  0.0317
11492W        W31772  15.558   9.079   3.914  0.2690  0.2301  0.2080
11493W        W31773  12.623   1.615  13.498 -0.1824  0.1181 -0.0508
11494W        W31774  15.054  12.316  13.550  0.0947  0.1344 -0.0808
11495W        W31775  11.055   7.363  16.023  0.2684  0.0088  0.0357
11496W        W31776   6.123   7.466  16.982 -0.2648  0.0522 -0.1903
11497W        W31777   4.211  17.721  16.395 -0.1523 -0.1969 -0.0825
11498W        W31778  16.840  11.651   4.311 -0.2435  0.0333  0.2916
11499W        W31779   1.830  12.738   3.469  0.3970 -0.0560 -0.1087
11500W        W31780  10.955  15.758   4.328 -0.1740 -0.2719  0.2723
11501W        W31781  12.411  14.345   4.808  0.0848  0.0468  0.1690
11502W        W31782  14.337  10.971   4.066 -0.2313 -0.3396 -0.0552
11503W        W31783  16.995  15.495   2.990 -0.1942  0.1465 -0.2235
11504W        W31784  13.741   9.193   3.829 -0.0110  0.0236  0.2326
11505W        W31785   6.665  17.074   1.925  0.2747  0.0291 -0.0611
11506W        W31786   9.562  17.654   2.133  0.1766 -0.2210 -0.0414
11507W        W31787  17.371   6.316  13.317  0.2540  0.3411 -0.2213
11508W        W31788   2.336   4.232  15.023 -0.1212 -0.2991  0.4364
11509W        W31789  14.610  14.777   2.084 -0.0275 -0.2032 -0.1055
11510W        W31790   0.832   6.330   3.540  0.0939 -0.1147  0.1234
11511W        W31791  16.688   0.968   3.835 -0.0843  0.0578 -0.2375
11512W        W31792  11.485   3.527   0.625 -0.0219 -0.0576  0.2216
11513W        W31793  14.453   8.531   3.430 -0.0009 -0.1449 -0.0663
11514W        W31794  17.519  11.994   0.618 -0.1684  0.2453 -0.1121
11515W        W31795   9.276  16.074   4.189 -0.3128 -0.1213 -0.1075
11516W        W31796   2.387   4.920   0.518  0.1283 -0.2243  0.2898
11517W        W31797   4.682   0.098   2.301 -0.2348 -0.1748  0.1032
11518W        W31798   9.735   9.649   2.955  0.3555 -0.1985 -0.1796
11519W        W31799  16.536   4.631  16.295 -0.0306 -0.0769  0.1306
11520W        W31800   9.360   2.873   3.004  0.1574 -0.2919  0.1567
11521W        W31801  13.740  15.393  13.167 -0.0544 -0.0559  0.0442
11522W        W31802  10.479   4.860   0.722  0.0882 -0.3248 -0.1378
11523W        W31803   0.444  13.699   4.978 -0.1428  0.3149  0.3803
11524W        W31804   6.997  10.063   2.778 -0.0224 -0.0173 -0.0576
11525W        W31805  13.793   7.304  15.064 -0.1744  0.2171 -0.2757
11526W        W31806   7.638  12.923  16.094 -0.1802  0.1777  0.1656
11527W        W31807   6.184   2.362   4.230 -0.4189  0.3198  0.1205
11528W        W31808  10.518  11.762  14.704  0.0209 -0.0720  0.4126
11529W        W31809   0.801   5.974   1.131  0.0732 -0.0650 -0.1845
11530W        W31810   2.257  13.419   2.084 -0.0470 -0.0440 -0.1293
11531W        W31811   8.381  15.274   4.795  0.1387 -0.1673  0.3151
11532W        W31812   2.193   6.557   3.172 -0.1503  0.0002  0.0154
11533W        W31813   2.262   7.324   1.195 -0.2879  0.3025  0.0821
11534W        W31814   0.979   9.469   4.255 -0.2652 -0.0021 -0.0176
11535W        W31815   9.432   5.797  13.478 -0.0940  0.3695  0.3165
11536W        W31816   2.140   1.877  13.676 -0.2283  0.1119 -0.0666
11537W        W31817   7.939  13.792   4.179  0.3729 -0.0087 -0.2318
11538W        W31818  15.169   0.116  14.859 -0.2427  0.1821  0.0197
11539W        W31819   2.467  16.264   3.602  0.3595 -0.1540 -0.2373
11540W        W31820  10.493   3.010  16.596 -0.1111 -0.1684 -0.1063
11541W        W31821   4.340  10.152   0.363 -0.2409  0.3262 -0.2860
11542W        W31822   6.331  10.525  16.464 -0.3315  0.1067 -0.2281
11543W        W31823  13.500  11.342  16.565  0.1890 -0.2030 -0.0186
11544W        W31824   0.088   4.972   1.772  0.0072  0.1032  0.0374
11545W        W31825   7.370  14.226   0.844 -0.0514 -0.1313 -0.1422
11546W        W31826  10.022  13.084  16.917 -0.1116 -0.3783 -0.0653
11547W        W31827   8.564  17.561  15.171  0.1934  0.4050 -0.3749
11548W        W31828   3.317  15.456  13.790 -0.1944 -0.1303 -0.0111
11549W        W31829   7.003   0.982  16.271 -0.2729 -0.1792 -0.2273
11550W        W31830   8.342  16.152   4.403 -0.0449  0.0400 -0.0897
11551W        W31831   6.649  11.879  13.922  0.2961  0.1629 -0.1203
11552W        W31832  12.142   4.131   2.534  0.1272  0.0973  0.1694
11553W        W31833  10.663  11.889  12.254 -0.0542  0.1495  0.0089
11554W        W31834  15.334   5.186  14.897  0.1912 -0.0758 -0.0287
11555W        W31835   4.686  11.252   4.310  0.0721 -0.4776 -0.1417
11556W        W31836   6.348   1.793   3.564 -0.1218 -0.1921  0.0716
11557W        W31837  13.021  13.385   4.597 -0.1706 -0.0984 -0.0602
11558W        W31838   9.295  10.738  14.581 -0.3700  0.0424 -0.0013
11559W        W31839   2.870  16.293   1.112  0.0023 -0.1313  0.1405
11560W        W31840   3.069  13.818   4.807  0.0653  0.1109 -0.0294
11561W        W31841  17.063  16.757  12.186 -0.1181  0.0816 -0.3208
11562W        W31842   1.616   8.892  13.494  0.2489  0.1775 -0.1639
11563W        W31843  11.925  13.175   0.398  0.2624  0.0859  0.1696
11564W        W31844   1.891   7.633   4.682 -0.0352  0.2704 -0.1213
11565W        W31845   4.904  12.241  15.315  0.1458  0.0311  0.2147
11566W        W31846   9.271   8.297  13.428  0.0487  0.0496  0.0627
11567W        W31847   0.998  16.774   2.834 -0.1510  0.0822  0.1269
11568W        W31848   4.637   1.376  16.787 -0.0907  0.0060 -0.1664
11569W        W31849  10.887   3.821   2.881 -0.1882  0.2391  0.5590
11570W        W31850   9.990  15.739   3.214  0.1625 -0.5631 -0.1167
11571W        W31851   5.282   6.420  16.769 -0.0949 -0.0757 -0.1812
11572W        W31852   7.973   0.914  15.733  0.0770 -0.0801  0.0729
11573W        W31853  13.735  14.970  13.911 -0.2927 -0.1327 -0.0330
11574W        W31854  17.139   5.917   1.684 -0.2328  0.1510  0.1307
11575W        W31855  10.544   6.954  14.586 -0.0898  0.0678  0.1139
11576W        W31856   7.182   1.088   0.702  0.1386  0.0570 -0.0321
11577W        W31857   5.570   0.851   2.943 -0.0570 -0.0727 -0.0935
11578W        W31858   0.163   0.539   3.524  0.0158  0.2103  0.1425
11579W        W31859  12.247  14.490   3.446  0.3751  0.1019 -0.0990
11580W        W31860  17.643   8.959  14.812  0.0115  0.0632 -0.0140
11581W        W31861   6.699   9.840  12.889  0.0682 -0.0991 -0.0439
11582W        W31862   0.848   7.234   2.646 -0.1403  0.1126 -0.3577
11583W        W31863   0.290  12.619   1.058  0.1011 -0.0693  0.3866
11584W        W31864  12.409   5.182  14.510  0.1188 -0.2380  0.1741
11585W        W31865  10.737   0.091   2.681 -0.0733 -0.1566  0.1368
11586W        W31866  16.889   7.787   0.228 -0.0181 -0.0058 -0.2502
11587W        W31867  11.274   5.554  14.103  0.0515  0.0458 -0.1274
11588W        W31868  11.196   6.057   1.091  0.1455  0.1709 -0.1377
11589W        W31869   0.460   0.832  13.883 -0.0309 -0.3265  0.0896
11590W        W31870   7.525   4.002  13.707 -0.0597  0.1846 -0.2108
11591W        W31871   1.669   4.247  14.108  0.1928  0.2387 -0.2708
11592W        W31872   3.170   9.697  15.034 -0.1711  0.0964  0.1963
11593W        W31873  10.642  11.738  16.942 -0.1746 -0.0312  0.2221
11594W        W31874   0.582   1.665  14.506 -0.1173  0.0826 -0.0149
11595W        W31875   4.608   7.931  13.801  0.0374  0.1078  0.0214
11596W        W31876  10.916  12.293  14.741  0.0671  0.0292  0.0783
11597W        W31877  16.600   1.411   4.727  0.1298  0.1405  0.3087
11598W        W31878   0.304  12.218  13.455 -0.1229 -0.2329  0.1264
11599W        W31879   4.162   3.321  12.374 -0.1245 -0.1515 -0.2372
11600W        W31880  11.719   5.529  14.963 -0.2063 -0.1050  0.0096
11601W        W31881  16.683  16.054  12.830 -0.0209  0.1008  0.1824
11602W        W31882  15.968   9.317  14.362  0.0545 -0.2919 -0.0360
11603W        W31883  17.553   4.116  12.893 -0.0699 -0.0540  0.0907
11604W        W31884   0.430   8.801   3.488  0.0245  0.1271 -0.3276
11605W        W31885   6.656   7.076  12.356 -0.0270 -0.1015 -0.1227
11606W        W31886   3.386  11.565  16.908 -0.0690 -0.0238 -0.3638
11607W        W31887   4.198   0.227   4.780 -0.2724  0.2426 -0.2396
11608W        W31888   0.910   2.275  13.356  0.0365 -0.3540 -0.1844
11609W        W31889  16.170  17.385   1.934 -0.3246 -0.1905  0.3114
11610W        W31890  16.009  12.197  16.755  0.1707  0.1777  0.0588
11611W        W31891   2.737   5.153  13.161  0.2282  0.0814  0.0564
11612W        W31892   3.513  11.479  11.870  0.2359 -0.1547 -0.0123
11613W        W31893   7.436  13.279   3.593  0.2205  0.1940 -0.0573
11614W        W31894  15.026   7.166  13.080  0.0515 -0.0837 -0.0762
11615W        W31895  15.084   4.087  16.576 -0.0977  0.3286  0.0380
11616W        W31896   5.709  16.439  15.812 -0.0590  0.1794  0.0848
11617W        W31897  10.661  14.184  11.933 -0.0726  0.1079 -0.0059
11618W        W31898   5.513  11.216   1.350 -0.0016 -0.0236  0.0656
11619W        W31899  16.958  10.024  16.515 -0.1989 -0.0012 -0.0678
11620W        W31900  10.335   3.959  16.360  0.1049 -0.2195  0.1151
11621W        W31901   5.385  16.702  14.389  0.0099  0.2558  0.0643
11622W        W31902   1.113   7.167  13.736  0.0043 -0.5398  0.1840
11623W        W31903  12.790   4.314  13.832  0.1441 -0.2938 -0.0397
11624W        W31904   1.307  12.637  14.353 -0.1769  0.1450  0.0067
11625W        W31905  13.830  14.219   0.915  0.0955 -0.0765  0.1946
11626W        W31906   6.564   7.329  14.613  0.1156 -0.1101 -0.1469
11627W        W31907  10.748   7.042  12.325 -0.1081 -0.0591 -0.2554
11628W        W31908  15.364  15.767   3.999 -0.5084  0.2296 -0.1139
11629W        W31909  15.669   5.381  12.570  0.1624  0.1878  0.1505
11630W        W31910  11.364   4.902   4.310 -0.0010 -0.2500 -0.1037
11631W        W31911   1.615   9.637   1.758  0.1585 -0.5215 -0.1317
11632W        W31912   6.159  13.181  16.747  0.1360 -0.1918  0.0703
11633W        W31913   4.546   9.165  16.294  0.1344 -0.1587 -0.2116
11634W        W31914   1.943   4.670  16.316 -0.1044 -0.1233 -0.1426
11635W        W31915   7.233  11.398  15.045 -0.1585 -0.2079 -0.0106
11636W        W31916   2.566   0.873  15.977  0.0980  0.0568  0.0158
11637W        W31917   9.776  13.631   4.237  0.1676 -0.0718  0.0692
11638W        W31918   0.183  13.151   0.480 -0.2312 -0.1712  0.0804
11639W        W31919  12.125   7.081   2.699 -0.0678  0.0963 -0.0123
11640W        W31920   6.721  16.347   2.629  0.1973 -0.1019 -0.2614
11641W        W31921  11.946  11.323   3.548  0.2353 -0.1478  0.2347
11642W        W31922   9.242   1.645   1.449 -0.0026 -0.0212 -0.0803
11643W        W31923   9.071   4.242  13.463  0.1836  0.3830  0.0919
11644W        W31924  14.763  11.163  13.376 -0.1259 -0.1017  0.1118
11645W        W31925   2.468  10.294  14.773 -0.2343 -0.2334 -0.0251
11646W        W31926   1.761   6.768  13.770  0.0832 -0.0168 -0.0095
11647W        W31927   8.614   5.057  13.562 -0.1845 -0.0900  0.0554
11648W        W31928  11.161   4.473  14.467 -0.1539 -0.0554  0.3756
11649W        W31929   6.074   1.509   3.926  0.3841 -0.1756  0.1966
11650W        W31930   1.949   9.889   3.254  0.0650  0.0543  0.2985
11651W        W31931   5.305  14.565  16.246 -0.4248  0.0838  0.0766
11652W        W31932   7.874  17.096  15.881  0.3849 -0.3624 -0.1162
11653W        W31933   3.562   1.972  14.789  0.1371 -0.0060 -0.1523
11654W        W31934  11.907   6.852  14.678  0.2026 -0.3649  0.0831
11655W        W31935   6.391   2.467   0.287  0.2775 -0.0877  0.0887
11656W        W31936   4.364   3.529  13.240 -0.1400  0.0125  0.1822
11657W        W31937   9.093  16.836   0.750 -0.0514 -0.1114 -0.0821
11658W        W31938   7.980   2.049  12.603 -0.0982 -0.1513  0.2287
11659W        W31939   4.485  15.828  15.075  0.0413  0.0451  0.2233
11660W        W31940  17.227  15.114   1.728 -0.0407 -0.2504  0.2784
11661W        W31941  11.554  15.170  15.852 -0.2380 -0.1833  0.0370
11662W        W31942  11.699  16.876  15.681 -0.0025 -0.4312  0.0376
11663W        W31943   8.857   0.472  14.431  0.1811 -0.2079 -0.0034
11664W        W31944  14.508  14.876   4.016 -0.0305  0.0378 -0.0357
11665W        W31945   7.955   6.160   4.250 -0.1767 -0.0930 -0.2872
11666W        W31946   6.266   1.349  15.391  0.0702 -0.2156 -0.0861
11667W        W31947   0.682   4.027   2.803  0.0819  0.1966 -0.1749
11668W        W31948   7.193   0.510   3.732  0.2144 -0.4107  0.0936
11669W        W31949   4.978  10.545   1.719 -0.0581  0.1082  0.2380
11670W        W31950  14.289  15.682   5.850 -0.0497 -0.3770  0.2495
11671W        W31951  11.244  14.107   3.925  0.3834  0.2824  0.1041
11672W        W31952  15.723   6.185  14.781  0.0105 -0.1731  0.2103
11673W        W31953   4.154  14.769  11.316  0.3671 -0.1508 -0.0836
11674W        W31954   3.618   4.867  14.284 -0.2397  0.2007  0.1724
11675W        W31955   8.328  13.983   2.379 -0.2191 -0.1242  0.1082
11676W        W31956  14.251   9.939  13.162 -0.1061  0.3063 -0.0252
11677W        W31957   4.986   3.506   4.015  0.0651  0.0668  0.1190
11678W        W31958   6.258   0.439  13.979  0.4367  0.0934  0.1469
11679W        W31959  10.859   5.550  16.924  0.0851 -0.1605 -0.0538
11680W        W31960   1.270  15.244   4.329 -0.2810  0.0036 -0.1453
11681W        W31961   9.752  15.449   3.634 -0.0696 -0.2287 -0.1951
11682W        W31962  16.640  15.090   3.019 -0.0557 -0.1357  0.0136
11683W        W31963  14.490   1.003   4.694 -0.0106 -0.2060 -0.2038
11684W        W31964   0.401  10.220   4.487  0.1134  0.2244  0.0024
11685W        W31965   0.934  17.699   2.942 -0.0409 -0.3048 -0.0256
11686W        W31966  11.163   5.481  15.314 -0.0960 -0.0234  0.2031
11687W        W31967   1.588   0.065  14.771 -0.0015  0.1712  0.0676
11688W        W31968   6.091   4.088  12.545 -0.0834 -0.3934  0.1520
11689W        W31969   4.138   7.444   4.106  0.1301 -0.3233 -0.2074
11690W        W31970   3.012   1.426   4.275 -0.1239  0.1743 -0.0724
11691W        W31971  16.147   7.304   4.697 -0.4351 -0.5356  0.2153
11692W        W31972   6.563   4.755  16.548 -0.2862  0.0956  0.1014
11693W        W31973   9.464  11.387   0.639  0.2214 -0.0495 -0.0680
11694W        W31974   7.366  15.219   4.958 -0.1904 -0.0632 -0.1004
11695W        W31975  15.676   5.224   4.523 -0.0769 -0.1554  0.0224
11696W        W31976   9.114  15.599   0.489  0.0766 -0.1531  0.2044
11697W        W31977   9.316   4.760  12.594 -0.0924 -0.0631  0.0522
11698W        W31978  10.994   5.684   0.451  0.0377 -0.2017 -0.2561
11699W        W31979   6.254  12.247  16.198 -0.2606 -0.0841 -0.2924
11700W        W31980  11.561  15.938   2.274 -0.1382 -0.0381 -0.0959
11701W        W31981   8.891  15.053   3.546 -0.1233  0.1044  0.1409
11702W        W31982   2.170  15.433   4.065 -0.0791 -0.1065  0.1748
11703W        W31983  14.080   9.991   1.665  0.1078 -0.1872 -0.0524
11704W        W31984   6.488  17.218  14.908 -0.3883  0.0540 -0.1607
11705W        W31985   2.899   9.222  13.003  0.1790 -0.2632 -0.2476
11706W        W31986  14.929  17.557  15.316  0.0199 -0.2020  0.0695
11707W        W31987   6.246  14.980   2.014  0.1228  0.0524 -0.0241
11708W        W31988   2.646   3.349  13.847 -0.0818  0.0558  0.2355
11709W        W31989  17.573  14.893   2.642 -0.0493 -0.1185 -0.1108
11710W        W31990  17.329  12.251   1.070  0.2143  0.0076 -0.1544
11711W        W31991   9.188   4.132   4.978  0.3001  0.1837  0.1061
11712W        W31992  17.606   8.811   2.001 -0.1414  0.1233  0.0353
11713W        W31993   0.087  11.934  14.942  0.3323  0.0327 -0.1142
11714W        W31994  17.187   6.999   0.810 -0.1575 -0.1926 -0.1300
11715W        W31995   6.982   6.453   4.507  0.3111 -0.0344  0.1094
11716W        W31996  16.277   9.718   1.061 -0.1503 -0.0939  0.1637
11717W        W31997   9.169   4.359  16.962  0.0154  0.0059  0.1083
11718W        W31998  13.878   4.241  13.298 -0.0405  0.0894 -0.2149
11719W        W31999  10.071   2.532   4.830 -0.0084  0.1646  0.2354
11720W        W32000   2.415   7.383  12.420 -0.1712 -0.1582  0.2996
11721W        W32001   9.159   9.909   0.969  0.0160 -0.0765  0.0427
11722W        W32002   3.371  13.307  12.465 -0.0580 -0.1779  0.0381
11723W        W32003  13.902  17.504   0.407  0.1978  0.0025  0.0815
11724W        W32004   8.689  13.760  15.938  0.1476  0.2601  0.0520
11725W        W32005   5.028   6.979  13.420  0.1097 -0.0965  0.2496
11726W        W32006  10.444  11.437  15.070  0.1217 -0.0382  0.3232
11727W        W32007  10.312  16.890   4.478  0.0468 -0.3765  0.0183
11728W        W32008   4.317   9.045   0.125 -0.0996  0.2446  0.1184
11729W        W32009  14.753   2.654  12.720 -0.1843  0.0855  0.1046
11730W        W32010   4.673   5.069  12.879 -0.1964 -0.1030 -0.2978
11731W        W32011   3.409   9.882   0.781 -0.0904 -0.1743 -0.0715
11732W        W32012  10.214   8.462   1.130  0.1015 -0.3440 -0.1400
11733W        W32013  11.267  15.260  15.463 -0.1061 -0.0549 -0.0865
11734W        W32014  11.875   3.524  16.685  0.2808 -0.2101 -0.3028
11735W        W32015  11.525   0.297   0.910  0.0018 -0.1069  0.0537
11736W        W32016  14.689   5.422   3.028 -0.2914 -0.0215 -0.1432
11737W        W32017   7.161   9.657   1.207 -0.2140 -0.1075  0.4406
11738W        W32018  15.926  13.768  12.401 -0.2613 -0.0824 -0.0755
11739W        W32019   5.162   8.554  13.152 -0.2567 -0.1537 -0.0034
11740W        W32020  14.260  12.819  14.653  0.0323 -0.1881  0.3485
11741W        W32021   7.408  16.871  13.630  0.1987 -0.0557 -0.0627
11742W        W32022   6.386   8.200  13.345 -0.1959  0.0431 -0.2286
11743W        W32023  12.219   4.049   3.095  0.0499 -0.1671  0.3079
11744W        W32024  17.120  15.315  13.927  0.4756  0.1576 -0.3878
11745W        W32025   8.760  13.571   4.487  0.1787  0.2173  0.2227
11746W        W32026   8.956   1.229  16.133 -0.1161 -0.1243  0.0022
11747W        W32027   6.222   6.335  13.819  0.2332 -0.1880 -0.0080
11748W        W32028   8.004   6.539   1.634  0.0167  0.2215 -0.0096
11749W        W32029  17.734   4.290  16.841 -0.1659  0.1569  0.0630
11750W        W32030  15.848   6.928   1.108  0.2573 -0.0210 -0.1167
11751W        W32031  14.702   3.047   0.969  0.0985  0.0364  0.2304
11752W        W32032   2.604  10.270   4.992  0.0488  0.0290  0.1132
11753W        W32033   5.413   8.103   4.809  0.0941 -0.0940  0.2922
11754W        W32034   7.264   4.895   4.030  0.1634  0.3147 -0.0657
11755W        W32035  14.733  12.847  13.476 -0.0307  0.3209 -0.2809
11756W        W32036   2.393  10.878  16.436 -0.1084  0.0470  0.0227
11757W        W32037  12.070   6.972   1.058 -0.0735 -0.5601 -0.0633
11758W        W32038  14.917   4.799  13.966  0.2741  0.2954  0.3233
11759W        W32039   2.930   3.806  15.525  0.3721  0.5136 -0.1225
11760W        W32040  10.344  10.066  16.022  0.0327  0.1110  0.2620
11761W        W32041   6.048   3.228  17.019  0.0685  0.0121  0.2085
11762W        W32042  15.322   7.472  15.066 -0.2773 -0.0080 -0.0921
11763W        W32043   8.453  13.200   4.246  0.1867 -0.0161 -0.1440
11764W        W32044   8.535   3.410  16.837 -0.1824  0.0016  0.1722
11765W        W32045  10.290   6.297   1.397 -0.1920  0.1393 -0.2373
11766W        W32046   6.538   6.655  12.650 -0.0609  0.0582 -0.0909
11767W        W32047   1.109   6.621   4.394 -0.0682 -0.0950 -0.1556
11768W        W32048  12.595   4.509   1.548  0.3130  0.0100  0.0869
11769W        W32049   3.846  10.244  13.669 -0.3432 -0.2785  0.1132
11770W        W32050  14.347  16.566   4.329 -0.1154  0.0942 -0.1361
11771W        W32051   8.303   3.254  13.538 -0.0469  0.3278  0.1978
11772W        W32052   5.612  11.584   2.374  0.2092  0.1176  0.3909
11773W        W32053  17.145   9.015   4.173 -0.1115 -0.0913 -0.0622
11774W        W32054   0.965   1.865   0.024  0.1727 -0.1358 -0.0122
11775W        W32055   0.488   3.341   4.358  0.0365  0.1544  0.0360
11776W        W32056  14.591  14.929   2.645  0.2527  0.1713  0.1250
11777W        W32057   9.375   5.891   3.147 -0.1076  0.0296  0.2858
11778W        W32058   0.390  16.762  14.031  0.1141  0.2480 -0.0282
11779W        W32059  17.626  12.367  12.970 -0.2574 -0.0854 -0.1235
11780W        W32060  15.751  12.155  13.317 -0.0666 -0.2845 -0.3761
11781W        W32061  14.606  10.457  15.028 -0.4791  0.0622 -0.1894
11782W        W32062   5.994   2.772  16.093 -0.0905 -0.0136 -0.0242
11783W        W32063  12.365  11.007  13.465 -0.0144  0.0167  0.0092
11784W        W32064   3.592  17.208   2.583  0.0368  0.0508  0.1692
11785W        W32065  14.039  12.071   5.063  0.2256  0.0893  0.0643
11786W        W32066   4.706   1.883  16.718  0.2692 -0.2599  0.2827
11787W        W32067   6.056  11.321  14.294 -0.0390 -0.1543  0.3055
11788W        W32068  13.188  17.001   2.060  0.0519  0.0555 -0.0671
11789W        W32069   6.792  15.773   0.721  0.0831 -0.2623 -0.2759
11790W        W32070  15.529  10.745  13.665  0.1309 -0.0287 -0.1412
11791W        W32071  17.410   1.391  14.986 -0.0386  0.1771  0.0419
11792W        W32072   4.689   0.435   4.745 -0.2885 -0.3652 -0.0873
11793W        W32073  16.079   8.057   4.980  0.0947  0.0133  0.3465
11794W        W32074   2.592   0.994   2.748  0.0196 -0.0014 -0.1112
11795W        W32075  16.031  14.383   4.255  0.2742  0.0257  0.0772
11796W        W32076  15.739   4.832   5.791 -0.0503  0.0726  0.1169
11797W        W32077  15.087   8.551   1.053 -0.2033  0.2168  0.1193
11798W        W32078   6.470  17.158   3.420 -0.1038  0.1249  0.2825
11799W        W32079  11.731   5.054  16.896  0.0089 -0.1250 -0.0837
11800W        W32080   2.808   6.206   0.988 -0.1049  0.2119 -0.0374
11801W        W32081   5.721  10.102   2.793  0.1779 -0.3085  0.3168
11802W        W32082   2.905   1.602  12.824 -0.2018 -0.2973 -0.2604
11803W        W32083   7.788  12.446  12.511 -0.2376 -0.2503 -0.4266
11804W        W32084   7.555  10.061  14.344  0.0703  0.0422 -0.3167
11805W        W32085  11.477   0.640  13.446  0.0391  0.4191  0.2887
11806W        W32086   1.770   6.876   3.932 -0.2879  0.6492  0.2379
11807W        W32087  16.399   1.556   1.615  0.0305  0.0439 -0.0297
11808W        W32088  17.123  11.730   5.471  0.0915 -0.3968  0.0669
11809W        W32089   5.960  16.663   4.453  0.3770  0.0589  0.0279
11810W        W32090  15.194  13.665   2.868 -0.3422  0.1498 -0.0390
11811W        W32091  17.009   3.389  14.578 -0.0730  0.0350  0.1684
11812W        W32092   6.528   7.765   4.484 -0.1735  0.3328 -0.2292
11813W        W32093  11.814   2.928  15.286 -0.0910 -0.1963 -0.1621
11814W        W32094   1.609   7.444  16.937 -0.1314 -0.3856 -0.1710
11815W        W32095   9.397  14.241  14.895 -0.0150 -0.0790  0.1929
11816W        W32096  16.080  13.436   2.534 -0.1783  0.1333  0.0275
11817W        W32097   8.084   6.913  16.181 -0.1901  0.1891  0.1636
11818W        W32098  10.059  14.365  12.341 -0.0829 -0.0089  0.1113
11819W        W32099   7.459   4.541   3.213  0.0848  0.0328 -0.1166
11820W        W32100   8.642  12.270  14.851 -0.0560  0.0029  0.3260
11821W        W32101   0.152   2.747  15.279 -0.1668 -0.0997  0.1552
11822W        W32102  12.278  10.588   2.875  0.1790  0.0557 -0.1624
11823W        W32103   9.749   9.920   2.556  0.0378  0.0966  0.1070
11824W        W32104   8.161   9.332  13.177  0.0206  0.0038 -0.2809
11825W        W32105  13.443  15.180  12.192 -0.1979  0.0175 -0.2906
11826W        W32106  16.229  15.290  13.770 -0.1501  0.1740 -0.0633
11827W        W32107  12.609  10.729   0.883 -0.0800 -0.4560 -0.1413
11828W        W32108   3.864   8.419   4.497 -0.1463  0.2857  0.0236
11829W        W32109  12.287   4.632   4.736 -0.0278 -0.0635  0.2018
11830W        W32110  17.204   9.094   1.997  0.0703 -0.1466  0.0318
11831W        W32111   3.760   1.236  16.360 -0.0916  0.2001 -0.2338
11832W        W32112   2.185  11.731   2.286  0.1177  0.2600  0.1608
11833W        W32113  12.673   3.067  15.678  0.0726 -0.0477  0.2227
11834W        W32114   5.835   2.403  12.823  0.2724 -0.1528  0.0789
11835W        W32115   2.265  13.480   0.428  0.2193  0.0242 -0.0944
11836W        W32116   9.480   9.198   1.221 -0.1213 -0.2824  0.2314
11837W        W32117   5.897   9.306  15.746  0.0804  0.0350 -0.1249
11838W        W32118   6.272   1.041   0.890  0.1466 -0.0687  0.2246
11839W        W32119   7.287  12.707  17.007  0.1132 -0.2502  0.1413
11840W        W32120  14.696  14.864   4.831  0.1403 -0.1041 -0.1703
11841W        W32121   7.039  13.718  16.867 -0.0619 -0.2702  0.3828
11842W        W32122   4.583   8.937  15.879  0.2792 -0.3214  0.2917
11843W        W32123  12.484   6.112  13.157 -0.1095 -0.0408  0.4050
11844W        W32124  13.078   8.940  16.385  0.0062  0.0096  0.0970
11845W        W32125   0.092   0.470   0.156 -0.1500 -0.2037 -0.1650
11846W        W32126   6.081   6.976  13.331  0.0601 -0.1868 -0.0687
11847W        W32127   9.693   9.938  15.547 -0.1344 -0.0947 -0.4461
11848W        W32128   4.887   8.748  16.389 -0.0155 -0.2039  0.1450
11849W        W32129  12.037   6.419   0.845  0.3338 -0.0369 -0.1180
11850W        W32130  11.500   7.262   2.010 -0.3659 -0.0803 -0.5826
11851W        W32131   9.907  14.266  15.825  0.0158 -0.2236 -0.0657
11852W        W32132   2.690  14.549  16.330  0.0196  0.0951 -0.1559
11853W        W32133  17.071  13.503   1.612 -0.1241  0.1909  0.2989
11854W        W32134  12.213   3.737   1.041  0.1048 -0.2499  0.0259
11855W        W32135  16.297  10.995   3.741  0.0473 -0.0366 -0.0460
11856W        W32136   0.037  11.919  16.033  0.3034 -0.3331  0.2563
11857W        W32137   1.603   0.080   1.631  0.2700 -0.4916 -0.1874
11858W        W32138   3.284   7.331  13.728  0.4119 -0.1954  0.0098
11859W        W32139   9.398   4.760  15.900  0.0647 -0.0183  0.2843
11860W        W32140   2.353  16.658   3.323  0.1455  0.0817 -0.2127
11861W        W32141  15.467  10.592   0.453 -0.0561 -0.2410  0.1857
11862W        W32142   6.947   7.949   3.113 -0.1442  0.1342  0.2768
11863W        W32143  12.574   1.527  13.988 -0.1135 -0.1742 -0.3499
11864W        W32144  11.477   9.840  12.009 -0.4481 -0.1074  0.1703
11865W        W32145  13.512  10.752   3.120 -0.2152  0.1720  0.3603
11866W        W32146  13.856  13.722  12.997  0.0334  0.1763 -0.2660
11867W        W32147   8.252  12.034  15.668 -0.0534 -0.2260 -0.0737
11868W        W32148   3.623  12.489   1.396 -0.2572  0.0878 -0.0680
11869W        W32149   2.359   5.773   1.997 -0.1155 -0.1659  0.0322
11870W        W32150  13.654  16.201  13.749  0.1337 -0.1000 -0.2080
11871W        W32151   9.649   8.194   4.029  0.1498  0.3048  0.3571
11872W        W32152  14.329  17.002   3.412 -0.0819 -0.3233  0.0369
11873W        W32153   3.094  15.322   4.187  0.0615 -0.1948  0.0369
11874W        W32154  13.141   9.831  16.450  0.1987  0.0473 -0.1022
11875W        W32155   4.032   2.047   0.498 -0.0906 -0.1189  0.4280
11876W        W32156  14.987  13.405  15.019 -0.1894 -0.3762 -0.0825
11877W        W32157  15.454   3.241  12.143  0.0901  0.0398  0.1533
11878W        W32158  11.852  10.911  16.137 -0.0223  0.1575  0.0072
11879W        W32159   9.289   3.787  13.568 -0.1029 -0.0674 -0.2937
11880W        W32160  11.978   7.800   2.744  0.0081  0.1083  0.1436
11881W        W32161   0.439   9.124   3.959  0.1643  0.0127 -0.3086
11882W        W32162   4.804   6.496   1.209  0.1358 -0.0215  0.1646
11883W        W32163   1.877   0.454   3.976 -0.0386  0.1900 -0.2087
11884W        W32164   2.063  12.646  15.112 -0.1056 -0.1034  0.1470
11885W        W32165   6.418   2.192   2.673  0.1082  0.0417 -0.0698
11886W        W32166  12.193  16.998   5.832  0.1156  0.4731  0.3895
11887W        W32167  13.411   9.775   4.010  0.1449 -0.0075 -0.0464
11888W        W32168  15.342  15.273   2.098 -0.1892 -0.2005  0.1836
11889W        W32169   0.806  11.040   2.381  0.0336  0.0641  0.0570
11890W        W32170   0.463  15.530   2.545  0.1502 -0.0972 -0.0386
11891W        W32171  12.900  13.511   1.566  0.0144  0.0184  0.2293
11892W        W32172   0.418   0.724   1.868  0.0296  0.1141 -0.1350
11893W        W32173  10.933   3.523  15.331  0.0140  0.1163 -0.1726
11894W        W32174   1.098   2.911  12.672 -0.1012 -0.2624 -0.0901
11895W        W32175  15.919   5.949  15.926 -0.2086  0.4364  0.0969
11896W        W32176  10.678  16.221   1.357 -0.0832 -0.1595  0.1664
11897W        W32177   8.120   5.050   3.814  0.2820 -0.0773 -0.1228
11898W        W32178   2.397  14.651  14.522 -0.0875 -0.0231  0.1181
11899W        W32179   5.964   3.916   1.415 -0.0785 -0.1489 -0.0643
11900W        W32180  10.965   1.218  16.530  0.2348  0.0455  0.3568
11901W        W32181  12.447  12.027   1.095 -0.1565  0.2606 -0.4269
11902W        W32182   1.414  11.651  16.729 -0.0555  0.3425  0.0816
11903W        W32183   2.206  16.448   2.194  0.0528  0.3358 -0.1393
11904W        W32184   3.009  17.733   2.252  0.2525 -0.1597 -0.0289
11905W        W32185  17.037   7.675  16.121  0.1474 -0.3242  0.2117
11906W        W32186  14.265  11.141  14.881 -0.0650  0.0885  0.1300
11907W        W32187   8.844  17.322   0.357 -0.0849 -0.1318  0.0858
11908W        W32188   4.364  10.899   2.266 -0.0382 -0.0360 -0.2224
11909W        W32189  11.319   6.611  12.743 -0.1965 -0.0850 -0.0452
11910W        W32190   6.867  16.781   3.636 -0.1531 -0.0905 -0.2243
11911W        W32191   5.724   2.972   0.819 -0.2603 -0.3389  0.1251
11912W        W32192  17.541  13.425   0.903  0.0981  0.0910  0.1308
11913W        W32193  14.238  16.025  13.709  0.1601 -0.1809 -0.1637
11914W        W32194   4.269   8.128   1.091 -0.5311  0.0088 -0.0484
11915W        W32195  12.983   2.471  13.759 -0.0054  0.4601 -0.0689
11916W        W32196   3.969  15.925   5.895 -0.0526 -0.2541 -0.0216
11917W        W32197   2.755  13.248  14.371  0.3302  0.0967 -0.3575
11918W        W32198   9.268  11.195   3.838 -0.0679 -0.1723  0.0435
11919W        W32199   7.990  12.934   4.935 -0.1020 -0.1092  0.1068
11920W        W32200   4.563   1.151  11.819  0.1293 -0.0674 -0.2604
11921W        W32201   4.923   7.185   0.102 -0.0987  0.0150  0.2090
11922W        W32202   8.239  13.554  16.615 -0.0681  0.1007  0.3720
11923W        W32203  16.049   7.793  13.821 -0.3001 -0.0061  0.2529
11924W        W32204   7.310   0.045   2.511  0.0783  0.1635 -0.0564
11925W        W32205  12.762   9.556  14.685  0.2550  0.0297  0.0055
11926W        W32206  16.654  14.089   1.375  0.2414  0.0329 -0.1373
11927W        W32207   6.711   1.534  15.252 -0.0408 -0.2290  0.2348
11928W        W32208  10.962  11.704  14.343  0.0526  0.0591 -0.3206
11929W        W32209   8.734   3.304  15.394  0.1617 -0.2241 -0.0782
11930W        W32210   9.608  16.000   3.767  0.0238 -0.1662 -0.1813
11931W        W32211   4.150  17.305  12.525 -0.3078  0.3399  0.0478
11932W        W32212   1.856  11.196  12.734 -0.1189  0.1158 -0.0230
11933W        W32213  10.656   9.108   0.027  0.0613 -0.1327 -0.1374
11934W        W32214   5.089   4.552  16.466  0.0818  0.2833  0.0564
11935W        W32215   1.599   3.849  16.574  0.4469 -0.1959 -0.0481
11936W        W32216   6.989   8.689   0.697  0.0161 -0.1421  0.1469
11937W        W32217  17.629   9.968   2.978 -0.0168 -0.1718 -0.0628
11938W        W32218  14.485  16.063  14.738  0.0953  0.0003  0.0230
11939W        W32219  16.922  11.445   3.727  0.1844 -0.2705  0.0867
11940W        W32220   7.020   6.442  14.349 -0.1783  0.1095 -0.1296
11941W        W32221  13.401   2.901  14.952 -0.0667 -0.0393  0.0121
11942W        W32222   4.639   8.507  12.578 -0.1415  0.0951 -0.0699
11943W        W32223   9.328   8.829   4.870  0.0926 -0.0449 -0.1105
11944W        W32224   8.645  12.651   4.844  0.3363  0.1621  0.0203
11945W        W32225   3.840  14.843   1.342 -0.2307  0.2824  0.0102
11946W        W32226  13.845  14.736   4.864  0.3464 -0.1978 -0.0432
11947W        W32227   7.242  11.175  14.566  0.0526 -0.1255  0.2600
11948W        W32228   4.034   7.030  12.850  0.3192  0.1258 -0.3075
11949W        W32229  15.389   3.853   3.102  0.2211  0.0266  0.0047
11950W        W32230   3.912   0.509   3.117 -0.0707  0.0851  0.1491
11951W        W32231   1.416  12.423   2.265 -0.0460  0.0413  0.0242
11952W        W32232   2.209  14.785   4.159  0.1377 -0.0030  0.0138
11953W        W32233   1.184  14.327  12.735 -0.0086  0.3136  0.1423
11954W        W32234  10.656   8.088   3.739 -0.2949  0.2861  0.0403
11955W        W32235  17.636  14.464  16.230 -0.1758 -0.2822 -0.1894
11956W        W32236   6.610  10.903  16.351  0.2278  0.0070 -0.0861
11957W        W32237  12.057  17.202  15.762 -0.0054  0.0435  0.2483
11958W        W32238   6.414  17.557   1.795  0.0566 -0.0402  0.2165
11959W        W32239  13.980   2.646  14.070  0.0230 -0.1385  0.2067
11960W        W32240   2.605  16.049   4.400  0.1716 -0.1726 -0.2694
11961W        W32241   5.966   1.124  16.289 -0.1667  0.1902 -0.1001
11962W        W32242  11.575   1.619   0.890  0.2446  0.1117  0.3756
11963W        W32243   4.789  16.354   0.940  0.1149  0.0471  0.0629
11964W        W32244  15.991   5.946   3.463  0.0349 -0.0813 -0.3206
11965W        W32245   8.535   9.095   2.616 -0.0025  0.1150  0.2401
11966W        W32246  16.500   9.780   1.564 -0.0180 -0.0575  0.1267
11967W        W32247   9.757   6.116   1.870 -0.0801  0.0494  0.2207
11968W        W32248  16.627  12.439  12.595  0.1890  0.0588  0.2284
11969W        W32249   4.372   8.588  15.120 -0.0731 -0.0560  0.0256
11970W        W32250  13.043  15.084  16.640 -0.0797  0.1634 -0.0809
11971W        W32251  14.577  16.647   0.459 -0.0892  0.1199 -0.0371
11972W        W32252  11.930   2.261   3.971 -0.1463 -0.1657 -0.0765
11973W        W32253  15.890  10.830   3.471 -0.0219  0.2244 -0.2043
11974W        W32254  15.135  11.768   4.093  0.2445 -0.0907  0.2029
11975W        W32255  17.137   6.730  13.297 -0.1321 -0.1643  0.2268
11976W        W32256  13.066   3.849  12.235  0.0763  0.0460  0.1625
11977W        W32257  13.513  11.851  11.941  0.2620  0.1302  0.0207
11978W        W32258   1.980   8.044   2.805 -0.0534 -0.0691 -0.1383
11979W        W32259   9.521  15.669   1.190  0.1031 -0.2222 -0.1386
11980W        W32260   4.733  11.047  13.375  0.1655  0.0282  0.0339
11981W        W32261   6.029   9.079   2.966 -0.2233  0.1100  0.0642
11982W        W32262   5.220   3.965  12.941 -0.2680 -0.2339 -0.0158
11983W        W32263   6.626   9.650   3.550  0.0048 -0.2513 -0.0238
11984W        W32264  12.480   3.228   1.025  0.0365 -0.2076 -0.0190
11985W        W32265  15.456  10.478  15.541  0.2550 -0.3641 -0.1259
11986W        W32266  12.909   0.434  14.250  0.1470  0.0955 -0.2776
11987W        W32267   7.434   3.247  16.808  0.0551  0.3031 -0.1023
11988W        W32268  16.615   3.729   2.966  0.2793  0.0887  0.2258
11989W        W32269  14.234   0.188  12.041  0.1774 -0.3411  0.0979
11990W        W32270   8.894   1.402  13.337  0.0852 -0.1847 -0.2165
11991W        W32271  13.832   4.585  12.787 -0.0649 -0.1195  0.1933
11992W        W32272  14.629  11.238   2.163 -0.1587 -0.0063  0.0660
11993W        W32273  14.796   4.669   0.466  0.2987  0.2662  0.2711
11994W        W32274  10.232  13.332  12.921  0.0760  0.1651  0.1408
11995W        W32275   8.498   6.671  12.585  0.1850 -0.0619  0.1751
11996W        W32276  11.014  16.578   1.411  0.0641  0.0358  0.1042
11997W        W32277  13.500   3.644   4.209  0.0277 -0.0861  0.1529
11998W        W32278  17.616   8.836  16.818 -0.0821  0.2713 -0.0595
11999W        W32279  17.315  13.078  12.781 -0.0468 -0.3737  0.2179
12000W        W32280   2.602   5.356  15.863 -0.0589  0.2909  0.3430
12001W        W32281   8.473   4.597   3.816 -0.1394  0.0808 -0.1835
12002W        W32282   4.001  17.120   1.346 -0.1753  0.1354  0.1061
12003W        W32283   6.677   1.135  15.666  0.1259 -0.1170 -0.0386
12004W        W32284   8.545  15.629  14.645  0.0702  0.1011 -0.0206
12005W        W32285  16.100  16.240   3.598  0.1391  0.3659  0.1580
12006W        W32286   6.828   8.730   1.302  0.2309 -0.0584 -0.0382
12007W        W32287  17.381   4.982   0.380 -0.0749 -0.0005 -0.1568
12008W        W32288   2.860   1.621  14.126  0.2401  0.0661  0.1237
12009W        W32289   3.411   8.968  12.604 -0.0208 -0.1586 -0.1473
12010W        W32290   3.245   3.663   4.226  0.1631  0.0563 -0.1929
12011W        W32291  13.561  12.494  14.521 -0.3354  0.2775 -0.0865
12012W        W32292  13.945   5.961  15.823 -0.0744  0.0008  0.3010
12013W        W32293   2.715   5.881  16.623 -0.0545  0.0028 -0.2577
12014W        W32294   1.735   9.266   0.877  0.0521  0.2837 -0.0498
12015W        W32295   8.168   6.854   3.666 -0.3261 -0.0014 -0.0858
12016W        W32296  10.874   4.807   4.395  0.1873  0.2299 -0.0541
12017W        W32297  11.600   8.874   0.442 -0.0780  0.1607  0.2105
12018W        W32298  17.495   8.965   4.535 -0.0458 -0.0138 -0.0197
12019W        W32299  17.669   8.128  15.556  0.1500 -0.1469  0.0175
12020W        W32300  10.083   9.684   4.346 -0.1168 -0.2183 -0.1250
12021W        W32301   6.363   1.874  15.314 -0.1391 -0.1007  0.1927
12022W        W32302   4.102  13.475  13.914  0.1588 -0.2536  0.1566
12023W        W32303  12.513   6.348   2.696  0.0527  0.2606  0.1524
12024W        W32304  16.285  15.794  16.480  0.2582  0.3832  0.2552
12025W        W32305   9.111  10.229   3.669  0.0277 -0.3277  0.2182
12026W        W32306   7.297  11.174  16.506 -0.0151  0.1454  0.0902
12027W        W32307   4.672  17.102  15.983  0.0242  0.0807  0.1492
12028W        W32308   6.468   8.719  12.346  0.1900 -0.2410  0.0803
12029W        W32309  14.455   6.961  13.852  0.3767 -0.0099  0.2843
12030W        W32310   6.447   1.151   2.675  0.0183  0.0145 -0.1027
12031W        W32311   6.292  17.271  12.849  0.2263 -0.1351  0.1988
12032W        W32312   6.083  14.263  14.404 -0.2706 -0.0096  0.2755
12033W        W32313   5.562  10.691  16.013  0.2589 -0.0898 -0.1164
12034W        W32314  11.953   5.730   2.496 -0.0893 -0.0533  0.1621
12035W        W32315  14.494  10.333  14.554  0.2837  0.1905  0.2428
12036W        W32316   0.299   5.893  15.973  0.2012  0.0704 -0.1858
12037W        W32317   9.114  12.012  16.160 -0.1403  0.0226  0.1571
12038W        W32318   6.914  10.803  14.573 -0.0268  0.1182  0.1478
12039W        W32319   0.981  12.083   2.815  0.0050 -0.0331 -0.0958
12040W        W32320   6.994  12.538   0.806 -0.3478  0.0028 -0.2335
12041W        W32321   3.594   7.627  14.947 -0.0002 -0.1284  0.0039
12042W        W32322   2.052  16.004   2.379  0.0172  0.1606  0.0926
12043W        W32323   2.099  10.936  12.300  0.0642 -0.1375 -0.0048
12044W        W32324  12.404   9.432  16.654  0.1361 -0.0183  0.0994
12045W        W32325  14.760   2.078   3.118  0.1236 -0.0935 -0.1520
12046W        W32326   0.711   4.273   3.339 -0.4568 -0.0032 -0.0789
12047W        W32327   3.336  14.145  16.688 -0.1900 -0.3644 -0.1724
12048W        W32328  11.255   0.006   4.589  0.0757  0.0726 -0.0514
12049W        W32329   8.597  10.355   2.409 -0.0721  0.1512  0.4304
12050W        W32330   5.718  11.741  15.621  0.2596  0.2888 -0.0743
12051W        W32331   9.361   9.432  13.014 -0.2446  0.1817  0.0028
12052W        W32332   1.070   3.879  15.527 -0.1143 -0.2826 -0.1158
12053W        W32333   5.566  14.991  12.840  0.0803  0.3310 -0.1553
12054W        W32334  15.148   4.577  13.140  0.0054  0.0371  0.1323
12055W        W32335   2.206   4.413   5.161  0.0570 -0.4097  0.1728
12056W        W32336  13.207   5.566   0.656  0.1378  0.3772  0.1937
12057W        W32337  10.729   5.707  13.026 -0.2249  0.1222  0.0689
12058W        W32338  13.209   0.669  15.018 -0.0047 -0.0937 -0.1251
12059W        W32339  15.645   0.958   1.699 -0.1763 -0.1942  0.1126
12060W        W32340  10.649   0.930   2.502 -0.2505  0.1808  0.2520
12061W        W32341  10.591  12.299   3.404 -0.3048  0.5110 -0.1967
12062W        W32342  14.208  13.018  15.908 -0.0988  0.1307  0.1325
12063W        W32343   5.343  13.212   3.983  0.0768 -0.1493 -0.0437
12064W        W32344  16.848  16.770   4.890  0.0672  0.1095 -0.1167
12065W        W32345  10.345  13.642   4.131  0.1793  0.2762 -0.0209
12066W        W32346  16.130  17.460  16.831 -0.0540  0.2593 -0.1001
12067W        W32347   8.701   0.278  15.184  0.3130 -0.2458  0.1784
12068W        W32348   6.981   1.787   4.069  0.0495  0.0146  0.2036
12069W        W32349  13.817  15.650  13.910  0.2435 -0.0517 -0.2342
12070W        W32350   7.220   7.331  13.955  0.0748  0.0699  0.0156
12071W        W32351   2.571   8.031  12.539  0.1140 -0.0542  0.1781
12072W        W32352   6.047   5.998   3.581  0.2962 -0.2956 -0.1566
12073W        W32353  13.855  17.401   1.703 -0.1417 -0.2506 -0.0860
12074W        W32354   8.341   3.688  13.801  0.2090  0.0956 -0.0781
12075W        W32355   0.261   7.527   1.559  0.1769 -0.1490 -0.2051
12076W        W32356   3.293   8.234   0.583 -0.1033  0.4054  0.0262
12077W        W32357   8.137  12.779   2.562  0.1472 -0.2517  0.1533
12078W        W32358   9.410  10.726   2.337 -0.1032  0.0853 -0.1436
12079W        W32359   4.568   8.912   4.024 -0.2585  0.2049 -0.1196
12080W        W32360  16.435   4.732   3.289 -0.1875 -0.0703  0.0540
12081W        W32361   0.693   2.215   2.935 -0.3068 -0.3081 -0.0926
12082W        W32362   7.455   8.756   3.079  0.1817  0.1906  0.1625
12083W        W32363   1.933   9.045   2.318 -0.0352  0.2068  0.1207
12084W        W32364  17.278   7.774   1.485  0.0214  0.2182 -0.2873
12085W        W32365   1.068  13.671  13.374  0.0428  0.1345 -0.0196
12086W        W32366   2.103   2.444  14.512 -0.0782 -0.0649  0.0891
12087W        W32367  11.958   2.552  13.107  0.0319 -0.1933 -0.2296
12088W        W32368  14.899  17.490  15.795 -0.1168  0.3241  0.2848
12089W        W32369   2.403   9.403   4.781  0.1767  0.0002  0.0853
12090W        W32370   5.301   8.793  14.011  0.2523 -0.4660 -0.0764
12091W        W32371  12.057   3.785   5.205  0.1401 -0.1454  0.1695
12092W        W32372   9.403  13.149   2.075  0.2022 -0.0311  0.1287
12093W        W32373  12.008   4.523   3.078  0.0637  0.1608 -0.0164
12094W        W32374  15.935  15.168  15.463 -0.3454  0.0126 -0.0387
12095W        W32375   0.783   0.978   1.202 -0.1835 -0.1326 -0.0394
12096W        W32376   8.934   6.645  15.266 -0.0610 -0.2473  0.1039
12097W        W32377  14.430   1.078  16.562 -0.0005 -0.1323  0.0373
12098W        W32378   0.260   2.932  14.183 -0.0074  0.1566  0.1487
12099W        W32379   4.397   8.445  15.986  0.0946 -0.4172  0.2010
12100W        W32380   1.119   3.394   1.001 -0.3437 -0.0543  0.1970
12101W        W32381   6.562   8.670  14.629 -0.0943  0.1063 -0.2808
12102W        W32382  16.164   4.902  14.187  0.1637  0.2516 -0.0419
12103W        W32383   3.889   9.145   0.459 -0.1982 -0.4108 -0.1952
12104W        W32384   1.234   8.490  16.028  0.0363  0.1794  0.2601
12105W        W32385   7.887   9.264   3.936  0.1257  0.1047  0.2120
12106W        W32386  10.720   7.492  12.648  0.0904  0.0515  0.3682
12107W        W32387  14.905   1.500  15.673  0.2854  0.0287 -0.3078
12108W        W32388  17.688  16.791   0.087  0.3698  0.1718  0.0680
12109W        W32389  16.764  11.604   2.356 -0.0685 -0.0765  0.0122
12110W        W32390   3.084   9.838  16.476  0.0616  0.1581 -0.1340
12111W        W32391   4.849  10.562   4.857  0.2068 -0.0567 -0.2410
12112W        W32392  10.630   3.337  13.220 -0.0021 -0.2740 -0.2644
12113W        W32393   0.065   1.079  14.068  0.2116  0.0679 -0.1888
12114W        W32394  17.421  17.335   3.781 -0.1284 -0.2928  0.1657
12115W        W32395   2.723  10.467  15.621  0.3361 -0.0278 -0.1567
12116W        W32396   3.226   5.995   3.924 -0.1586  0.1987 -0.0853
12117W        W32397   5.900   3.224   1.866  0.0239  0.0985  0.0237
12118W        W32398  11.168  11.855  14.864  0.0975 -0.1763  0.0957
12119W        W32399   5.802  15.097  14.348 -0.1579 -0.0842 -0.1113
12120W        W32400   5.883   5.134   1.571  0.0717  0.1891  0.1559
12121W        W32401   4.698   1.727   4.430  0.0849 -0.1694 -0.1308
12122W        W32402   7.218  14.959  15.423  0.0749 -0.0863  0.0650
12123W        W32403  16.838   1.339   1.284 -0.3251  0.0983  0.1938
12124W        W32404   3.226   9.973   1.906 -0.1607  0.0254  0.0161
12125W        W32405   6.509   8.697  12.903 -0.1414  0.1562 -0.0327
12126W        W32406  16.657   2.086  14.230 -0.0406 -0.0243 -0.1608
12127W        W32407   2.916  14.659  13.319  0.0203 -0.2357 -0.3819
12128W        W32408  17.483  13.442   4.368 -0.0783 -0.0156 -0.3134
12129W        W32409   1.468  16.977  14.046 -0.2031  0.0964  0.4038
12130W        W32410  15.423   6.539   2.098  0.0495 -0.1095 -0.1759
12131W        W32411  12.407  10.302   0.876 -0.1595  0.1651  0.3100
12132W        W32412   4.092   4.777  14.485  0.3594 -0.1030  0.0446
12133W        W32413  14.415  14.054   0.277  0.1885  0.0753 -0.1528
12134W        W32414  15.411   2.198  14.636  0.4634  0.0243  0.1989
12135W        W32415   3.023  13.652   1.938 -0.3286 -0.1320  0.0459
12136W        W32416  10.025   6.015  12.234 -0.4662  0.0451  0.2747
12137W        W32417   8.442   7.752   0.218  0.0617 -0.1574  0.0624
12138W        W32418  14.860  11.192  16.954  0.2404 -0.0909 -0.0275
12139W        W32419   6.079   0.973   3.989  0.1607  0.0198 -0.1713
12140W        W32420   3.424   1.638   2.668 -0.0154 -0.0878 -0.0096
12141W        W32421  14.510  11.195   3.046 -0.1594 -0.1376 -0.1838
12142W        W32422   3.286   8.066   3.964 -0.2855 -0.1533 -0.3925
12143W        W32423   4.022  15.880   3.209  0.2589 -0.1803 -0.0161
12144W        W32424  16.033  17.614  15.012  0.3670  0.2742 -0.1181
12145W        W32425  10.030  13.386   1.965 -0.1204  0.1151  0.2541
12146W        W32426   5.131   3.120  16.940  0.2037 -0.0369 -0.0011
12147W        W32427  14.599  10.917  12.967  0.0576 -0.1760 -0.0019
12148W        W32428   5.748   6.056  12.414 -0.0167  0.1970 -0.0415
12149W        W32429   2.347  12.777   3.280  0.1357 -0.3478  0.0102
12150W        W32430   0.246   8.296  15.111  0.1263  0.0771 -0.1014
12151W        W32431  12.906  13.039   1.792 -0.1790  0.0064  0.1012
12152W        W32432   2.378  16.898  12.691  0.0668  0.2132  0.2629
12153W        W32433   3.254   9.031   1.947 -0.1363  0.4485  0.1501
12154W        W32434  13.172  16.745  16.264  0.4268  0.0125 -0.1909
12155W        W32435   4.159   2.837  12.107 -0.1649 -0.3501  0.3530
12156W        W32436   3.279  16.328  13.664  0.0615 -0.1844 -0.0150
12157W        W32437  10.921  17.345   1.048 -0.1910 -0.1514  0.1300
12158W        W32438   7.124  14.450   0.323  0.0186  0.1088 -0.1989
12159W        W32439   3.251   1.084  13.536 -0.0032  0.1775 -0.1298
12160W        W32440   9.647  12.313   2.024  0.2157  0.1708  0.2475
12161W        W32441  14.659  13.622   0.157 -0.1105  0.0341 -0.0436
12162W        W32442  14.363  10.713  12.477  0.0420  0.1041 -0.0932
12163W        W32443   0.364  17.043  14.927 -0.0824 -0.1816 -0.1399
12164W        W32444  14.126   0.501  13.680 -0.4597  0.2069  0.1616
12165W        W32445   7.703   6.902  14.176  0.2409  0.1830 -0.3844
12166W        W32446  13.087   2.355  12.403  0.0723 -0.0403 -0.0727
12167W        W32447   9.014  14.156   0.744 -0.0547  0.2750 -0.0565
12168W        W32448   4.890   5.475   0.152 -0.1043 -0.1969 -0.0172
12169W        W32449  10.501  14.550  16.211 -0.0804  0.0104 -0.0205
12170W        W32450  13.909  15.462   2.491 -0.0337 -0.3734 -0.0130
12171W        W32451   4.875   2.399   0.455  0.1520  0.1341 -0.1352
12172W        W32452  11.728   2.651   3.740  0.2500 -0.0022  0.2096
12173W        W32453   8.426  12.447  15.307  0.1279  0.3031 -0.0593
12174W        W32454   5.145   1.272  14.380  0.0850  0.0928 -0.3776
12175W        W32455  17.699   9.688  15.179  0.1242 -0.1360  0.2498
12176W        W32456   3.766  17.237  16.974  0.0503 -0.1033  0.2266
12177W        W32457  11.987  12.930   3.836  0.0066 -0.0435 -0.1959
12178W        W32458   6.304   4.350  15.152  0.0176 -0.0540  0.1518
12179W        W32459   1.247   5.837   4.790 -0.0625 -0.3799 -0.0902
12180W        W32460  16.784  16.459   1.379 -0.2782 -0.2229 -0.2656
12181W        W32461   8.673   3.123  12.098 -0.2189 -0.0153  0.2146
12182W        W32462   0.794   1.133  16.567  0.1536  0.1006 -0.0952
12183W        W32463  10.807   5.059   3.169  0.2757  0.1936 -0.2133
12184W        W32464   9.539  10.510  12.195 -0.0804  0.2785  0.1493
12185W        W32465  11.352   3.507   3.153 -0.3041  0.1349  0.4208
12186W        W32466   3.138   0.321  13.015  0.0255 -0.1430  0.1715
12187W        W32467   4.684   6.262   3.954 -0.0007 -0.0500  0.1120
12188W        W32468  12.312  13.751   4.109 -0.3466  0.0768  0.1653
12189W        W32469  11.818   7.434   2.465 -0.1577 -0.0145  0.0527
12190W        W32470   2.488   9.800  14.704  0.1086  0.1406  0.1004
12191W        W32471   6.981   6.183   0.829  0.3288 -0.2131  0.2545
12192W        W32472  11.685   7.093  16.439 -0.0273  0.4982 -0.0186
12193W        W32473   8.868   8.983  14.507 -0.0451 -0.2733 -0.0074
12194W        W32474   1.922  17.422  13.447  0.2595 -0.0462  0.0482
12195W        W32475  11.024   1.768  15.248 -0.2457 -0.0282 -0.0639
12196W        W32476   4.671   7.828   1.942  0.0926 -0.0741  0.1791
12197W        W32477  15.584  15.848  15.377 -0.1359 -0.0295  0.0476
12198W        W32478   3.284   4.235  12.528 -0.2072  0.0146  0.0094
12199W        W32479   4.255   0.936   4.128 -0.1168  0.2000 -0.2203
12200W        W32480   5.953   8.191  16.118 -0.3832 -0.0652  0.1718
12201W        W32481  11.285   1.851   2.810 -0.0430  0.4089 -0.3671
12202W        W32482   5.944   0.298   0.614  0.3285  0.0197  0.1130
12203W        W32483  16.432  14.865   1.305  0.2149  0.0585  0.0052
12204W        W32484  12.403   1.558   0.887 -0.1097 -0.1629  0.1592
12205W        W32485  16.764  12.367  13.056 -0.0190  0.1829 -0.1333
12206W        W32486   0.810  15.813   0.880  0.2843  0.0950 -0.0002
12207W        W32487  10.409   2.611  15.407 -0.2694 -0.1543 -0.3577
12208W        W32488   1.332   1.737   3.833  0.0567 -0.0705 -0.2187
12209W        W32489   1.686  10.184  14.115 -0.0919  0.3682  0.0818
12210W        W32490   3.882  16.741  12.055 -0.0033  0.4800  0.1776
12211W        W32491   2.933   8.350   4.275  0.0163  0.1716 -0.0500
12212W        W32492  14.006   6.808   2.068  0.1513  0.0212 -0.1659
12213W        W32493   8.040   9.904  12.990  0.1328 -0.1045  0.3303
12214W        W32494  15.975  12.887   0.902  0.2551 -0.0533  0.0530
12215W        W32495   9.592   7.776  14.849  0.0828  0.1434 -0.0245
12216W        W32496  11.176  11.781  16.988  0.0297  0.1735 -0.0536
12217W        W32497  13.739  14.143   4.519 -0.2196  0.0815  0.0128
12218W        W32498  16.295  10.573   4.480 -0.0224  0.1200  0.0415
12219W        W32499   5.210  15.115   0.274  0.1047 -0.0726 -0.0597
12220W        W32500   5.235  14.305   0.897 -0.1827 -0.0071  0.1203
12221W        W32501  10.523   0.485  16.543  0.0693  0.1458  0.2090
12222W        W32502  10.884   3.935   0.186  0.1762 -0.2392 -0.1685
12223W        W32503   7.720  12.026   3.074  0.0124 -0.0313  0.1778
12224W        W32504   3.497  16.384  12.669 -0.0018  0.2236  0.0550
12225W        W32505  16.728   7.018  14.639 -0.3425  0.1149  0.1524
12226W        W32506  16.131   6.112   4.794 -0.0723  0.1555 -0.0350
12227W        W32507   6.671  10.767   2.881  0.2201 -0.0172  0.2124
12228W        W32508  16.921  13.956   4.585 -0.1873  0.2989 -0.3178
12229W        W32509   1.888  13.092  13.912 -0.2288  0.2780  0.0120
12230W        W32510  11.715   4.335  14.487  0.3507 -0.1449  0.1810
12231W        W32511  12.052  13.418  15.591  0.0243  0.0043 -0.5009
12232W        W32512   9.184  15.314   4.570 -0.0469 -0.1256 -0.0655
12233W        W32513   8.960  13.368   1.150  0.2400  0.0647 -0.3044
12234W        W32514  17.631   0.752   4.335 -0.0016  0.2292 -0.1733
12235W        W32515  14.524   2.436  16.612 -0.0493 -0.4427 -0.4043
12236W        W32516  15.664  15.864  16.860 -0.0320  0.0303  0.1462
12237W        W32517   6.460   2.779  15.808  0.2421  0.0996 -0.2646
12238W        W32518  13.760   5.592  16.855 -0.0604 -0.3674  0.0472
12239W        W32519   7.188   8.936  16.295 -0.1602  0.0358 -0.1433
12240W        W32520   4.488  14.920  16.857 -0.4445  0.0456 -0.0108
12241W        W32521  10.815  13.285   3.586  0.1398  0.2894 -0.2062
12242W        W32522   6.102  16.471   2.477 -0.0496 -0.1571  0.1636
12243W        W32523  12.436   7.079  14.774  0.3443 -0.0308  0.0242
12244W        W32524   8.576  13.534   2.185  0.0923  0.1231 -0.0428
12245W        W32525   7.588   6.776   2.685 -0.2274 -0.0843  0.0271
12246W        W32526  10.048   6.815   3.577  0.1469 -0.0937  0.0595
12247W        W32527   2.868   0.340  12.500 -0.1479  0.2374  0.2190
12248W        W32528  14.303  17.688   2.559  0.5190 -0.1064  0.1656
12249W        W32529   7.103   3.008   0.519  0.0964  0.3577  0.1808
12250W        W32530   9.900   6.389   0.960 -0.2403 -0.2146  0.0944
12251W        W32531   2.085   0.998   0.654  0.0449  0.0921  0.0446
12252W        W32532  15.809  16.538   4.898 -0.0743  0.1925 -0.1744
12253W        W32533   0.771  17.492   3.478 -0.1181  0.2828 -0.0029
12254W        W32534   0.095   6.692  12.341 -0.0721 -0.0559 -0.0788
12255W        W32535   6.687  13.420  13.606  0.0237 -0.4057 -0.0011
12256W        W32536  16.390  15.236  15.132 -0.2243 -0.2503  0.2545
12257W        W32537   6.178   3.813  16.203  0.1032 -0.0761 -0.2007
12258W        W32538  14.392  15.828  15.652  0.2319 -0.4259 -0.0702
12259W        W32539   8.995  12.349  15.203  0.2291 -0.3003 -0.0204
12260W        W32540   1.259  15.501  16.238  0.0462 -0.0531  0.1008
12261W        W32541   9.745   0.086  15.271 -0.3672  0.2783 -0.1034
12262W        W32542  16.914   5.189  16.889 -0.4111 -0.0825  0.0299
12263W        W32543   1.883   0.258   1.089 -0.0719 -0.1346 -0.2540
12264W        W32544  10.259   6.372  15.662 -0.2509 -0.0457  0.0959
12265W        W32545  11.431  11.858  16.429  0.0287  0.4219  0.0225
12266W        W32546   5.781   0.200  16.042 -0.1780  0.1470 -0.3900
12267W        W32547  15.266   5.481   4.764  0.1524 -0.0456  0.2706
12268W        W32548   8.982   0.021  14.173 -0.3347  0.0681  0.0704
12269W        W32549  14.198  10.738   5.931  0.0863 -0.2789  0.1312
12270W        W32550   9.422  11.600  15.585  0.2081  0.0382  0.1712
12271W        W32551  15.589  14.998  15.721 -0.1963  0.1569  0.0655
12272W        W32552   8.163  12.324   3.331 -0.1966  0.0682  0.1520
12273W        W32553   6.000   1.070   0.162  0.0835  0.0907 -0.2469
12274W        W32554   4.075   7.665   3.510  0.0218  0.0743 -0.0417
12275W        W32555   8.455  14.297  15.678  0.2317  0.0536  0.0724
12276W        W32556   6.016   8.937   1.748  0.2181 -0.1834  0.0811
12277W        W32557  12.627  11.303  15.197  0.3805  0.1263  0.1219
12278W        W32558   1.602  16.462  16.656  0.3629  0.0850  0.2179
12279W        W32559  10.343  17.544  15.466 -0.0258  0.0596  0.0352
12280W        W32560   5.672  10.862   5.133 -0.1306 -0.1535 -0.1354
12281W        W32561  14.423   0.581   2.464 -0.3326 -0.0605  0.0331
12282W        W32562  13.197  12.063  14.638 -0.2217  0.2435  0.1072
12283W        W32563   5.222   8.000  15.761  0.0123  0.0120  0.0422
12284W        W32564   6.621   1.833  16.241  0.1505 -0.1555  0.3856
12285W        W32565   9.925  17.094  16.215 -0.0302  0.0635  0.0423
12286W        W32566   5.567   0.822  14.759  0.1021  0.0082 -0.2417
12287W        W32567   3.817   2.440  15.128  0.3713  0.2160  0.0515
12288W        W32568  10.269   4.616  13.003 -0.1420 -0.2580  0.3159
12289W        W32569   9.828  17.356  15.464  0.1859  0.0540  0.0340
12290W        W32570   3.820   6.729   3.121  0.0738  0.0781  0.1989
12291W        W32571   8.564  16.961  14.081  0.0595 -0.0459 -0.2548
12292W        W32572  14.104   6.355  16.408  0.0436 -0.1323 -0.0166
12293W        W32573   8.169  13.576  14.287 -0.1654 -0.0651 -0.1099
12294W        W32574  10.304   3.110   0.410  0.0942  0.0658  0.0437
12295W        W32575   7.077  11.062  15.968 -0.0972 -0.0974 -0.3477
12296W        W32576  17.082  15.809  14.209 -0.0418 -0.0526  0.2840
12297W        W32577  14.972  16.620   0.215 -0.1809 -0.0499 -0.1177
12298W        W32578  15.986   2.826   1.666 -0.1970 -0.0755 -0.1311
12299W        W32579  10.432  15.241   1.354 -0.3450 -0.0128 -0.2670
12300W        W32580   6.228  15.630   3.065  0.0758 -0.1897 -0.2407
12301W        W32581  11.870   7.579   4.904  0.1153 -0.2447  0.1881
12302W        W32582   7.749   6.122  12.015  0.1887  0.0267  0.0291
12303W        W32583  16.840  15.423  14.980  0.1590  0.2151  0.3065
12304W        W32584  13.418  17.192  16.101  0.0935 -0.0681 -0.1517
12305W        W32585   2.516  14.826   1.214  0.2268 -0.0954  0.1193
12306W        W32586  17.448   3.243  12.907  0.1966 -0.2232  0.0690
12307W        W32587   5.227   3.794  14.183  0.0337 -0.0531  0.2650
12308W        W32588   4.767   5.395   2.267 -0.0608  0.2717 -0.2080
12309W        W32589  14.951   1.955  15.982  0.2893 -0.0407 -0.2583
12310W        W32590   7.985   6.399  13.315 -0.0831  0.1050 -0.0392
12311W        W32591  13.633   8.973   4.641  0.4196 -0.0707 -0.1248
12312W        W32592   3.566  13.840   1.153 -0.3089 -0.0433 -0.1804
12313W        W32593   1.564   7.635  15.627 -0.0835  0.0650 -0.0114
12314W        W32594   8.319   8.832   0.658 -0.2371  0.0021 -0.0416
12315W        W32595   8.720  16.184   1.918 -0.2811 -0.1144 -0.2497
12316W        W32596  10.150  10.769  16.228 -0.1984 -0.1122  0.2821
12317W        W32597   3.431   0.974   3.714 -0.0802 -0.0409  0.2810
12318W        W32598   7.130  13.014   1.672 -0.0468 -0.2682  0.0103
12319W        W32599   6.021  14.712  13.475  0.0522  0.3157  0.3224
12320W        W32600  11.144  17.566   3.573 -0.0441 -0.0774  0.1999
12321W        W32601   5.361   5.264  15.970 -0.3495  0.1593 -0.1429
12322W        W32602  16.395  10.006   3.455 -0.0523  0.1435 -0.0324
12323W        W32603  10.101  14.175   2.815  0.0500  0.0782  0.2324
12324W        W32604   8.954  12.435   4.007  0.2795 -0.0173 -0.2925
12325W        W32605   9.189   4.919  13.473  0.0896  0.1244 -0.1763
12326W        W32606  11.660  14.413   3.994  0.1555 -0.1240  0.0029
12327W        W32607   4.193   9.358  12.795  0.0516 -0.0859  0.0722
12328W        W32608   0.074  16.835  11.708 -0.0603 -0.0123 -0.0939
12329W        W32609   9.232  12.520   2.730 -0.1552 -0.1966 -0.1265
12330W        W32610   3.986   7.204  16.119 -0.1797 -0.1519  0.0991
12331W        W32611   3.381  10.545  12.990 -0.1132 -0.2971  0.1148
12332W        W32612   1.317  13.107  14.709  0.2212  0.1461  0.0458
12333W        W32613   1.580   1.315   0.161  0.0236  0.0711 -0.0336
12334W        W32614   5.665   6.972  15.577  0.1345  0.0413 -0.0130
12335W        W32615   9.137   9.920  11.868  0.1427  0.2406  0.4216
12336W        W32616  11.204  12.441   0.320 -0.1119 -0.2112  0.3333
12337W        W32617  15.222  11.041  14.438 -0.0120 -0.0475 -0.0239
12338W        W32618   9.029   2.415  15.381  0.0913  0.2866 -0.0385
12339W        W32619   3.058   7.401   1.336 -0.0720 -0.0177 -0.0476
12340W        W32620   1.717  17.427   4.920 -0.0306 -0.0359  0.0756
12341W        W32621   5.822   8.653   4.170  0.0155  0.0623  0.0877
12342W        W32622   0.391   4.273   4.299 -0.1315 -0.2291 -0.2062
12343W        W32623  13.426  11.857  16.627 -0.3141 -0.1706 -0.0166
12344W        W32624   1.359   5.199   2.907 -0.1096  0.3564  0.2901
12345W        W32625  14.180   5.675   2.097  0.3647 -0.0009 -0.0475
12346W        W32626  13.747  16.891   2.003 -0.1061  0.1627  0.1910
12347W        W32627   0.777   0.473  15.730 -0.0162  0.2154 -0.0887
12348W        W32628  13.401   3.406  16.798 -0.1120  0.0697 -0.3852
12349W        W32629  15.271  17.218   1.383 -0.1681  0.0099 -0.1281
12350W        W32630   2.001   8.272  14.279  0.0609 -0.1087  0.1090
12351W        W32631  13.756  12.085   0.042 -0.1257 -0.0336  0.1356
12352W        W32632   0.784  15.759  16.347 -0.2068 -0.0226 -0.0379
12353W        W32633  10.498  14.017   4.479  0.2773  0.0174 -0.2531
12354W        W32634   8.370   9.694  14.231  0.1607 -0.4101 -0.2319
12355W        W32635   5.478  17.510  12.188  0.1346  0.0462 -0.1274
12356W        W32636   5.366   2.816   3.480  0.0905 -0.1195 -0.1553
12357W        W32637   1.406  12.371  16.953 -0.3465 -0.1359  0.1149
12358W        W32638  11.478   4.118   1.377 -0.0423 -0.1514 -0.2746
12359W        W32639   1.471   8.300   1.778 -0.1027  0.0069  0.0088
12360W        W32640   6.592  10.444   3.958  0.0615  0.0540 -0.1383
12361W        W32641   8.521   6.031   0.881 -0.2055  0.1251  0.1248
12362W        W32642   9.783   6.547  16.010 -0.1177 -0.1370 -0.0734
12363W        W32643   2.100  11.079  15.813 -0.3606  0.0042 -0.1221
12364W        W32644   1.053   1.362   0.042 -0.2454 -0.0923  0.0829
12365W        W32645   2.770   3.916  15.042  0.1632  0.0730  0.1676
12366W        W32646   3.227   0.673  12.686  0.2914 -0.1259 -0.0851
12367W        W32647  16.555   5.621  11.889 -0.1685 -0.2003  0.2086
12368W        W32648   6.575   3.631  14.378  0.0561 -0.1998  0.1353
12369W        W32649  11.323  13.505  12.737  0.1984 -0.2805 -0.4441
12370W        W32650   6.251  15.495  15.954 -0.2104 -0.0727  0.2538
12371W        W32651   9.785   0.066   4.375  0.0267 -0.2057 -0.0869
12372W        W32652  13.355   2.772   1.152  0.1815 -0.4063 -0.2220
12373W        W32653   3.995   4.946  15.996  0.1152  0.2293 -0.1434
12374W        W32654  15.091   1.584   0.558  0.3635  0.2357  0.2917
12375W        W32655   0.191  12.124  14.406  0.0464 -0.3666  0.0566
12376W        W32656  14.933  15.578   3.304 -0.0643 -0.4740  0.0570
12377W        W32657   2.991   5.434  12.694  0.2029 -0.2076  0.0546
12378W        W32658  12.303   1.233  16.341  0.0473 -0.0907  0.0370
12379W        W32659   5.194   1.572  12.322  0.2169  0.1084  0.0231
12380W        W32660  17.474  16.178   4.549 -0.1439  0.0419 -0.0215
12381W        W32661   3.861  10.177   2.885 -0.3243  0.0781 -0.0633
12382W        W32662  15.760  16.267  15.575  0.1328 -0.1249  0.0143
12383W        W32663  17.145   1.682  15.278 -0.0898  0.0296 -0.1738
12384W        W32664  11.468   5.985  14.544  0.2757  0.0209 -0.0948
12385W        W32665  11.074  12.055   1.672 -0.1962  0.1453  0.0164
12386W        W32666  12.190   2.003  16.386  0.0142 -0.0959  0.0612
12387W        W32667   7.064   0.410  12.445 -0.0517 -0.2832  0.1710
12388W        W32668  14.140   5.366  13.295  0.0416 -0.1497  0.1714
12389W        W32669  13.524   0.776  12.080 -0.2269 -0.0263  0.4964
12390W        W32670  12.984  15.466   3.899  0.0793 -0.2848 -0.0805
12391W        W32671   1.085   0.381  13.228 -0.0796  0.1621  0.1668
12392W        W32672   7.876  17.364  17.019  0.0475  0.1842 -0.1120
12393W        W32673  17.522  12.009   1.436  0.0756  0.0505  0.0931
12394W        W32674  15.371   9.703  12.649  0.0524 -0.1239  0.0562
12395W        W32675   3.296   2.501  13.106  0.0132 -0.0500  0.4077
12396W        W32676  10.126  13.523   0.400 -0.2824  0.1141  0.1978
12397W        W32677  16.730  16.274   3.523 -0.2572  0.1860  0.0633
12398W        W32678   6.102   3.656  15.750  0.0390 -0.2186 -0.1256
12399W        W32679   0.206   4.062  13.226  0.0685  0.0964  0.0793
12400W        W32680   0.213  15.943   0.772  0.1510  0.0084 -0.0503
12401W        W32681  11.414  10.583  16.315 -0.0237 -0.2958 -0.0485
12402W        W32682  16.174   2.418   3.147 -0.0560  0.2109  0.1769
12403W        W32683  12.714   8.849   4.129  0.2377  0.1416 -0.1698
12404W        W32684   0.775  11.824   2.351 -0.1806 -0.2120 -0.0955
12405W        W32685   4.222   6.043  14.925  0.0805 -0.1693  0.1346
12406W        W32686   3.127   8.025   3.425  0.1551  0.3764 -0.3689
12407W        W32687   8.383   2.013  16.178  0.0193  0.1902  0.4254
12408W        W32688   7.517  13.634   4.516 -0.2814 -0.1767 -0.0801
12409W        W32689   9.732  17.500  14.534  0.2395 -0.2050 -0.4261
12410W        W32690   3.193   7.606  14.163 -0.1244  0.0685 -0.1370
12411W        W32691   7.405   2.183  14.729  0.1205 -0.1256 -0.2319
12412W        W32692  17.097   0.897  13.335 -0.2557 -0.2264  0.0842
12413W        W32693  17.724  10.711  15.394  0.1460 -0.1135  0.1277
12414W        W32694   9.369   8.554   3.459  0.2048 -0.1465  0.0160
12415W        W32695   4.277   5.588   2.159 -0.2625  0.0803  0.2693
12416W        W32696   6.416   3.287   1.814  0.0116  0.1351 -0.0045
12417W        W32697  13.701   8.040  14.370  0.0683 -0.1381 -0.4022
12418W        W32698   7.660   9.413  16.887  0.3370  0.1865  0.1426
12419W        W32699   9.068  16.876  12.325  0.1960 -0.1385  0.0489
12420W        W32700   6.156  13.173   1.632 -0.1693 -0.0320 -0.0386
12421W        W32701   4.209  11.146   3.824 -0.0975 -0.0174  0.2180
12422W        W32702   6.452  15.169  12.295 -0.1149 -0.2987  0.0764
12423W        W32703  13.868   8.514   2.578  0.1051  0.3991  0.0423
12424W        W32704  11.508   6.808  15.499 -0.1264 -0.2390  0.0844
12425W        W32705  11.086   6.179  12.656  0.0270 -0.2265  0.0271
12426W        W32706   1.833  12.507  15.810 -0.0268 -0.0209 -0.0350
12427W        W32707   6.508  15.900  14.159  0.0503 -0.2331 -0.0696
12428W        W32708  13.270   9.035   2.121 -0.2775  0.0301  0.2293
12429W        W32709   4.443  13.935   4.945  0.0070  0.2666  0.0735
12430W        W32710   6.738  17.222  12.600  0.1388  0.1107  0.0726
12431W        W32711   7.584  13.510  15.005 -0.0118 -0.0220 -0.0415
12432W        W32712   5.224  10.222   2.271  0.0258 -0.3168 -0.0670
12433W        W32713  10.010   2.721  14.120  0.4737 -0.1274  0.0499
12434W        W32714   0.163  17.724  12.329 -0.0283 -0.0916 -0.1442
12435W        W32715   8.785  10.839  11.969  0.0445  0.0106 -0.0730
12436W        W32716  10.004   2.577   1.286 -0.0790 -0.1932  0.1738
12437W        W32717  12.564   8.616  16.243  0.0257 -0.0294  0.2413
12438W        W32718  12.657  14.615   3.286 -0.0896  0.1377  0.3325
12439W        W32719  14.646   0.690  15.507  0.1440  0.2622 -0.1051
12440W        W32720  12.485   1.641  16.597 -0.1177 -0.2423  0.1820
12441W        W32721  11.208  13.818  16.513  0.0717 -0.0458  0.2582
12442W        W32722   8.706  14.676  15.652 -0.1349 -0.2599 -0.2114
12443W        W32723   7.533  17.126   3.196  0.2193  0.1320  0.0402
12444W        W32724   3.291  10.855  15.841 -0.1468 -0.1369  0.1089
12445W        W32725   6.166  10.250   4.932  0.1531 -0.0166  0.1564
12446W        W32726  17.237  11.367   4.213 -0.1851  0.3949 -0.0169
12447W        W32727   6.805   7.593   3.568 -0.3207 -0.0189  0.1219
12448W        W32728  14.651  15.756   0.929  0.1527  0.1118 -0.0127
12449W        W32729  16.731  15.404   3.474 -0.2125 -0.2276 -0.1646
12450W        W32730  12.235   8.256  13.692  0.0432 -0.0149  0.2082
12451W        W32731  14.078  10.105   3.133  0.1622 -0.2920 -0.1654
12452W        W32732   0.074  14.021  15.459 -0.0244 -0.0334  0.0675
12453W        W32733  13.461  12.880  16.820  0.1009 -0.2259  0.1322
12454W        W32734  17.732   6.394  12.938  0.2306  0.0535 -0.0947
12455W        W32735   7.055   1.501  15.592  0.2531 -0.0056  0.1014
12456W        W32736  10.858   3.187  16.160 -0.2589  0.0297  0.0336
12457W        W32737  11.616   4.203   2.385 -0.2621 -0.0814 -0.0340
12458W        W32738   4.894  13.284  15.525  0.0976 -0.0973  0.0274
12459W        W32739  14.114   3.818  12.219 -0.2177  0.1788 -0.0563
12460W        W32740  12.355   6.547  16.077  0.1006 -0.0638  0.0858
12461W        W32741   0.407   8.543   4.916  0.0585 -0.0966 -0.1550
12462W        W32742   8.870  14.882   1.136  0.1541 -0.2394  0.0325
12463W        W32743   9.292   1.355  14.565 -0.0851 -0.0670 -0.0338
12464W        W32744   6.819   2.973   2.066  0.0576 -0.2424 -0.0155
12465W        W32745  12.325  11.868  16.229  0.2934  0.1270 -0.0469
12466W        W32746   3.906   4.939   1.505  0.0538  0.0088  0.3076
12467W        W32747   4.388  14.631   0.357 -0.0398 -0.1823 -0.2261
12468W        W32748   5.432   2.939   2.733  0.0681  0.0955 -0.1145
12469W        W32749  12.495  11.713   4.425 -0.1317  0.2426 -0.1851
12470W        W32750   8.841   1.867  16.972 -0.0436  0.0040 -0.0459
12471W        W32751  17.554   3.834  15.889  0.0983  0.0393  0.0902
12472W        W32752  13.221   9.410  13.425  0.2070 -0.0023 -0.2396
12473W        W32753  15.437   5.381   2.839  0.1050  0.2407  0.0507
12474W        W32754   9.393  12.354   1.030  0.2848 -0.0095 -0.1769
12475W        W32755   6.530   0.971  16.092 -0.0508  0.1808  0.0217
12476W        W32756  15.621   2.366   0.435 -0.0596 -0.1513  0.2976
12477W        W32757  13.506  17.044   1.607 -0.1988  0.0256  0.0094
12478W        W32758   0.750  12.472  15.109 -0.0360  0.2336 -0.0635
12479W        W32759   2.136  17.389   4.349 -0.1548  0.1568  0.0508
12480W        W32760  12.583   5.076  12.999 -0.3835  0.1174  0.0614
12481W        W32761   7.823   6.021  15.546 -0.1665  0.3086 -0.0223
12482W        W32762   8.302  11.732  16.943  0.2958 -0.1070  0.1569
12483W        W32763  11.571   4.516   3.390  0.0024  0.2567 -0.2850
12484W        W32764  17.399   7.785   0.500  0.0984  0.0560 -0.2192
12485W        W32765  11.332  12.696   4.429 -0.1525  0.0556  0.0026
12486W        W32766   4.145   9.193   2.823  0.1928  0.1705  0.1944
12487W        W32767   1.255   5.768  12.122 -0.3893  0.2314  0.0611
12488W        W32768  14.434   6.559  15.185  0.0301 -0.2382 -0.0116
12489W        W32769   9.311  12.820   3.984 -0.0721  0.3988  0.2014
12490W        W32770   9.254  16.425   0.465 -0.1156 -0.1828  0.0148
12491W        W32771   8.297   6.943   1.756  0.1661 -0.0468 -0.0604
12492W        W32772  16.851   0.363   0.243  0.2720  0.1759  0.0986
12493W        W32773   4.001   5.451  16.722  0.1242  0.1082 -0.0839
12494W        W32774   4.946   7.922  16.751 -0.0497  0.1871 -0.0718
12495W        W32775   1.885  16.641   1.030 -0.0119  0.0658 -0.2102
12496W        W32776   3.703  14.607   1.844 -0.3639 -0.2355  0.3528
12497W        W32777  13.056   0.484   2.014  0.1630 -0.0349  0.2487
12498W        W32778  16.089  17.056   0.180  0.2144  0.2370 -0.2504
12499W        W32779  17.518   6.855   3.962  0.0496  0.4047  0.0500
12500W        W32780   5.878  13.867   4.514  0.2435 -0.4192  0.1064
12501W        W32781  10.138   8.806   1.751  0.0748 -0.0935  0.0144
12502W        W32782   8.312   4.398   0.877 -0.1039  0.1500 -0.1462
12503W        W32783  16.730   6.836  16.987  0.0222 -0.0009  0.0196
12504W        W32784   0.077  16.556  14.948  0.0461 -0.0952 -0.2299
12505W        W32785   2.324  16.643   2.716 -0.4705 -0.2504 -0.0563
12506W        W32786   6.984  16.829   4.606  0.0769  0.0920  0.2218
12507W        W32787   9.101  10.341   0.315 -0.2887 -0.0780 -0.0265
12508W        W32788   4.302   8.562   1.849  0.1179 -0.1777 -0.0158
12509W        W32789  11.299   1.781  14.829  0.0758 -0.1353 -0.1536
12510W        W32790   7.715   9.142   3.081 -0.0363  0.0390 -0.2022
12511W        W32791  17.451  16.854  16.705  0.0746 -0.1023  0.2390
12512W        W32792  10.178  12.115  14.611  0.0770 -0.2565  0.4192
12513W        W32793   8.812  14.042   4.191 -0.1509 -0.0411 -0.1718
12514W        W32794  13.912   9.664   0.785 -0.0981 -0.4970 -0.2282
12515W        W32795  15.727  14.956  14.352 -0.1607 -0.1170  0.1835
12516W        W32796  17.071  10.817   1.756 -0.0490 -0.2931  0.0214
12517W        W32797  10.633  16.575   1.739 -0.1720 -0.2090  0.0882
12518W        W32798  17.312   4.323   4.023 -0.0678 -0.1437 -0.0442
12519W        W32799  16.234  14.371   1.756  0.2883  0.2027  0.3552
12520W        W32800  13.007   5.291   4.488 -0.0498  0.0410  0.0858
12521W        W32801  10.226  10.822   0.692 -0.0179  0.2077 -0.1219
12522W        W32802   0.161  10.184   0.897  0.0108 -0.0294  0.0419
12523W        W32803   7.274  12.853  14.295 -0.2060 -0.0053  0.0009
12524W        W32804   3.821   8.345   1.336 -0.0525  0.0736 -0.0285
12525W        W32805   0.111  11.804   1.753  0.2495 -0.0272 -0.0574
12526W        W32806  11.370   4.486   2.045  0.1093  0.0414 -0.0697
12527W        W32807  15.544   9.296  16.999 -0.0497  0.0614  0.3255
12528W        W32808  10.415  11.032   2.735 -0.0814 -0.0119  0.1692
12529W        W32809  13.700   1.097   3.149  0.4855 -0.0304 -0.0540
12530W        W32810   2.836   9.256   2.134  0.1437 -0.1153 -0.0751
12531W        W32811   9.087  15.407   1.475  0.4455  0.0755 -0.1492
12532W        W32812   5.866   7.558   1.106 -0.0587 -0.0601 -0.0658
12533W        W32813   1.950   5.627   0.988  0.1732 -0.1576 -0.0541
12534W        W32814  11.723   8.403  12.912 -0.1441  0.1142  0.0422
12535W        W32815   9.054   7.317  16.695 -0.4206  0.3204 -0.1010
12536W        W32816  17.636  15.530  13.017  0.0351 -0.0658  0.1132
12537W        W32817   6.881   9.725   1.620 -0.0389  0.0597  0.2896
12538W        W32818   6.834   9.977   1.215 -0.1060  0.0412 -0.0787
12539W        W32819   3.612  16.247   1.478 -0.2192  0.0877  0.1672
12540W        W32820   0.441  11.553  15.273  0.0384  0.3321  0.1059
12541W        W32821   1.159   1.310  15.020 -0.1164  0.1713  0.0637
12542W        W32822   5.706  10.125   2.274 -0.2023 -0.2206 -0.0805
12543W        W32823  15.870   2.531   2.725 -0.0724  0.4287  0.2789
12544W        W32824   8.214   4.618  12.659  0.1172 -0.2593 -0.1651
12545W        W32825  12.714   4.727  13.538  0.2102 -0.3062 -0.1028
12546W        W32826   0.904  11.234   3.798  0.1837 -0.3196  0.0432
12547W        W32827   4.015  12.133  12.496 -0.0607  0.0987  0.1504
12548W        W32828   5.391  11.480   0.884 -0.0716  0.2826 -0.1044
12549W        W32829  12.383   8.304  11.972 -0.0289 -0.1693 -0.1899
12550W        W32830  13.730  11.066  14.519 -0.1033 -0.2597  0.1308
12551W        W32831   2.741   2.963   3.788  0.0769 -0.0516 -0.1901
12552W        W32832  16.886   4.682  16.654 -0.0040 -0.0173 -0.2957
12553W        W32833   9.488   3.394  14.057 -0.0097  0.1963 -0.2760
12554W        W32834   9.222  16.983   4.093  0.0648  0.0474  0.1590
12555W        W32835   2.393  14.528   1.770  0.1366  0.2011 -0.4156
12556W        W32836  17.725   1.676   4.143  0.0994 -0.2301  0.0740
12557W        W32837  15.515  12.814  14.013  0.0742 -0.2496 -0.1801
12558W        W32838  15.309   7.751   0.588  0.1381 -0.1698 -0.1605
12559W        W32839  15.159  10.067  11.698  0.0572  0.1766  0.0959
12560W        W32840   0.870   9.944   4.085  0.3463  0.2480  0.0954
12561W        W32841  12.399  12.445  12.395 -0.0343  0.0636  0.0678
12562W        W32842   3.071   3.745  16.811  0.2530  0.1210 -0.0238
12563W        W32843   1.897  11.812   0.629  0.3908 -0.0808  0.0861
12564W        W32844   1.979   1.999  16.535 -0.1252 -0.0549  0.3736
12565W        W32845   0.422  13.772  15.828  0.2836  0.0529  0.0456
12566W        W32846  14.036  17.608   0.933  0.1000 -0.0736  0.3821
12567W        W32847  15.239   7.759  14.116  0.1827  0.1111  0.2408
12568W        W32848   4.865   2.289  13.482 -0.0846  0.2458  0.3275
12569W        W32849   3.478   2.622   4.652 -0.1118 -0.0662 -0.0360
12570W        W32850  17.242   7.626  14.229  0.0944 -0.1465 -0.1228
12571W        W32851  11.340  17.386  12.453  0.0195  0.1625  0.0275
12572W        W32852   1.532   9.976  14.905  0.0455  0.0001  0.1765
12573W        W32853   7.062   2.561  12.258 -0.2937 -0.2311 -0.0940
12574W        W32854  14.436  11.778  12.760  0.1216 -0.3155 -0.0217
12575W        W32855  13.447   2.398  14.147 -0.0335 -0.4248 -0.0772
12576W        W32856  10.857   7.998  12.862 -0.1245  0.5729 -0.2065
12577W        W32857  11.042   9.309  12.777 -0.1010 -0.0529 -0.1402
12578W        W32858  14.208   9.740   4.401 -0.0785 -0.3385 -0.1071
12579W        W32859  17.648  17.360  12.445  0.1598  0.0989 -0.1815
12580W        W32860   3.469   1.957   2.177  0.0095 -0.0828 -0.0681
12581W        W32861  10.140   4.998  15.739 -0.0897  0.0922 -0.0858
12582W        W32862   8.447  11.347  16.633 -0.1233 -0.1232  0.0439
12583W        W32863   8.565   8.894   4.601 -0.0800 -0.3424 -0.3065
12584W        W32864   7.838   7.167   0.374 -0.3332  0.1840 -0.1423
12585W        W32865  11.846   9.064  15.842  0.0999 -0.1197  0.0762
12586W        W32866   5.076   0.013  13.047  0.1689  0.2207  0.2423
12587W        W32867   7.082  11.762  13.379  0.1348 -0.3152 -0.1562
12588W        W32868  15.238   7.756  14.647  0.1071  0.1985  0.1941
12589W        W32869   8.467   4.111  14.779 -0.3970 -0.2384 -0.2156
12590W        W32870   0.624  12.924   0.846  0.1988  0.2620 -0.0749
12591W        W32871   0.687  11.240   4.605  0.1091 -0.1471 -0.1457
12592W        W32872   8.241   5.438  13.423  0.0451 -0.2426  0.0219
12593W        W32873   0.748   7.349  15.315 -0.1981 -0.0820 -0.2990
12594W        W32874  17.167   9.891  12.815 -0.2750 -0.1021 -0.0460
12595W        W32875  13.169   9.424  14.334  0.2013  0.3079 -0.0661
12596W        W32876   7.750   7.409   4.403  0.1089  0.0037  0.0292
12597W        W32877  11.711   0.996   4.122 -0.1093 -0.1049  0.1300
12598W        W32878  13.473  12.022   2.560 -0.0186 -0.0013  0.2238
12599W        W32879  11.464  17.095  14.829 -0.4315 -0.0070  0.1797
12600W        W32880   2.595  17.618   4.156  0.2117 -0.0687  0.0686
12601W        W32881   7.855  15.401   0.114  0.1166 -0.0971 -0.1541
12602W        W32882   6.226  16.223  13.093  0.2758  0.0555  0.0262
12603W        W32883  17.511   0.821  16.708  0.0293  0.1310  0.0820
12604W        W32884  13.830   8.334   0.727  0.2669 -0.0626 -0.0065
12605W        W32885   8.423   6.347   4.483 -0.3353 -0.1987  0.1577
12606W        W32886   1.514  16.267  15.713 -0.2569 -0.0135  0.0174
12607W        W32887  12.231  17.712  13.630 -0.2118  0.0464 -0.0701
12608W        W32888  11.255  14.630   2.571 -0.2462 -0.1636  0.1961
12609W        W32889   6.453   4.852   2.780  0.1104 -0.3407  0.0174
12610W        W32890  12.392  10.031  14.787  0.1553  0.2366 -0.2595
12611W        W32891  17.422   1.833   1.641 -0.0880 -0.0744  0.1053
12612W        W32892  14.213   2.128   0.127  0.1024  0.1026 -0.0723
12613W        W32893   1.648   2.987  12.578  0.1119  0.3061  0.0895
12614W        W32894   3.466   1.437   2.110 -0.1187 -0.0199  0.1948
12615W        W32895   7.095  11.568  15.882 -0.1240  0.3372  0.0968
12616W        W32896  13.671  11.764  15.988 -0.3370 -0.1290  0.0784
12617W        W32897   5.798   2.316  15.987  0.2192 -0.0930  0.2609
12618W        W32898  14.721   4.729  13.440  0.1553 -0.0443  0.1141
12619W        W32899   6.123   5.606   0.387 -0.1994 -0.2793  0.1052
12620W        W32900   9.472  16.314   5.311 -0.2096  0.0777 -0.2694
12621W        W32901  13.817   1.496  14.457  0.3750 -0.1094  0.0471
12622W        W32902   4.567   4.318   0.248  0.0985  0.3658 -0.0959
12623W        W32903  17.242   5.412  12.145 -0.1497  0.1271 -0.2256
12624W        W32904   0.881  15.791   3.889 -0.0896 -0.0624 -0.1029
12625W        W32905  14.109  17.188   2.191  0.0108 -0.0692  0.1904
12626W        W32906   6.392   7.222   0.367 -0.0110 -0.1680  0.0004
12627W        W32907  15.466   7.137   3.140  0.2362  0.3137  0.2798
12628W        W32908  12.793   2.177  12.854  0.1334 -0.2175  0.2721
12629W        W32909   2.117  13.452  15.914 -0.2665  0.1208 -0.2147
12630W        W32910  16.231   5.675   2.661  0.1194  0.2562 -0.3854
12631W        W32911   2.400   6.011  12.916  0.1503 -0.1041  0.0047
12632W        W32912  15.559   8.751  13.073 -0.2969  0.1191 -0.2847
12633W        W32913   8.471  10.664  12.739  0.1678 -0.0890  0.1745
12634W        W32914   7.126  14.035   3.070  0.1538 -0.1395 -0.1362
12635W        W32915  10.997   1.122   2.816 -0.0736  0.1335 -0.2940
12636W        W32916  11.132   4.779   2.911 -0.3083 -0.0619 -0.2944
12637W        W32917   8.359  16.912   4.425  0.1626 -0.1559  0.1320
12638W        W32918   0.623   8.009   4.425  0.0091  0.0413 -0.3259
12639W        W32919  10.321  15.035  15.431  0.2525 -0.0176 -0.1203
12640W        W32920   3.766  17.362   2.173  0.0504 -0.1841  0.3322
12641W        W32921  12.725   0.702   0.984 -0.0402  0.1353  0.0267
12642W        W32922   6.043   1.899   2.940  0.1219  0.2044 -0.1249
12643W        W32923  11.324  14.847   1.578 -0.5396  0.4255  0.0363
12644W        W32924  12.690  15.019  13.139  0.0509 -0.0702 -0.1966
12645W        W32925   8.678   1.191  12.305  0.3445  0.0456 -0.2065
12646W        W32926   5.000   4.019  14.586  0.4403  0.2045  0.1543
12647W        W32927   0.307  10.109  14.085 -0.0417  0.0185  0.0301
12648W        W32928   8.963   7.917  15.964  0.1080  0.3979 -0.1400
12649W        W32929  11.520  17.678  12.045 -0.1851 -0.2179 -0.0823
12650W        W32930  13.135   1.792  16.664  0.0809 -0.0181 -0.1988
12651W        W32931  17.010  12.034  15.621 -0.0080  0.2598  0.1611
12652W        W32932   9.598   3.665  15.761 -0.3602 -0.0156 -0.1717
12653W        W32933   3.183  14.107  13.009  0.0208 -0.0122  0.0461
12654W        W32934   5.967   9.605  13.803  0.0542  0.0301 -0.0772
12655W        W32935   7.582   9.597  15.639 -0.1593  0.1917  0.1366
12656W        W32936   7.537  10.306   2.671 -0.2395 -0.1493  0.2111
12657W        W32937   4.177  15.988  16.439  0.0158 -0.4045  0.0843
12658W        W32938  13.761   4.440   1.842 -0.0614 -0.0877 -0.0900
12659W        W32939   8.641  16.610  12.206  0.0403 -0.0735 -0.0506
12660W        W32940  13.166   3.583   4.692 -0.3611 -0.1640  0.2108
12661W        W32941  10.896   8.946   1.084 -0.1961  0.0246 -0.0224
12662W        W32942   1.897  16.470  14.564  0.2549 -0.3495  0.1011
12663W        W32943   0.909   0.928   2.617  0.0643  0.2018  0.1280
12664W        W32944   1.659   4.897  15.100 -0.2224 -0.0859  0.0376
12665W        W32945   7.163   4.034  13.141 -0.1076 -0.3510  0.2446
12666W        W32946  16.751  13.721   4.166 -0.2150  0.0008 -0.2434
12667W        W32947   8.063  10.831  13.356 -0.1157 -0.0158  0.2639
12668W        W32948  14.377   0.526   0.401 -0.0538 -0.3134  0.1184
12669W        W32949   8.668   6.529  16.618 -0.1302 -0.0008 -0.3921
12670W        W32950   6.093   0.701  14.673  0.2678  0.0527  0.1428
12671W        W32951   5.783  14.788   1.991  0.2038 -0.0531  0.0384
12672W        W32952   5.192   8.770  16.844 -0.0787 -0.1571 -0.2580
12673W        W32953   4.315   6.194  12.874 -0.2029 -0.0070  0.1602
12674W        W32954   9.420   0.328   1.175 -0.0693  0.1037 -0.2127
12675W        W32955   0.849   7.405  12.458  0.0651  0.0321 -0.0733
12676W        W32956  17.531  12.966   2.766 -0.1197 -0.5357  0.2974
12677W        W32957   6.401   7.430  13.930  0.0600  0.4391 -0.1638
12678W        W32958   6.879   9.371  16.255 -0.1143  0.1635  0.1377
12679W        W32959   5.914  11.410  12.886  0.0864 -0.0875  0.3245
12680W        W32960  11.363  10.398  17.005 -0.0130  0.0602  0.2036
12681W        W32961  13.377  11.090  14.169  0.0191 -0.1452  0.0520
12682W        W32962  10.446  12.209   4.244 -0.1159 -0.0673 -0.2948
12683W        W32963   1.380  15.489   3.058 -0.0980 -0.0061  0.1843
12684W        W32964   2.835  15.634   5.067  0.0392  0.0340  0.1213
12685W        W32965  12.429  13.319   3.913 -0.0631 -0.1435  0.4117
12686W        W32966  11.115   0.450   3.821 -0.0015  0.0196  0.1283
12687W        W32967   4.420   0.998   2.082 -0.0901 -0.0528  0.2391
12688W        W32968  10.023   8.890  13.183  0.0223 -0.0461 -0.0433
12689W        W32969   1.309  15.021  15.253 -0.0496 -0.0901 -0.0933
12690W        W32970  17.572  15.911  15.075 -0.1507 -0.1657  0.1066
12691W        W32971  11.785  13.652  12.760 -0.4412 -0.0446 -0.0543
12692W        W32972  10.302  13.201   1.547  0.1953 -0.0707  0.3220
12693W        W32973   8.780   4.543  12.207  0.3483  0.1434  0.2721
12694W        W32974  13.625   2.746   4.575 -0.0907 -0.2400  0.0007
12695W        W32975  15.667  16.422   3.853 -0.1527 -0.2235  0.0256
12696W        W32976   1.635   0.305  13.225  0.4020  0.1251 -0.1205
12697W        W32977   2.303   8.611   0.993  0.1436  0.0243 -0.2030
12698W        W32978  15.553   2.258   3.077  0.0803  0.0714  0.1841
12699W        W32979  12.591  13.365   1.958 -0.1512 -0.1236 -0.2517
12700W        W32980  15.553   7.032   1.514  0.0985  0.1317 -0.1677
12701W        W32981   7.329   9.490   1.729 -0.0764  0.0889 -0.1199
12702W        W32982   9.690  12.390   2.899 -0.2920  0.0090  0.0922
12703W        W32983   1.897   1.755   0.858 -0.2735  0.2748 -0.0905
12704W        W32984  11.016  14.897  16.211 -0.0379 -0.0267  0.0191
12705W        W32985   9.940   6.929   0.568  0.1079  0.3617  0.0505
12706W        W32986   8.415  11.107  13.127 -0.0650  0.0214 -0.1911
12707W        W32987   0.885  14.753   2.014  0.0639  0.3317 -0.0112
12708W        W32988  10.098   7.314  14.056 -0.0676  0.0543  0.2826
12709W        W32989  17.112  14.382   5.500 -0.2308  0.0691  0.0693
12710W        W32990  10.828   6.952   3.512  0.2849  0.0974 -0.1595
12711W        W32991  17.142   1.743   4.073 -0.0919 -0.0728 -0.0182
12712W        W32992  13.296  14.777   0.060  0.0810  0.2503  0.1374
12713W        W32993   1.137  16.281   3.111  0.0788  0.1068 -0.2498
12714W        W32994  16.769   9.680   3.647 -0.0011  0.1093  0.0673
12715W        W32995  14.419  15.442  11.777 -0.0797 -0.0482  0.0420
12716W        W32996  14.656   3.822  12.386  0.0451 -0.0169  0.1025
12717W        W32997  10.195  11.890  15.089  0.1421  0.0889  0.0687
12718W        W32998  11.334  15.796  14.829  0.0444 -0.1147  0.2425
12719W        W32999  13.343   4.023  13.317  0.2144 -0.0631  0.0245
12720W        W33000   0.427  10.120   1.749  0.0395 -0.0877 -0.0958
12721W        W33001  12.857  13.787   4.242  0.0689 -0.1864 -0.0105
12722W        W33002   4.340  17.326   1.085 -0.1092 -0.0708  0.2301
12723W        W33003   4.491   3.132   1.727 -0.3824  0.2213 -0.2434
12724W        W33004   0.321  10.220  14.656  0.2288 -0.1727  0.1585
12725W        W33005   8.153  14.554  12.311 -0.2569  0.2434 -0.1123
12726W        W33006   8.757  15.444   3.806 -0.1054 -0.1218 -0.0936
12727W        W33007   7.915   9.825   2.711 -0.1472 -0.2211 -0.1799
12728W        W33008  11.637   3.275  15.007  0.1500  0.0191  0.0029
12729W        W33009  14.870   5.451   1.303  0.0315 -0.0713  0.1651
12730W        W33010   4.252  16.801  12.600  0.0712  0.1661  0.1121
12731W        W33011   3.810  12.585   2.930  0.1317 -0.2626 -0.0954
12732W        W33012   3.617   7.720   4.107 -0.1027  0.1185 -0.2286
12733W        W33013  17.058   5.903  12.515 -0.1211 -0.2245 -0.1344
12734W        W33014  17.689  17.595   3.006 -0.2399 -0.2540 -0.1361
12735W        W33015   0.537   3.482  11.779 -0.2361 -0.0661 -0.0932
12736W        W33016  15.278  14.973  13.200  0.4865  0.1467  0.0222
12737W        W33017   8.761   4.501   2.418 -0.0158 -0.0162 -0.1647
12738W        W33018  16.778  13.697   5.022  0.0965  0.2236  0.1253
12739W        W33019  15.425   3.315  16.067 -0.1453  0.1575 -0.1906
12740W        W33020   8.815   3.010   4.913 -0.1730 -0.0493 -0.1667
12741W        W33021  17.485   3.873   4.348 -0.1161  0.4219  0.4221
12742W        W33022   7.440   6.795  12.431  0.0133 -0.0514 -0.0262
12743W        W33023   5.341   2.313  15.713  0.0712  0.0265  0.0355
12744W        W33024   7.366   4.784   2.660  0.0018 -0.0367 -0.1405
12745W        W33025   2.755   1.011  14.757  0.2815  0.5595  0.1620
12746W        W33026   3.412  11.262  15.592  0.0609 -0.0967  0.0684
12747W        W33027  12.939   5.383   1.424 -0.3963 -0.1024 -0.3173
12748W        W33028  10.791  17.042  15.997 -0.1188 -0.0731  0.1234
12749W        W33029   0.935  10.149  12.691  0.0747  0.1935  0.0727
12750W        W33030   1.629   5.630   2.524 -0.0036  0.0787 -0.2346
12751W        W33031   6.206  12.770   2.581 -0.2668 -0.3903 -0.3723
12752W        W33032   3.896   7.562  12.639 -0.3482  0.2958  0.0680
12753W        W33033   1.228  13.602  14.650  0.0171  0.3053 -0.0991
12754W        W33034   8.269  16.811   0.927  0.1026  0.0787 -0.3381
12755W        W33035  11.708   5.153  12.793  0.2575  0.2134  0.1872
12756W        W33036   7.448   8.577  15.305  0.1761 -0.1148  0.1803
12757W        W33037   2.775  12.211   1.737  0.1405 -0.1549 -0.2153
12758W        W33038  12.937   1.883  12.313  0.1099 -0.3960  0.1727
12759W        W33039  15.532   5.173   4.011 -0.0360 -0.1184  0.1481
12760W        W33040  14.041   2.917  15.980  0.0039  0.2053 -0.1479
12761W        W33041  10.786  17.466  14.466 -0.0226 -0.0655  0.1331
12762W        W33042  12.339  10.798  14.037  0.0417  0.0046  0.2006
12763W        W33043   3.960  10.067  14.200 -0.0841  0.2172 -0.2728
12764W        W33044   8.012  10.988  12.904  0.3111 -0.1378  0.2550
12765W        W33045  15.850   5.331  15.001 -0.1964  0.1450 -0.3700
12766W        W33046  15.980   8.180  14.133  0.4060  0.0182 -0.1315
12767W        W33047   4.131  13.789   2.237  0.0513  0.1239  0.1133
12768W        W33048   2.374  15.750  15.338 -0.0198  0.2479  0.3499
12769W        W33049   2.594   8.684  13.759 -0.1381  0.0930 -0.0468
12770W        W33050   9.315   4.294  16.418 -0.1366 -0.0437  0.0520
12771W        W33051   7.954  10.923  14.428 -0.1482 -0.1979  0.0162
12772W        W33052   7.179   8.716  13.007  0.2872 -0.0313 -0.1878
12773W        W33053   5.468   5.863   2.884  0.0367 -0.0622  0.4524
12774W        W33054   9.237  13.596   1.498 -0.2676  0.2168  0.1499
12775W        W33055   3.979  14.903   0.792  0.1356 -0.0361  0.0002
12776W        W33056   6.782   1.651   4.869  0.1678  0.0172  0.1464
12777W        W33057   2.816   5.090   4.034  0.0259 -0.1649 -0.2748
12778W        W33058   6.008   6.561   0.584 -0.1781 -0.1750  0.0397
12779W        W33059   3.377   9.133  13.712 -0.0545  0.2903 -0.2848
12780W        W33060   5.985   5.094   3.454  0.0521  0.2571  0.1310
12781W        W33061  13.990  16.973  16.747  0.0424  0.0985  0.2204
12782W        W33062   3.294  11.519  13.751  0.0052 -0.3053  0.0760
12783W        W33063   2.318  10.108   0.048  0.1123 -0.1669  0.1068
12784W        W33064   6.247  13.840   4.118  0.0270  0.0744  0.0711
12785W        W33065  17.057  15.360  14.516  0.2079  0.0030  0.1644
12786W        W33066  10.515  14.975  14.108 -0.0756  0.1931  0.1733
12787W        W33067   2.495  17.297   0.759  0.0020 -0.0469 -0.2309
12788W        W33068  12.111   9.734   2.603  0.1421  0.1011  0.1983
12789W        W33069  14.389   2.649   0.980 -0.0379 -0.1836 -0.1465
12790W        W33070   0.963   2.541  16.061 -0.1551  0.0203  0.3363
12791W        W33071   2.973   1.191  14.336 -0.2180  0.1450 -0.1544
12792W        W33072   8.411   6.248   1.803 -0.4864 -0.1155 -0.0533
12793W        W33073   5.799   2.931  14.217 -0.1714  0.1625 -0.0316
12794W        W33074   2.280  12.154   1.536 -0.0849  0.1365 -0.1183
12795W        W33075   8.120   8.983   4.793  0.0422  0.1144  0.0207
12796W        W33076  11.959   1.243  13.235  0.1202  0.2938 -0.3275
12797W        W33077  14.444  10.073  15.412 -0.1092 -0.1338  0.2927
12798W        W33078  14.158   1.483  12.538  0.0644  0.4516 -0.0836
12799W        W33079  17.702   1.846  13.600  0.0213  0.1281 -0.0895
12800W        W33080  15.759   9.738  12.996 -0.1601 -0.2170  0.1271
12801W        W33081   3.993   9.595   0.694  0.2500 -0.1718 -0.0101
12802W        W33082   6.747  14.315   4.922  0.1502  0.0678 -0.2362
12803W        W33083   4.231  17.431   5.050 -0.1014 -0.0478 -0.2067
12804W        W33084  17.220   6.540   1.033 -0.1847 -0.0529 -0.5144
12805W        W33085  13.442  10.487  16.929 -0.2371  0.2068  0.2240
12806W        W33086  16.372  14.265  15.709 -0.2828 -0.1979 -0.0192
12807W        W33087   6.095   0.284  14.439  0.0486 -0.0090  0.1785
12808W        W33088   4.986  15.369  13.071 -0.3399 -0.0193 -0.1100
12809W        W33089   3.069  12.148  15.085  0.1732  0.2482  0.0988
12810W        W33090  13.240  16.551   0.857  0.3158 -0.0870  0.0318
12811W        W33091   7.657   6.371   1.964 -0.3140  0.0726  0.0875
12812W        W33092   6.098  17.599  13.759 -0.2734  0.0202 -0.0387
12813W        W33093  13.078   7.844  14.783 -0.2101  0.0748 -0.3918
12814W        W33094   0.307   7.011   0.190  0.2695  0.1295 -0.1198
12815W        W33095  12.445   3.122   2.339 -0.2316 -0.0104 -0.2841
12816W        W33096   7.916   4.555  13.849 -0.3393 -0.0821 -0.1248
12817W        W33097   6.727  10.981  12.729  0.0097 -0.0391  0.1644
12818W        W33098   0.492   8.009  12.889  0.0810  0.0310  0.1396
12819W        W33099   7.462   2.799   0.800 -0.0651 -0.2180 -0.1843
12820W        W33100   5.018  12.684   1.541  0.2592  0.1326  0.2434
12821W        W33101  14.997   1.425  13.902  0.0878  0.0540 -0.1645
12822W        W33102   4.485   5.738  12.670  0.5381 -0.0295 -0.1993
12823W        W33103   8.998  13.043  14.748 -0.0264  0.2069 -0.3030
12824W        W33104  13.936   1.840  16.023 -0.0674  0.2096 -0.0582
12825W        W33105  11.956   5.869  14.567  0.1472  0.5125  0.2359
12826W        W33106  12.325  11.812   1.894 -0.1408  0.1960  0.0592
12827W        W33107   0.636   9.629   1.870 -0.1842 -0.0592  0.2051
12828W        W33108  12.982   9.344  12.948  0.0699  0.2358 -0.2225
12829W        W33109  10.857   9.838   3.817 -0.0408 -0.1124  0.2095
12830W        W33110  17.426  16.916  13.425 -0.1426 -0.0960 -0.0802
12831W        W33111  10.612  11.912  16.106  0.0763 -0.2207  0.3027
12832W        W33112   5.083   2.950  12.504 -0.4825 -0.0106 -0.3682
12833W        W33113   2.266   3.050   3.628  0.3876 -0.0104  0.2807
12834W        W33114  15.434   8.183  14.975 -0.1426  0.0550  0.1191
12835W        W33115  12.332  12.790  12.782  0.0279  0.0949  0.2023
12836W        W33116   3.859  11.076   2.948 -0.1238 -0.3223  0.2059
12837W        W33117  12.935   8.546  13.494  0.2013  0.0133  0.2562
12838W        W33118   6.553  13.627   4.453 -0.3021 -0.1064  0.0084
12839W        W33119  15.645  16.970  15.926 -0.2982 -0.1709 -0.1010
12840W        W33120   6.943   9.746   3.948  0.0127  0.0102  0.1437
12841W        W33121  16.421  16.427   1.768 -0.1979 -0.2765  0.2332
12842W        W33122  11.069  17.144  14.087 -0.2503 -0.3542  0.2238
12843W        W33123  10.545   9.809   2.913  0.4905 -0.3961  0.0368
12844W        W33124   1.377   3.098  14.380  0.1364 -0.2260 -0.1784
12845W        W33125   2.208   7.550   1.643  0.0807 -0.2969  0.0798
12846W        W33126  14.978   3.236   4.523 -0.1954 -0.0766 -0.1301
12847W        W33127   2.003  17.700   1.868  0.0670 -0.3731  0.2120
12848W        W33128   0.746   5.486  13.444 -0.3489 -0.1379  0.1237
12849W        W33129   7.602  16.295   5.098 -0.0700 -0.0877 -0.1258
12850W        W33130  15.931  10.246  12.897 -0.4210 -0.1480  0.2733
12851W        W33131   5.625  11.993   2.605 -0.3924  0.1391 -0.3068
12852W        W33132   5.543   3.145   1.388 -0.1875  0.0009  0.1703
12853W        W33133   0.417   0.027   3.743  0.3794 -0.1123 -0.2372
12854W        W33134   2.766  11.808   0.768  0.0258  0.2880  0.2636
12855W        W33135   3.255  16.740   0.195 -0.0338  0.0393 -0.2285
12856W        W33136  14.949  16.415  12.644  0.3492  0.0141 -0.3822
12857W        W33137   8.813   2.485  13.538 -0.1164  0.0637 -0.0818
12858W        W33138   2.213   2.755   3.226 -0.3114 -0.2086 -0.2570
12859W        W33139  17.202  16.638   2.234 -0.1703 -0.0401  0.2496
12860W        W33140  12.526   7.386   4.136  0.0128  0.1412  0.0804
12861W        W33141   8.179   3.864  12.335  0.0528 -0.0356 -0.1925
12862W        W33142  16.413  17.584   4.551 -0.0426  0.1221  0.0618
12863W        W33143  12.037  16.219   3.189  0.0619 -0.2807  0.4026
12864W        W33144   7.463   4.166  16.606  0.3346 -0.0799 -0.1052
12865W        W33145  10.450  11.750   0.785 -0.0441  0.1609 -0.0967
12866W        W33146  15.411   2.720   2.885  0.0228 -0.1955 -0.3055
12867W        W33147   0.383   5.045  15.037  0.2089 -0.3664 -0.0538
12868W        W33148  12.172   5.296  13.103  0.1331 -0.2156 -0.1666
12869W        W33149   9.547   1.741   2.364 -0.3416  0.1255  0.1169
12870W        W33150  11.410  14.896   2.090 -0.3398 -0.0664  0.1344
12871W        W33151   9.938   4.185  15.533 -0.0380  0.2590  0.4292
12872W        W33152  16.219   4.921  16.720 -0.2200  0.1013 -0.1361
12873W        W33153  10.186  10.352  13.041  0.2674  0.1686 -0.2613
12874W        W33154  11.589   6.870   1.065  0.0029  0.1620 -0.0560
12875W        W33155  10.507   0.756   4.632 -0.1602  0.1822  0.0066
12876W        W33156   2.640  11.933   1.352 -0.1515  0.1227 -0.1278
12877W        W33157  16.848  16.334  11.954  0.3152 -0.0812 -0.1431
12878W        W33158   1.712  16.014   4.856  0.2539  0.1036  0.1045
12879W        W33159   4.562   7.760   4.847  0.4018 -0.3353 -0.1709
12880W        W33160  15.098  14.928   5.072  0.0467  0.1892 -0.1540
12881W        W33161  14.116  13.976   2.889  0.0219 -0.0471  0.0037
12882W        W33162  12.032   9.400  12.751 -0.0740 -0.1031 -0.1223
12883W        W33163   8.672   7.595   3.005 -0.1406  0.0909  0.1322
12884W        W33164   2.175   7.007   1.601  0.1682 -0.1592  0.2214
12885W        W33165   6.954   8.709  12.529 -0.1618 -0.1877 -0.0223
12886W        W33166   0.717   9.941  16.216  0.0362  0.0633  0.1084
12887W        W33167  12.921   3.817  14.651  0.4560 -0.0595  0.1155
12888W        W33168   4.626  15.042  16.338  0.2609  0.0953  0.2326
12889W        W33169  14.504   8.404   4.675  0.1938  0.2347 -0.1532
12890W        W33170   8.963   1.244   2.343  0.4461 -0.0791  0.0610
12891W        W33171   0.485   6.873   2.747 -0.0292  0.1083  0.0941
12892W        W33172   6.064   1.127   3.120  0.4902  0.0073 -0.2183
12893W        W33173   3.877   4.202   3.819  0.0367  0.0822  0.2450
12894W        W33174   2.100  16.070   2.965 -0.3078  0.2401  0.1287
12895W        W33175   2.634  15.018   4.192  0.1478 -0.0307  0.0033
12896W        W33176   1.600  13.311   0.956  0.0670 -0.0021 -0.1988
12897W        W33177   4.971  15.783   1.794 -0.2492  0.1715 -0.4816
12898W        W33178   0.507   0.162   1.698 -0.1369 -0.0638  0.0334
12899W        W33179  15.158   4.748  14.975  0.2272  0.0795 -0.2062
12900W        W33180   4.347   9.384  16.772 -0.4397  0.1726  0.0205
12901W        W33181  16.274   9.139  16.918  0.1679 -0.0475  0.0389
12902W        W33182  16.544   2.932   3.830 -0.1080 -0.2478  0.2705
12903W        W33183   4.702  12.542   3.369  0.0771  0.1076 -0.0255
12904W        W33184   5.842  17.189  15.954  0.2087 -0.4022 -0.1249
12905W        W33185   0.602  13.428   0.835 -0.4362  0.2478 -0.1431
12906W        W33186   1.784  16.910  15.061 -0.1290 -0.3640 -0.1651
12907W        W33187  12.956   6.464   2.166 -0.1246  0.0476 -0.1386
12908W        W33188   7.387   7.084   0.804  0.1375  0.2824 -0.0377
12909W        W33189   9.240  14.044   3.726 -0.0006 -0.0285 -0.0081
12910W        W33190   0.001  16.136   4.151 -0.2419  0.0106  0.0785
12911W        W33191   0.942  16.948  14.003 -0.2315  0.1755 -0.0849
12912W        W33192   5.477  13.807  14.155  0.0004 -0.0831 -0.0213
12913W        W33193   5.983  14.866   3.730 -0.1066  0.0667 -0.0195
12914W        W33194  13.972  12.112   1.072  0.0590 -0.0086 -0.0761
12915W        W33195   6.296   5.816   4.394 -0.1073  0.0174  0.0719
12916W        W33196  14.538   9.982  14.910  0.0541  0.1649  0.1877
12917W        W33197  12.824  12.642   0.315  0.1822  0.0764 -0.1018
12918W        W33198  17.577   1.143   0.923 -0.2256 -0.0196  0.0888
12919W        W33199  11.679   3.278   3.468  0.5421  0.2065 -0.0827
12920W        W33200  13.278  16.649  15.260 -0.0565  0.2539 -0.1988
12921W        W33201   7.465   8.626  11.843 -0.1721  0.1497 -0.0405
12922W        W33202  10.717  15.533  14.045  0.5371 -0.1301  0.2012
12923W        W33203   7.741  14.490  14.319  0.0277 -0.0526 -0.0455
12924W        W33204   7.795  17.211   1.743  0.2545 -0.0147  0.1139
12925W        W33205  11.327   6.861   3.499 -0.0410  0.0811  0.1303
12926W        W33206   4.608  16.111  16.815 -0.0288  0.2639 -0.1600
12927W        W33207  13.018  12.813   4.282  0.1293 -0.0580  0.2938
12928W        W33208   9.954  10.362  15.836 -0.0871  0.2393 -0.0605
12929W        W33209  10.357  16.748  16.174 -0.1361  0.0045 -0.3231
12930W        W33210   0.482   1.564   4.069 -0.0884  0.0845  0.1585
12931W        W33211   4.343   3.940   3.664  0.1166  0.2835 -0.1396
12932W        W33212   0.782   5.285   3.580  0.1626  0.1101  0.0418
12933W        W33213   9.638   5.235  16.207  0.0448 -0.2363 -0.2798
12934W        W33214  11.281   5.090   2.515 -0.1274 -0.0587 -0.0523
12935W        W33215   7.966   0.143   6.024 -0.0217  0.0404  0.0181
12936W        W33216   4.424  11.656   3.059 -0.4229 -0.0422  0.0152
12937W        W33217  10.301  11.850   0.291  0.0593 -0.1793 -0.2913
12938W        W33218   7.955  14.755   0.785 -0.4550  0.0636 -0.0067
12939W        W33219   1.154  17.020   4.404 -0.3930 -0.0613  0.4087
12940W        W33220   9.035   5.381  13.509  0.0327 -0.3302 -0.0636
12941W        W33221  11.053   6.594  16.163  0.1597 -0.0388  0.1156
12942W        W33222   7.502   1.067  16.200  0.1537  0.1889  0.1357
12943W        W33223   0.830  16.656   1.896 -0.2562  0.1306 -0.0953
12944W        W33224   5.073  11.009   4.580 -0.0677  0.1533 -0.1135
12945W        W33225  13.534   2.277   4.415 -0.1183 -0.0003 -0.2031
12946W        W33226  14.384   8.381  12.344 -0.2827  0.0985  0.1585
12947W        W33227   3.145  15.440  15.606 -0.0789 -0.1293  0.2502
12948W        W33228  12.948  10.584  12.745  0.0130  0.2942  0.1990
12949W        W33229  15.025   6.575   4.778 -0.2773  0.2040  0.0404
12950W        W33230  11.639   4.780  16.436  0.2391 -0.2593 -0.0593
12951W        W33231   4.401  11.546  14.688 -0.2300 -0.0253  0.0420
12952W        W33232   0.649   0.656   2.300  0.3766 -0.3419  0.0993
12953W        W33233  14.139  10.847   2.142  0.2128 -0.5629  0.0777
12954W        W33234  17.640   7.722   3.664 -0.2313 -0.2788  0.0719
12955W        W33235  11.523  16.791   3.059  0.1066  0.2930 -0.0088
12956W        W33236   8.302   0.964   3.922 -0.0689  0.2775  0.0980
12957W        W33237  11.923   2.886  16.754 -0.2321  0.0223 -0.0911
12958W        W33238   7.470  10.005   5.215  0.3441  0.3391  0.0692
12959W        W33239   9.617  17.305  14.134  0.1266 -0.1831  0.0591
12960W        W33240  11.339   7.832  12.199  0.0568  0.1993 -0.0416
12961W        W33241   1.475   9.442  13.714 -0.0460  0.1145  0.1800
12962W        W33242  12.873  12.260   1.077  0.0031  0.0517 -0.1476
12963W        W33243   5.583   3.676  15.228  0.3429  0.1008 -0.0953
12964W        W33244  14.721  15.764   0.441 -0.0920 -0.2149 -0.0993
12965W        W33245   7.378   4.033  14.530  0.2262 -0.0055 -0.0698
12966W        W33246  12.710  15.984  15.750  0.2467  0.2875 -0.3689
12967W        W33247   3.553   3.359  13.858 -0.0803 -0.4301 -0.1881
12968W        W33248  11.967  15.644   4.624  0.1552  0.0088 -0.3479
12969W        W33249  17.117  11.692   1.471  0.0853  0.1949 -0.1151
12970W        W33250   3.281  15.483  16.306  0.2431  0.0380 -0.0390
12971W        W33251   8.418   8.983  16.624 -0.1079  0.0074  0.0296
12972W        W33252   1.021   4.418  14.227 -0.0733  0.3197 -0.0408
12973W        W33253   3.675   7.451   4.879 -0.0335 -0.0431 -0.0555
12974W        W33254  13.882   4.130  12.736  0.0842  0.0763  0.2700
12975W        W33255  12.427   7.397   0.975  0.0650  0.2099  0.1276
12976W        W33256   5.411  11.350  13.834 -0.0542  0.1622 -0.1054
12977W        W33257   7.448   6.013   1.652  0.1558  0.2694 -0.3733
12978W        W33258  15.304   7.987  12.621  0.1769 -0.0557  0.0026
12979W        W33259  16.000   8.449   4.525 -0.0104  0.1424 -0.1322
12980W        W33260   2.956   4.518  16.786  0.3358 -0.0742  0.2672
12981W        W33261  11.550   4.486   2.838  0.1784  0.1738  0.1910
12982W        W33262  14.744   3.330  12.553  0.0796 -0.1530  0.3856
12983W        W33263   5.296   3.631   2.607 -0.0391  0.1214  0.1303
12984W        W33264   9.213   6.474   1.390 -0.0157 -0.4101  0.0697
12985W        W33265  16.089   0.899   4.658  0.1964  0.2605  0.1656
12986W        W33266  14.321   1.115  14.387 -0.0961  0.1658 -0.3132
12987W        W33267  13.035  16.509   2.304 -0.0418 -0.0059  0.3023
12988W        W33268   7.578  13.220   4.917 -0.2161  0.0918  0.3258
12989W        W33269  17.129  14.055  15.321  0.2731 -0.0717 -0.4078
12990W        W33270  12.292   0.710  14.916  0.0327 -0.0795  0.1704
12991W        W33271  15.488   4.079   2.682 -0.0578 -0.3084 -0.2522
12992W        W33272   7.171   9.267  13.640 -0.1364  0.1935  0.0374
12993W        W33273   0.686   7.931   3.838 -0.3018 -0.2344 -0.1161
12994W        W33274   2.825   9.271   2.679  0.2016  0.0928  0.0458
12995W        W33275   0.331  14.856  15.978 -0.2080 -0.0303 -0.1462
12996W        W33276   0.494   9.306  15.254 -0.2765 -0.0027  0.1127
12997W        W33277  15.873   4.822  13.758  0.1380  0.1636  0.2373
12998W        W33278  10.776   8.438  16.717  0.0658  0.2842 -0.1942
12999W        W33279   2.052  11.643  13.027 -0.3230 -0.2494 -0.0665
13000W        W33280   1.439  14.522  14.123 -0.0213  0.0391 -0.2944
13001W        W33281   0.244   9.811  13.227  0.1430 -0.0667 -0.1327
13002W        W33282   6.087  14.882  13.017  0.1202  0.2014 -0.0364
13003W        W33283  15.402  11.586  12.935 -0.0339  0.0050  0.0271
13004W        W33284  10.202  14.101   4.068  0.0045  0.1016 -0.0425
13005W        W33285   1.279  15.443  13.740 -0.0294 -0.1060 -0.0774
13006W        W33286   0.957   5.455  13.928  0.1402 -0.0666  0.1168
13007W        W33287  14.631   4.308   2.059  0.0318 -0.1712 -0.0891
13008W        W33288   4.442   3.131  13.784  0.0712  0.2459  0.0262
13009W        W33289   6.941  11.671   1.972 -0.2187  0.0498  0.0805
13010W        W33290  16.655  14.547  13.436  0.0785  0.2589 -0.1329
13011W        W33291   8.512  13.847   4.965  0.1722  0.1441 -0.1321
13012W        W33292   3.851   7.366  13.616 -0.3609  0.3510  0.2299
13013W        W33293   5.902  10.103  13.588 -0.0524  0.2214  0.4341
13014W        W33294   6.577  17.644   1.049  0.1680  0.0952 -0.3965
13015W        W33295   1.106   0.593   0.389 -0.0521  0.0728 -0.0146
13016W        W33296   8.550   8.909  13.026  0.0831 -0.0343 -0.1088
13017W        W33297   1.813   1.279   1.132  0.0676  0.0302  0.0066
13018W        W33298   5.666   2.163   2.056  0.1609  0.1775  0.2106
13019W        W33299   1.048   7.292   3.166  0.3797 -0.0104  0.0262
13020W        W33300  13.931   6.436  15.123  0.2118 -0.0258 -0.1500
13021W        W33301   2.753   0.398   2.381 -0.0878 -0.3153 -0.4427
13022W        W33302  12.414   5.578  13.834 -0.0543  0.1581 -0.0564
13023W        W33303   7.115   8.106  14.555 -0.0109  0.0626  0.1710
13024W        W33304   2.036   8.227   3.944 -0.1187  0.0880  0.1709
13025W        W33305   2.441  16.739  16.332  0.2276  0.1925 -0.2118
13026W        W33306  16.939  15.474  12.227  0.1751  0.2119 -0.1328
13027W        W33307   7.022   4.768   1.328  0.1421  0.0086  0.1813
13028W        W33308  15.156   8.694  13.710  0.0525  0.0614  0.1961
13029W        W33309  16.863   8.263   3.635 -0.0148  0.0668 -0.0121
13030W        W33310   2.523  12.554  13.373  0.0506  0.0796  0.1113
13031W        W33311   8.507   0.980  14.167 -0.0451  0.0427 -0.3040
13032W        W33312   8.148  14.849  13.917 -0.0858  0.3406  0.2679
13033W        W33313   3.340  17.364   4.766 -0.2303  0.0623 -0.0024
13034W        W33314   2.973   4.585  13.150  0.0963  0.0734  0.2111
13035W        W33315  11.288  12.176  15.248 -0.0549  0.0457  0.3445
13036W        W33316   1.963   6.242  13.663 -0.2559  0.0720  0.0055
13037W        W33317   6.491   1.956   0.266 -0.1122 -0.0962  0.3521
13038W        W33318  11.779  13.915  15.604  0.1527 -0.2314  0.0722
13039W        W33319   3.117  12.394   3.228  0.0732 -0.2038 -0.1360
13040W        W33320  13.812  13.435  16.112  0.0426  0.1764  0.1897
13041W        W33321  15.677   8.670   3.417  0.0416  0.0859 -0.2725
13042W        W33322   7.022   1.938  15.951  0.2411 -0.0547 -0.1787
13043W        W33323  12.661  10.406   2.609  0.1724 -0.2292 -0.1527
13044W        W33324   5.219  14.335  15.314 -0.3767  0.0276 -0.0686
13045W        W33325   8.541   9.595  15.805 -0.1214  0.3186  0.0778
13046W        W33326  15.002  15.797  14.729  0.2165 -0.0878 -0.0478
13047W        W33327   4.375  16.974   5.122  0.0884 -0.1335  0.0138
13048W        W33328  12.738  14.147  16.133 -0.2570  0.0533 -0.1693
13049W        W33329   4.958   0.627  12.443 -0.0535 -0.1679  0.0421
13050W        W33330  11.018   7.436  13.049  0.2050 -0.0848 -0.0227
13051W        W33331   8.335   2.286  13.561 -0.0861  0.0264 -0.2484
13052W        W33332  12.313  13.681  12.677  0.0504  0.0055 -0.1741
13053W        W33333  12.137   1.614   3.543 -0.0961  0.0635  0.3527
13054W        W33334   9.259   2.845   1.720  0.3252  0.2769  0.0103
13055W        W33335   3.055  15.833  13.936 -0.2505 -0.1893  0.0047
13056W        W33336   5.775   2.560   2.468  0.1638  0.0741  0.0913
13057W        W33337  17.669   9.456  16.225  0.0270 -0.1011  0.1899
13058W        W33338   3.110   0.510  16.562  0.0964  0.0596  0.0554
13059W        W33339  10.989  15.067   0.585  0.0316 -0.3271  0.1933
13060W        W33340  10.304   7.889   0.405  0.1012  0.1429  0.1720
13061W        W33341   4.048   4.070  15.530  0.0225  0.0741  0.1284
13062W        W33342  13.561   1.479   4.870 -0.0806 -0.0612 -0.3399
13063W        W33343   1.666   8.474  13.797 -0.1116  0.2461 -0.1034
13064W        W33344  11.778   1.554  15.103 -0.0565 -0.2833 -0.0785
13065W        W33345  12.930  14.478  15.849  0.0243  0.0711 -0.2027
13066W        W33346  14.887  10.463   4.636 -0.0695  0.0628  0.0748
13067W        W33347  11.508   6.254  15.130 -0.0482 -0.0032  0.5653
13068W        W33348   6.587   6.496  15.197  0.0506 -0.1983 -0.0310
13069W        W33349   6.049  17.165  13.332 -0.0741  0.0376 -0.3052
13070W        W33350   5.465  16.777   2.654 -0.2289  0.3711  0.4080
13071W        W33351  11.901   1.280   1.800 -0.0569 -0.3268  0.0342
13072W        W33352   3.172  14.225  16.189 -0.4453 -0.1652 -0.2757
13073W        W33353   4.677   3.329  12.490  0.2134  0.1279  0.0100
13074W        W33354   6.486  11.357  16.663 -0.0858 -0.3116  0.0937
13075W        W33355   9.655  15.369   3.139 -0.1145 -0.1363 -0.2823
13076W        W33356  12.680  12.999   2.306  0.0279 -0.1351 -0.1117
13077W        W33357   7.896   9.388   1.737  0.1785  0.1201 -0.4146
13078W        W33358   4.938  11.224  12.925  0.4080 -0.0262 -0.2622
13079W        W33359   3.564   0.078  12.970  0.0364 -0.0339  0.0716
13080W        W33360  11.746  15.209   3.419  0.0498 -0.0151  0.2522
13081W        W33361  13.449  15.523   3.736  0.2790  0.1736 -0.0668
13082W        W33362  15.570   1.528   2.723  0.1089 -0.2319  0.1968
13083W        W33363  15.502   5.707   3.238 -0.1680 -0.1215 -0.1894
13084W        W33364   1.075  12.905   1.631 -0.1109  0.0149 -0.0701
13085W        W33365   7.197  10.363  14.950  0.0835 -0.0131  0.1635
13086W        W33366   2.644  14.216   2.602  0.2033  0.0853 -0.1505
13087W        W33367   7.631  14.250   3.145  0.2480 -0.0683  0.2504
13088W        W33368   6.021   5.519  15.162 -0.1540  0.5046  0.0295
13089W        W33369  11.928   6.732  16.735  0.1406 -0.1236  0.0555
13090W        W33370   9.841   2.777   3.270 -0.0496 -0.1174  0.3761
13091W        W33371   7.866  10.242   3.595  0.2299  0.1415  0.1638
13092W        W33372  11.647   0.635  13.890  0.0353 -0.1167 -0.0753
13093W        W33373   3.576  16.852   3.741  0.2207  0.1823  0.2873
13094W        W33374  15.923  13.406  16.439 -0.0334 -0.0627 -0.0571
13095W        W33375  12.948   6.870  12.013  0.1257 -0.1247 -0.0221
13096W        W33376  10.291   3.503   4.916  0.7089 -0.2214 -0.1883
13097W        W33377   5.946  17.122  13.838  0.0604  0.3863 -0.2106
13098W        W33378   1.836  14.357  11.934  0.1931 -0.1661  0.1390
13099W        W33379   1.728   0.109   2.694  0.1949  0.1978 -0.1448
13100W        W33380   4.663  14.305   1.128 -0.0629  0.0142  0.0402
13101W        W33381   6.896  12.178  13.597  0.0097 -0.0763 -0.1252
13102W        W33382   0.472   9.852   2.786 -0.2583 -0.2681 -0.1025
13103W        W33383  16.288  11.218   1.521  0.2296  0.1381  0.2686
13104W        W33384  12.501  17.312  14.460 -0.0809 -0.2702 -0.1950
13105W        W33385  11.561   5.107  14.190  0.1382 -0.0619  0.1870
13106W        W33386   0.304   4.318   0.196 -0.2073  0.1636 -0.0572
13107W        W33387   4.061   2.734   3.713  0.2016 -0.1494 -0.0988
13108W        W33388  15.924   9.363  16.521  0.0005 -0.0827 -0.4518
13109W        W33389  16.718   0.922  15.609 -0.2208  0.1115  0.1759
13110W        W33390  14.963  13.732   3.277  0.3006  0.0416  0.1133
13111W        W33391  10.955  12.121   3.083 -0.0208  0.0285  0.0501
13112W        W33392   5.661  16.895  15.545 -0.1907  0.0054  0.0521
13113W        W33393   4.447   6.757  12.970 -0.1604  0.0631  0.1496
13114W        W33394   2.932   2.362   1.277  0.1322  0.3488 -0.0564
13115W        W33395   9.363  15.357   1.918 -0.1699  0.0741  0.1346
13116W        W33396   9.524  17.201   1.456 -0.2064 -0.1190 -0.1802
13117W        W33397   7.240   2.288  13.184  0.1523  0.0341 -0.2240
13118W        W33398   9.056  15.688  11.924  0.1234 -0.1380  0.0614
13119W        W33399   3.401   2.975  13.493 -0.1710 -0.0786 -0.2578
13120W        W33400   1.656  17.643   0.588  0.3093 -0.0778 -0.0610
13121W        W33401  12.849   4.141  15.598  0.0173  0.0756 -0.3238
13122W        W33402  16.521   3.835  12.455  0.2255  0.4206  0.0058
13123W        W33403  12.825   5.475   2.392  0.2096 -0.1652  0.0406
13124W        W33404  16.046   6.461   1.245 -0.0655  0.0505  0.1192
13125W        W33405  15.377   3.105   0.877 -0.0715  0.0168  0.0743
13126W        W33406   4.218   0.192   2.462  0.0847  0.1229 -0.2388
13127W        W33407   2.935  13.831   4.269 -0.0583  0.0424 -0.7076
13128W        W33408  14.269  14.532  16.530  0.3389  0.1528  0.1557
13129W        W33409   7.803   7.514  14.307  0.2066  0.1210  0.1221
13130W        W33410   7.865   2.865   4.613  0.1720  0.1064  0.2496
13131W        W33411   5.304   0.204  12.414  0.0742 -0.1798  0.1513
13132W        W33412   9.001  17.386   4.320  0.0368 -0.2803  0.0973
13133W        W33413   4.390   0.657   1.600 -0.1826  0.1194  0.3400
13134W        W33414   7.368  11.364  13.085  0.3545 -0.3347  0.0469
13135W        W33415   3.713  16.477  15.613  0.0069  0.1003  0.0295
13136W        W33416  13.708   9.337  13.303  0.3271 -0.1113  0.2798
13137W        W33417   7.386  12.838  13.800 -0.1158  0.0036 -0.0365
13138W        W33418   6.837   1.992   3.551  0.0665  0.2243 -0.0271
13139W        W33419   2.163  11.296   1.888 -0.0136  0.0273  0.1449
13140W        W33420   4.744   4.603  16.860  0.2870  0.0106  0.1415
13141W        W33421  11.008  10.676   1.417 -0.3191 -0.1041  0.3168
13142W        W33422   8.791  14.632   0.005 -0.1310  0.1065 -0.1604
13143W        W33423   8.304   4.169  16.838  0.1435  0.0711 -0.0814
13144W        W33424   0.659   6.760   4.462  0.0673 -0.1333  0.0750
13145W        W33425  10.724   9.688  15.041 -0.1251  0.1987 -0.1226
13146W        W33426  11.450  11.971  14.397  0.0243 -0.3229 -0.1528
13147W        W33427  15.424   2.874  15.229 -0.3487  0.0544  0.4964
13148W        W33428   9.525   6.710   0.050 -0.0725 -0.0246 -0.0351
13149W        W33429  12.711   9.134   2.077 -0.0356  0.1082  0.5394
13150W        W33430   2.272  13.387  16.961  0.1189 -0.3115 -0.1578
13151W        W33431   4.161   2.266   2.329 -0.2754 -0.0298 -0.1954
13152W        W33432  13.617   1.733   4.038  0.0142  0.1746  0.0799
13153W        W33433  13.915   2.405   1.849 -0.3117 -0.0810  0.2600
13154W        W33434  11.082   2.128  16.921 -0.2635  0.0828  0.1006
13155W        W33435  14.416   8.336   3.913 -0.0260  0.0233 -0.1692
13156W        W33436  12.289  13.817   2.216 -0.1329  0.0163  0.2484
13157W        W33437  17.502   2.845   1.812  0.0025  0.1112 -0.1067
13158W        W33438  17.385   3.699   1.799 -0.1243  0.5172 -0.1336
13159W        W33439  15.532   3.033  17.003  0.0719  0.0296 -0.0494
13160W        W33440   0.273  10.376   0.456 -0.1708 -0.0717  0.0316
13161W        W33441  17.603  11.882  13.434  0.2927 -0.0134  0.0639
13162W        W33442  17.081  10.307  15.058  0.1864 -0.0877  0.0539
13163W        W33443  12.776   0.258   5.283  0.2032 -0.1437 -0.2782
13164W        W33444   0.197   4.155  15.265 -0.0797  0.3126  0.1435
13165W        W33445   4.221   7.342  14.040  0.5296  0.1374 -0.2524
13166W        W33446  14.128  16.996  14.691  0.1496 -0.0947 -0.1018
13167W        W33447   3.501  15.955   0.067  0.0175  0.0933 -0.0432
13168W        W33448   3.935  12.953   3.679  0.2182 -0.1192 -0.0276
13169W        W33449   3.512  15.120  15.995  0.0984 -0.3498 -0.2625
13170W        W33450  16.498  15.849  13.624  0.2271  0.2726 -0.2055
13171W        W33451   9.779  12.058  12.873  0.0110 -0.0276  0.0508
13172W        W33452  12.076  10.407  12.563 -0.0969  0.0398 -0.1024
13173W        W33453   5.943  13.570  15.917 -0.2203  0.2842 -0.0306
13174W        W33454   7.964   2.775  16.447  0.0664  0.0438 -0.0689
13175W        W33455   3.294  13.548   0.339 -0.1425 -0.0802  0.2838
13176W        W33456   6.441   5.591  16.775  0.2831 -0.0864  0.0296
13177W        W33457  12.000   2.739   0.242  0.0055  0.1721 -0.1844
13178W        W33458  16.772   5.902   4.043 -0.1016 -0.0915 -0.1042
13179W        W33459  14.701   1.036   1.658 -0.0100  0.1548  0.1979
13180W        W33460   6.621  14.421  12.756  0.0556  0.1986 -0.1560
13181W        W33461  10.665   6.580   1.659  0.0692  0.0544  0.0234
13182W        W33462   2.826  15.165  13.574 -0.0739  0.4909 -0.1190
13183W        W33463   0.023  14.630  12.533 -0.3237  0.1003  0.1605
13184W        W33464  17.543   5.592  12.998 -0.3166  0.1446 -0.0774
13185W        W33465  16.227   9.735   2.667  0.0683 -0.2807 -0.1823
13186W        W33466  12.880   3.450   2.157  0.3475 -0.2105 -0.3844
13187W        W33467  14.629   1.754  13.552  0.1957  0.0066  0.1236
13188W        W33468   8.272  17.178   1.814 -0.0195 -0.1914 -0.1949
13189W        W33469   2.110   9.156  12.638 -0.1393  0.0603  0.1185
13190W        W33470   3.294  15.474   2.646 -0.0924 -0.3103  0.0113
13191W        W33471   0.084  12.925   4.824 -0.0839  0.0705 -0.0460
13192W        W33472  17.187   5.304  13.243  0.0657 -0.1207  0.1523
13193W        W33473   3.524   7.799   1.499  0.1153 -0.2019  0.3088
13194W        W33474   5.555  12.628  14.130  0.1139  0.0856 -0.0394
13195W        W33475   6.339  13.525  15.138 -0.1862  0.4800 -0.1146
13196W        W33476  16.216   6.891   0.757  0.2646 -0.0248  0.0650
13197W        W33477  12.222  11.031  15.699  0.1651  0.2483  0.0083
13198W        W33478  12.973  12.034  16.385  0.2525 -0.3547 -0.2032
13199W        W33479   9.949  13.991   1.962  0.1455 -0.0690 -0.0203
13200W        W33480   0.703  13.033   0.403 -0.0366 -0.1335  0.1225
13201W        W33481  11.342   9.213  16.702 -0.1197 -0.2089 -0.3298
13202W        W33482  12.570  13.728   0.922  0.0972  0.2474  0.2381
13203W        W33483   5.863   2.869  14.700 -0.1809 -0.0089 -0.0793
13204W        W33484  14.472  11.389   1.503  0.1867  0.2217 -0.2239
13205W        W33485   4.253   8.037  15.119 -0.2397  0.0382 -0.1223
13206W        W33486  13.828   9.763  14.025  0.0425 -0.2231  0.1221
13207W        W33487   5.322  10.296   0.372 -0.2201 -0.1093 -0.0963
13208W        W33488  14.294   3.602   2.297 -0.1208  0.2321  0.1216
13209W        W33489  16.100   6.135   2.603  0.1265  0.0390  0.2300
13210W        W33490  10.378   7.071   3.810  0.0543 -0.1045  0.1179
13211W        W33491   0.563   7.653   2.555  0.0940  0.1164  0.0975
13212W        W33492   2.378   3.127   2.297 -0.1178  0.1028 -0.0801
13213W        W33493  13.845  16.489   4.474  0.4457  0.3488 -0.1221
13214W        W33494   9.672   1.240   2.909  0.0331 -0.1594  0.1250
13215W        W33495   1.609  14.031  16.994  0.1600  0.0569  0.0177
13216W        W33496   1.609   3.662   2.456 -0.2032  0.2029 -0.1501
13217W        W33497   2.428   2.263   1.310  0.1353  0.0195 -0.3072
13218W        W33498   8.081  14.455   4.699  0.1362  0.0990  0.1189
13219W        W33499   7.578   0.622  15.841 -0.1443 -0.1020  0.0143
13220W        W33500  15.324   2.851  16.224  0.0975 -0.0938  0.1480
13221W        W33501   2.615  12.461   1.269  0.0028  0.2762  0.1358
13222W        W33502   0.829   6.517   3.971  0.0721  0.0671 -0.3417
13223W        W33503  16.963   1.879  15.794 -0.0054  0.1814  0.1456
13224W        W33504  14.209   0.719  12.847 -0.2111 -0.2201 -0.0665
13225W        W33505   2.133   8.805  15.982 -0.0304 -0.3175  0.1667
13226W        W33506   4.776   6.244  16.880 -0.3303 -0.0547  0.1601
13227W        W33507  14.787   7.415  14.002  0.3751  0.1112  0.0809
13228W        W33508  14.322   2.374   3.393 -0.1218 -0.1922  0.3658
13229W        W33509   7.817   4.246  15.407  0.2424 -0.4802  0.0073
13230W        W33510  16.560  10.025  14.155  0.2955  0.1756 -0.1631
13231W        W33511   6.401  10.016  13.771  0.3069  0.1120  0.0824
13232W        W33512   5.886  11.221  13.867  0.2285 -0.2076  0.0724
13233W        W33513  14.733   6.059  15.370 -0.0746 -0.4368 -0.0703
13234W        W33514   9.553   6.551  13.325 -0.2225  0.2272  0.1155
13235W        W33515  16.084   0.980   3.390  0.0100 -0.1263  0.2382
13236W        W33516   5.149   7.161   2.666 -0.0640  0.2408 -0.1490
13237W        W33517   3.516  16.272  15.171 -0.1741  0.0384  0.1161
13238W        W33518   7.020   1.964   4.558  0.0631  0.1150  0.0154
13239W        W33519   3.546   9.272   3.535 -0.0666 -0.0301 -0.2719
13240W        W33520  13.411   3.902  12.708 -0.0905 -0.2016  0.3787
13241W        W33521  15.597   5.071   2.485  0.0495  0.1405 -0.0242
13242W        W33522  12.381  16.838   1.052  0.0945  0.1013  0.2880
13243W        W33523   4.035   5.562   0.598  0.0829 -0.1092 -0.0356
13244W        W33524  15.898  11.210   1.183 -0.0487  0.4008 -0.1011
13245W        W33525  17.281   0.063   3.875 -0.0015 -0.1047 -0.1057
13246W        W33526   1.193  11.722   1.597  0.4914  0.1461  0.0519
13247W        W33527  17.437   0.157  14.482  0.0967  0.1840 -0.0257
13248W        W33528   0.068   9.808   4.350  0.0234  0.2071  0.3126
13249W        W33529  15.109  11.135  15.262  0.1838  0.0692 -0.0178
13250W        W33530  15.812  10.479  16.696 -0.0327  0.2161 -0.0382
13251W        W33531   5.268   1.460   4.220  0.1684  0.1237 -0.0885
13252W        W33532   1.836   7.002  15.988  0.1906 -0.4329  0.0576
13253W        W33533  16.661   2.778  12.352  0.0133  0.0013  0.2370
13254W        W33534   9.094   7.756   1.029  0.3801 -0.0425 -0.0271
13255W        W33535  17.413   9.839  13.268 -0.0946  0.1678  0.1176
13256W        W33536   4.564  16.430   1.405  0.0025 -0.0151 -0.0850
13257W        W33537   8.440   1.704  13.558 -0.2383  0.0323 -0.1165
13258W        W33538   8.029   1.310  16.696 -0.1263  0.2880  0.0887
13259W        W33539   5.121   0.510   4.191  0.2705  0.2240 -0.0552
13260W        W33540   0.772   3.072  14.095  0.1593  0.2634  0.2619
13261W        W33541   3.371  13.222   2.058 -0.0885  0.1868  0.0793
13262W        W33542  12.008   5.259  15.308  0.2091 -0.0855 -0.0571
13263W        W33543   1.702   6.023  14.433  0.0903 -0.0342  0.1349
13264W        W33544  13.414  17.099   0.973 -0.1504 -0.2725 -0.2242
13265W        W33545   8.079   8.356   0.318 -0.0410  0.0311 -0.0035
13266W        W33546  10.460   3.483  15.127  0.2599  0.0415 -0.1962
13267W        W33547   6.253  12.340   3.859 -0.0936 -0.1481 -0.3736
13268W        W33548   7.074   7.195   3.647 -0.1153  0.1506 -0.1398
13269W        W33549   9.123  16.163  16.082 -0.0964  0.0288 -0.0099
13270W        W33550   0.602   1.801  12.731 -0.0055 -0.1260 -0.0734
13271W        W33551  12.141   8.253  15.642 -0.0534 -0.0157 -0.2040
13272W        W33552  11.841  16.373   0.367 -0.2292 -0.0241  0.3531
13273W        W33553   9.722   2.742  16.950  0.0131  0.4198 -0.2847
13274W        W33554   2.755  17.449   1.620  0.2582  0.0416 -0.1558
13275W        W33555   4.623   9.524   2.675  0.2776  0.2131 -0.4803
13276W        W33556   0.695  13.946   1.618  0.0980  0.4459 -0.0008
13277W        W33557  14.428  14.761   3.107  0.0428 -0.0970 -0.2751
13278W        W33558   4.350   5.553  11.829  0.1409 -0.2849 -0.2536
13279W        W33559   6.036  10.865  13.120  0.1718  0.1634  0.0178
13280W        W33560   1.121  11.509   2.598 -0.0449 -0.0126 -0.0925
13281W        W33561   4.414   7.618  15.469  0.1727 -0.1108  0.0397
13282W        W33562  13.112  12.818  14.050 -0.2454 -0.1014 -0.0987
13283W        W33563  13.617  11.874   1.382 -0.5962  0.2182 -0.0540
13284W        W33564  14.187   5.275  16.945  0.1523  0.0684 -0.0180
13285W        W33565  13.223   4.169  15.247 -0.0535  0.2463 -0.2766
13286W        W33566   1.967   2.849  14.979  0.0253 -0.0927 -0.3123
13287W        W33567   0.551  12.792   1.449 -0.1586 -0.5074  0.0896
13288W        W33568   6.560   5.380   0.157 -0.1400 -0.1091  0.1699
13289W        W33569   6.755   3.764   0.751 -0.1828 -0.1789  0.0582
13290W        W33570   2.172   7.573   2.850 -0.1866 -0.1308 -0.0404
13291W        W33571  11.235   0.734  14.320  0.0839 -0.2431 -0.1349
13292W        W33572   3.814   0.894  14.905 -0.2124  0.1801 -0.0203
13293W        W33573   1.548  15.674   0.084  0.0287 -0.1248 -0.1101
13294W        W33574  16.047   1.703  15.194 -0.0328  0.3320  0.0507
13295W        W33575  12.767   0.216  13.494 -0.2395  0.3713  0.2912
13296W        W33576  10.351   0.739  15.269  0.2788  0.2300 -0.1871
13297W        W33577  14.799   0.684   5.064 -0.0724  0.0052 -0.2020
13298W        W33578   3.479  15.514   4.499 -0.0696 -0.0950 -0.0409
13299W        W33579  12.317   9.642  12.355  0.0376 -0.2475  0.0629
13300W        W33580  17.183   0.431  14.149  0.2111 -0.0447  0.1685
13301W        W33581  14.492  13.177   1.173  0.1698  0.1408  0.3398
13302W        W33582  15.946  17.434   0.695 -0.0781 -0.0248 -0.0134
13303W        W33583   8.899  16.054   0.563  0.0751 -0.0567 -0.2202
13304W        W33584   5.988  11.283  15.605 -0.1115  0.0983  0.0901
13305W        W33585  15.381   8.388  12.315 -0.1200  0.0751  0.0465
13306W        W33586   7.005   8.377   2.255  0.0871 -0.3519  0.1217
13307W        W33587  16.277   1.632  16.654 -0.0470  0.2923  0.1448
13308W        W33588   9.191   4.328  14.578  0.1488 -0.1598  0.2481
13309W        W33589   4.143   8.093  15.678 -0.0780 -0.2047 -0.0699
13310W        W33590  15.870  12.606   1.390  0.1331  0.0258 -0.0523
13311W        W33591  17.459   8.399   2.385  0.0222 -0.2123  0.0445
13312W        W33592  12.593  10.323  16.866  0.2495 -0.3114  0.2819
13313W        W33593   7.409   5.139   0.592 -0.1834 -0.0500  0.2690
13314W        W33594   1.880   6.393   4.553  0.0833 -0.1159 -0.3037
13315W        W33595   2.057   5.015  15.316  0.0808 -0.3355 -0.2435
13316W        W33596   2.503  13.300   3.152  0.0201  0.1583 -0.0189
13317W        W33597   1.212   8.279   3.363 -0.1227  0.1002  0.0162
13318W        W33598  12.846  15.379  14.861 -0.0645  0.1272  0.0546
13319W        W33599   2.242   9.562   3.952 -0.3604 -0.1809  0.1254
13320W        W33600   3.834  13.393  13.255  0.1157  0.2683  0.0375
13321W        W33601   4.231  13.546  12.150 -0.2876 -0.0752 -0.4194
13322W        W33602  14.059   0.977   4.941  0.2210 -0.1131 -0.1194
13323W        W33603   2.670  10.691   3.071 -0.2061  0.0060 -0.3536
13324W        W33604  10.260  11.382   0.477 -0.2362  0.0331 -0.2635
13325W        W33605   5.269   6.262   2.085  0.1180  0.1040 -0.2032
13326W        W33606  14.828  17.377  13.372  0.1840 -0.1278  0.1342
13327W        W33607  10.399   9.029   0.984  0.0258 -0.0170 -0.2383
13328W        W33608  12.459   9.980   2.846  0.0658  0.0886  0.2099
13329W        W33609  14.757  16.833  12.228 -0.2541 -0.1104 -0.0014
13330W        W33610   1.297   7.503   1.632 -0.0148 -0.0825  0.0134
13331W        W33611  11.541  10.954  14.665  0.2213 -0.1901 -0.3662
13332W        W33612   8.472   0.493  14.813  0.1667 -0.4249 -0.1674
13333W        W33613  12.716   3.374   4.609 -0.2393  0.1337 -0.0485
13334W        W33614   6.259   6.265   1.682 -0.0503 -0.1578  0.2894
13335W        W33615  15.175   3.353  14.441  0.0712  0.3373 -0.0953
13336W        W33616   5.682   8.326  12.391  0.2442  0.0088 -0.0641
13337W        W33617   8.009   2.570   4.252  0.1269  0.0494 -0.3200
13338W        W33618  14.853  11.070   1.429 -0.1059 -0.1269  0.0249
13339W        W33619  15.686  15.001  14.887 -0.0446 -0.0853 -0.0461
13340W        W33620   4.486   8.240   4.546 -0.2453 -0.1601 -0.0750
13341W        W33621   3.395  10.135  15.105  0.0368 -0.1957  0.1045
13342W        W33622   8.348   8.517  15.045 -0.1518  0.1099 -0.4043
13343W        W33623   6.953   4.575   2.777 -0.2890 -0.0549  0.3978
13344W        W33624   3.890   3.048   1.319 -0.3406  0.0646  0.0392
13345W        W33625  12.907   7.291  12.729 -0.1210 -0.2870  0.0465
13346W        W33626  10.566  12.461  12.475 -0.2398 -0.4125 -0.0556
13347W        W33627   1.728   7.921  15.200 -0.0949 -0.0023 -0.0228
13348W        W33628  10.872  14.786  15.368  0.1139  0.1209 -0.3091
13349W        W33629   0.197  12.659  12.360 -0.0500 -0.2369 -0.0347
13350W        W33630   1.723   8.846  15.657 -0.2208 -0.1993  0.1443
13351W        W33631  14.766  14.553   3.731  0.2921 -0.0892  0.2207
13352W        W33632  15.957   1.383  13.571  0.2908 -0.0071  0.1999
13353W        W33633   6.668  14.454  16.681  0.2431  0.1817  0.1721
13354W        W33634  13.317  16.694   1.302  0.2601 -0.2272  0.0277
13355W        W33635  15.065   6.842  16.509 -0.0234  0.0588 -0.2390
13356W        W33636  10.973   9.330   5.062 -0.0121 -0.1648  0.3078
13357W        W33637  17.060   6.563   3.368 -0.3454 -0.1575 -0.2636
13358W        W33638  10.927   4.288  12.460 -0.0484  0.3087  0.1109
13359W        W33639   0.200   9.265  15.751  0.0004 -0.0239 -0.1205
13360W        W33640  11.034  13.726   3.557  0.0106 -0.1728  0.0783
13361W        W33641   1.023  16.132  14.293  0.1480  0.2405 -0.1648
13362W        W33642   0.684   7.439  15.813  0.0175  0.1410  0.2408
13363W        W33643  11.312  10.916   3.554  0.1739 -0.0116  0.1780
13364W        W33644   6.291   2.603  13.596  0.2136 -0.0176  0.0104
13365W        W33645   9.667  14.273  11.927 -0.1866 -0.1405  0.1796
13366W        W33646   1.539  10.982  15.918 -0.3525 -0.1871  0.1009
13367W        W33647  17.129  11.754  11.377 -0.1482  0.0223  0.2599
13368W        W33648  15.518  10.729   2.167 -0.0008  0.0381 -0.0172
13369W        W33649   5.838  16.077  13.570  0.0762 -0.0126  0.1990
13370W        W33650  10.159   0.732  13.667 -0.0919  0.0487  0.0641
13371W        W33651   9.637  13.510   0.321  0.1430  0.2037 -0.2161
13372W        W33652   3.136   5.756   3.068 -0.0155  0.0041  0.0567
13373W        W33653  15.636   0.032   2.497 -0.1053 -0.0506 -0.2059
13374W        W33654  17.355   0.560  15.338  0.1093 -0.1726 -0.1937
13375W        W33655   0.185  16.943   4.543  0.2264  0.2147 -0.1061
13376W        W33656   8.714   4.565  14.391  0.0786 -0.1432 -0.2633
13377W        W33657   3.370  12.788  12.783 -0.2001 -0.2125  0.0679
13378W        W33658  13.773  15.405   0.684  0.1147 -0.1599 -0.1590
13379W        W33659  11.553   2.989  13.026  0.0778 -0.0823  0.1444
13380W        W33660  13.394  10.607  14.019  0.0945  0.2473 -0.0689
13381W        W33661   6.818   4.523   5.095 -0.1002  0.1865 -0.1103
13382W        W33662  16.133   7.586   5.106 -0.1891  0.1753  0.1421
13383W        W33663  13.362  12.185  12.356  0.1888 -0.1950 -0.1662
13384W        W33664  16.546   0.830  13.019  0.1133 -0.0588 -0.0975
13385W        W33665  17.686  15.341   4.430  0.0280  0.0682 -0.2917
13386W        W33666   7.849   7.215   2.214 -0.1544 -0.0590  0.1753
13387W        W33667  10.828   7.945  12.268  0.0399 -0.1606  0.1310
13388W        W33668   5.869   8.751  13.654 -0.0200  0.1560 -0.1084
13389W        W33669  10.353  12.022  12.647  0.1560 -0.1258  0.1236
13390W        W33670   8.732   7.684   0.676 -0.0536 -0.0136 -0.0437
13391W        W33671   0.119   2.859   3.454 -0.1555  0.1321 -0.0751
13392W        W33672  14.248   0.322   2.880  0.0341 -0.0369  0.0654
13393W        W33673  10.637  15.901   0.911  0.0354  0.2512 -0.0408
13394W        W33674  12.250   2.686  12.305 -0.0019 -0.0969 -0.4107
13395W        W33675  10.558  13.059   3.195 -0.2690  0.4733  0.1648
13396W        W33676  15.279   1.016  13.246  0.0411  0.0459  0.2215
13397W        W33677   2.901   8.378   1.673  0.1510 -0.0598  0.1818
13398W        W33678  17.609   2.665  16.764  0.4838  0.2119 -0.2463
13399W        W33679   1.071  16.358   2.498  0.1203  0.1829 -0.0093
13400W        W33680  16.603   5.701  16.459  0.3012 -0.0681 -0.3175
13401W        W33681   8.942   0.840  13.969 -0.2585 -0.1055 -0.0443
13402W        W33682   6.111  11.507  12.429 -0.0879  0.0860 -0.2459
13403W        W33683  15.694  11.318   3.357  0.0512 -0.1751 -0.3232
13404W        W33684   8.107  11.443  12.457 -0.1599 -0.0037 -0.0100
13405W        W33685   3.129  11.859   2.557 -0.0119 -0.2015 -0.0284
13406W        W33686   7.798  13.313   1.977 -0.0449 -0.1774  0.2185
13407W        W33687   1.021  12.905   3.423 -0.1135  0.0077 -0.1436
13408W        W33688  12.356   2.056  14.724  0.1741  0.2481 -0.0073
13409W        W33689   0.361   6.349  13.604  0.0730 -0.0926  0.1522
13410W        W33690   7.496   0.896   3.623 -0.0597 -0.0772 -0.4083
13411W        W33691  17.078  12.682   0.266 -0.0666 -0.0981  0.0928
13412W        W33692   3.670  10.602  13.385 -0.0114 -0.2152  0.2092
13413W        W33693  13.678   7.845   0.646 -0.1206  0.2077  0.0862
13414W        W33694   9.427   6.543   1.879  0.0787 -0.2747 -0.1561
13415W        W33695   9.506  16.299  12.688 -0.1368  0.2684 -0.0719
13416W        W33696   2.535  13.707  14.461 -0.0927  0.1469  0.0614
13417W        W33697  17.030  14.808  13.766  0.2782 -0.0161  0.0812
13418W        W33698   8.101   4.495  16.099  0.2016 -0.0342  0.0319
13419W        W33699  15.211   5.029   4.386 -0.0170 -0.2858 -0.1376
13420W        W33700  12.820   5.708   0.073 -0.0648 -0.2427 -0.0426
13421W        W33701  15.214  11.815   2.182  0.1829 -0.1163 -0.1308
13422W        W33702   6.268  10.098  16.004 -0.0488 -0.3541 -0.2936
13423W        W33703   7.905   6.209   1.192  0.1500 -0.1396 -0.1365
13424W        W33704   2.748   4.133  14.523  0.1811 -0.1300  0.3718
13425W        W33705  16.952  14.965   1.338 -0.2045 -0.0900  0.1695
13426W        W33706   5.931   1.875  12.066  0.0459  0.1791  0.0422
13427W        W33707   8.391  16.721  13.084  0.0818  0.0078  0.1735
13428W        W33708   7.315   8.164  15.029  0.3098 -0.0504 -0.1047
13429W        W33709  16.437  10.255  15.892  0.2819 -0.2239  0.2962
13430W        W33710  14.367   3.421  14.656  0.1179  0.2543  0.0428
13431W        W33711   1.436   3.571  14.029  0.0293 -0.0758 -0.1327
13432W        W33712  10.436   0.338   4.101  0.0093  0.4145 -0.3713
13433W        W33713   0.233  11.253   0.575  0.1493  0.2604 -0.2303
13434W        W33714  12.228   3.303   0.047 -0.0590  0.1039  0.2121
13435W        W33715   6.889   4.395   0.999  0.0504  0.0659  0.3285
13436W        W33716   1.018   5.872   0.719 -0.2114 -0.2890  0.1584
13437W        W33717  16.789   6.742   2.971  0.1402  0.1451  0.4827
13438W        W33718   9.915  12.567  14.486 -0.1064 -0.1447 -0.0704
13439W        W33719   8.141  15.212   3.014  0.2632  0.1825 -0.1602
13440W        W33720   2.475   5.434  16.594  0.0563 -0.2727 -0.1588
13441W        W33721  16.306  14.435  16.906  0.3843 -0.1135  0.0180
13442W        W33722   2.664   8.378   2.544 -0.1038  0.0813 -0.0143
13443W        W33723  10.271  10.133  12.611 -0.1578 -0.0543  0.0280
13444W        W33724  13.144  15.636   0.517  0.1643  0.1528 -0.2878
13445W        W33725  13.672   9.323   1.054 -0.4243  0.0654  0.1180
13446W        W33726   8.402   7.280   0.463 -0.2457 -0.2144  0.3133
13447W        W33727  12.761   7.720  13.553  0.1281  0.0491  0.2122
13448W        W33728  11.159  13.785  14.648  0.0538 -0.1265 -0.1687
13449W        W33729   6.553   0.070  13.755 -0.0693 -0.2306 -0.1394
13450W        W33730  16.509  10.320  16.392  0.1489  0.0245  0.3030
13451W        W33731  10.690  12.381  16.618  0.4208  0.0299  0.2572
13452W        W33732   3.468   4.294   2.697 -0.0339  0.2386  0.0843
13453W        W33733  15.087   4.209   2.349 -0.0733  0.0439  0.1390
13454W        W33734  12.555   9.873   0.037  0.1261  0.4001 -0.2520
13455W        W33735   1.607  13.662   3.620 -0.0733 -0.5005 -0.0707
13456W        W33736  13.867  11.763  12.991 -0.0199 -0.1414 -0.2227
13457W        W33737   2.607   2.378   4.634 -0.4596  0.1659 -0.0474
13458W        W33738  14.938  14.623  15.597 -0.1141 -0.1087  0.1791
13459W        W33739   6.773   2.704   1.634  0.1723 -0.0051  0.2729
13460W        W33740  17.551   9.410   2.127  0.0416  0.0266  0.0085
13461W        W33741   8.344  12.949  13.023  0.2135 -0.2502  0.1049
13462W        W33742   7.777   1.283   2.526  0.2315  0.1162 -0.6273
13463W        W33743   0.853   4.809  15.083 -0.2201 -0.2073  0.0653
13464W        W33744  12.083   6.499   3.427 -0.0091 -0.1337  0.0692
13465W        W33745  12.443  11.234   4.317  0.2547 -0.2017  0.2327
13466W        W33746   4.661   6.940   2.973  0.2281  0.0399 -0.2299
13467W        W33747  12.047  16.285  15.162 -0.1178 -0.0637  0.0332
13468W        W33748  15.322   1.862   4.204  0.1014  0.1382 -0.2967
13469W        W33749   4.073  16.295  11.909  0.0791  0.1093 -0.1464
13470W        W33750  16.967  10.762   3.107  0.0560 -0.0928 -0.0524
13471W        W33751   9.932  14.519  15.379  0.0528  0.1965 -0.1724
13472W        W33752  12.658  11.029  16.131  0.3137  0.0945  0.0045
13473W        W33753   8.619  15.017   0.305  0.3746  0.2882 -0.2307
13474W        W33754   2.077   7.712   4.228 -0.0906 -0.2326  0.2388
13475W        W33755   1.051   8.388   3.967 -0.0356  0.2163 -0.0512
13476W        W33756   9.019  11.039   2.914 -0.1545 -0.3145 -0.0870
13477W        W33757   9.072   2.257   3.641 -0.2998  0.0804  0.0107
13478W        W33758   8.737   4.456   4.648 -0.2507  0.0215 -0.0583
13479W        W33759  17.206   8.605   1.765  0.2342 -0.2628  0.0431
13480W        W33760  11.643   3.848  16.319 -0.2359 -0.2143  0.0893
13481W        W33761   7.748   2.878  15.294 -0.1089  0.1464 -0.1684
13482W        W33762  16.279  10.232   2.445  0.2789  0.2194  0.0120
13483W        W33763   6.709   2.244   0.662 -0.1148  0.2714  0.1884
13484W        W33764  13.048   9.016  15.424  0.0282 -0.1109  0.0951
13485W        W33765   1.756   9.959  13.156 -0.2400  0.2075 -0.0627
13486W        W33766   9.019   2.146  16.155 -0.3132  0.0255 -0.2111
13487W        W33767  15.342   8.328  15.458  0.2846  0.0849 -0.4317
13488W        W33768   2.037  14.206  16.614 -0.0369 -0.1248  0.4799
13489W        W33769  16.175  13.255   3.889 -0.0186  0.0485  0.2738
13490W        W33770   2.680   7.248   0.913  0.3206  0.2179  0.0624
13491W        W33771   6.284  14.059  12.835  0.1504  0.0741  0.0713
13492W        W33772   9.240   7.866   1.622 -0.0809  0.0443 -0.1135
13493W        W33773  14.300  10.847  17.015 -0.2574  0.1450 -0.1357
13494W        W33774  13.206  13.694   3.334  0.0712 -0.0313  0.2800
13495W        W33775  12.526  16.347   2.269  0.0761 -0.3101 -0.2467
13496W        W33776  10.575   0.983  14.833  0.1477  0.0268  0.2055
13497W        W33777  11.414  13.547   0.895 -0.1443 -0.6348  0.3866
13498W        W33778  14.161   3.130   0.176 -0.0861 -0.0894  0.0825
13499W        W33779   8.251   5.602  14.477  0.3845  0.1666 -0.1828
13500W        W33780  10.657  11.098  13.807  0.1545  0.0813 -0.2021
13501W        W33781  14.325   4.054  16.612  0.3822 -0.2559  0.0601
13502W        W33782   7.178  16.307  15.827  0.3087 -0.2081  0.1454
13503W        W33783   6.326   9.927  14.594 -0.1716 -0.4313  0.2209
13504W        W33784   5.595   1.584   3.809 -0.0606 -0.1625  0.0609
13505W        W33785   3.369  11.662   3.945 -0.0494  0.1906  0.0720
13506W        W33786   4.133  16.508   5.047  0.2720 -0.1395  0.1446
13507W        W33787  12.488   8.664   2.401 -0.0772 -0.1978  0.2267
13508W        W33788   3.596   6.221   3.099  0.3044 -0.2844 -0.1954
13509W        W33789   1.544  13.944   1.965  0.2228  0.2561  0.3657
13510W        W33790   5.982  15.843  13.981 -0.1744 -0.1163  0.0391
13511W        W33791   0.011  15.897  15.575 -0.1082 -0.0029  0.1587
13512W        W33792  15.063   2.024  13.765  0.0435 -0.1279 -0.0010
13513W        W33793   2.948   1.669   3.586 -0.0120  0.1920  0.0698
13514W        W33794   5.545  14.483   1.210 -0.0187 -0.2086 -0.2501
13515W        W33795  12.586   6.039  14.030 -0.1936  0.0886 -0.0225
13516W        W33796  15.105  13.791   1.591  0.0271 -0.0135  0.0325
13517W        W33797   6.958  11.589  14.574  0.4846  0.1705  0.1889
13518W        W33798  14.730   8.003   0.630  0.2267  0.0012  0.1659
13519W        W33799   8.422   5.811   2.084  0.1700  0.2511  0.2019
13520W        W33800   9.144   2.459   2.700  0.2093 -0.0317 -0.0860
13521W        W33801   3.482  16.760   1.592  0.1787  0.2872  0.1541
13522W        W33802  15.098  13.983  13.101  0.0427 -0.0989 -0.0520
13523W        W33803  13.523  10.835   1.494 -0.1060 -0.0608  0.0227
13524W        W33804   8.411   8.127  13.894  0.1342  0.0515  0.0115
13525W        W33805  13.271   4.803  15.310  0.0872  0.1517 -0.1847
13526W        W33806  11.933  10.192   2.756 -0.0518  0.0913 -0.3049
13527W        W33807   5.927  10.666  16.778 -0.1866 -0.1838 -0.3848
13528W        W33808   6.243  13.772   1.065  0.0298  0.1273  0.2909
13529W        W33809  17.705  11.199   2.586  0.0457  0.1655  0.0058
13530W        W33810   3.815  16.252   0.838  0.1059 -0.2661  0.0452
13531W        W33811   4.308   8.109   3.783 -0.2739 -0.0531 -0.1528
13532W        W33812   6.117  14.666  14.034 -0.0324 -0.1600  0.2234
13533W        W33813   9.342  14.273  12.303 -0.1125 -0.1199  0.2753
13534W        W33814  11.881   5.404   0.676 -0.0553 -0.4756 -0.2048
13535W        W33815  13.924   1.087   1.162 -0.0579 -0.0287 -0.1012
13536W        W33816   2.138   6.195  14.171  0.3451  0.1565 -0.0294
13537W        W33817   3.197   2.620   3.794  0.4004 -0.1116 -0.0767
13538W        W33818   0.336   8.844   0.945  0.1607  0.1504 -0.2448
13539W        W33819  11.751  16.050   2.718  0.1843 -0.2618  0.0329
13540W        W33820  16.617   3.389  15.912 -0.0568  0.1341 -0.0766
13541W        W33821   2.905  16.324   0.183  0.2879 -0.0386  0.5315
13542W        W33822   6.397  14.188   5.244 -0.0146 -0.6924  0.1145
13543W        W33823  10.981   8.853  15.274 -0.1528  0.0411  0.1158
13544W        W33824   1.890   1.401  16.788 -0.1457 -0.1860  0.3203
13545W        W33825   0.484  11.681  14.704  0.2378 -0.0177  0.1421
13546W        W33826   0.801   1.328  12.574 -0.2167 -0.1482 -0.0179
13547W        W33827   0.904   2.855   3.241 -0.1641 -0.2162 -0.2627
13548W        W33828   8.707   2.964   4.449 -0.0887 -0.3189 -0.0500
13549W        W33829   3.903   7.302  15.120 -0.0822  0.0082 -0.1465
13550W        W33830   9.375   2.709  15.231  0.1919 -0.1753 -0.2740
13551W        W33831   6.372  10.777  14.664  0.0241  0.0825 -0.1075
13552W        W33832  13.478  11.831   3.015 -0.0515  0.1464 -0.0846
13553W        W33833  16.871  14.179   2.753 -0.1126 -0.1317 -0.2194
13554W        W33834   9.221  15.294   0.885 -0.2435  0.2366 -0.1288
13555W        W33835   2.240   3.526   1.798 -0.1800 -0.1000 -0.2466
13556W        W33836  15.492  16.892  12.910  0.1530 -0.1873 -0.1800
13557W        W33837   9.193   7.021  16.284 -0.0501  0.0443  0.1674
13558W        W33838   2.323   1.897  16.075  0.1026 -0.0297  0.1741
13559W        W33839  11.434   4.051  14.156  0.1131 -0.1425 -0.5812
13560W        W33840   2.881   7.616  12.477 -0.0577 -0.2628 -0.1645
13561W        W33841   4.457   3.965  13.419 -0.0882 -0.2132 -0.0822
13562W        W33842   7.806  14.216  12.342  0.6267  0.3117  0.1173
13563W        W33843   0.791  11.461  12.154 -0.1359  0.3521  0.1489
13564W        W33844   6.469   4.395   2.600 -0.2029 -0.3135  0.2273
13565W        W33845  14.320   4.243  12.403 -0.1159 -0.0770 -0.1004
13566W        W33846   3.863   7.411   1.468 -0.1192 -0.0184  0.0631
13567W        W33847   9.815   0.910  15.981 -0.2572  0.0007 -0.1570
13568W        W33848  16.831   9.150   2.362 -0.1290 -0.4407 -0.1958
13569W        W33849   2.830  11.971  16.409  0.1996  0.0509 -0.1515
13570W        W33850  13.379  11.795   4.355 -0.2218 -0.0029  0.0451
13571W        W33851  10.663   6.295  15.326 -0.3528  0.2801  0.1201
13572W        W33852   6.173   9.646   3.707 -0.1275  0.1800  0.0446
13573W        W33853  13.609  14.028  15.318 -0.0223 -0.1860  0.1246
13574W        W33854  16.042  11.991  14.749 -0.0878  0.2815 -0.1823
13575W        W33855  11.409   7.672   3.914  0.2239  0.0025 -0.0231
13576W        W33856  12.806   2.105  15.760  0.1088 -0.1830 -0.0803
13577W        W33857  11.010  10.119  14.938  0.3086 -0.2523 -0.1676
13578W        W33858   0.134   5.584   3.051  0.0134  0.0029 -0.2585
13579W        W33859   1.582   2.577   1.923 -0.1533  0.2448  0.0901
13580W        W33860   3.808  12.735  14.802  0.0511 -0.1360 -0.1222
13581W        W33861   1.181   7.706  12.138 -0.1911  0.2333  0.1553
13582W        W33862  11.627   1.057  14.297 -0.1891 -0.1581  0.0578
13583W        W33863  16.991   6.215   4.424  0.5055 -0.2574 -0.1114
13584W        W33864   0.658  16.988   3.612  0.1895  0.0053 -0.2310
13585W        W33865   2.456   5.402  14.533  0.1679  0.0986  0.3321
13586W        W33866  17.194  16.456  15.792 -0.1689 -0.0212  0.0977
13587W        W33867   3.806  11.483   4.179 -0.2918  0.3252  0.1801
13588W        W33868  14.874   3.289   3.657  0.1830  0.1271  0.1755
13589W        W33869  14.651   4.090  14.387  0.2311  0.2611  0.1483
13590W        W33870  15.950   2.988  12.776  0.0066  0.3184  0.1481
13591W        W33871   5.868  13.171  16.274  0.1163 -0.2319  0.1709
13592W        W33872  12.273  15.704  11.186 -0.0128 -0.0462 -0.3127
13593W        W33873   5.615  14.750  12.240  0.0304 -0.3163  0.0042
13594W        W33874  14.405   6.608   1.849  0.3024 -0.0312 -0.1104
13595W        W33875   0.899   1.332  16.122 -0.1400 -0.1537  0.0643
13596W        W33876   8.231   9.218  15.681 -0.0652  0.1067 -0.0108
13597W        W33877  16.315   8.086   4.538 -0.0166  0.0766  0.1060
13598W        W33878   4.077   8.780  13.292 -0.0012  0.0520 -0.2092
13599W        W33879   3.174  12.686  16.218 -0.0515  0.1440  0.1150
13600W        W33880  15.371   6.652   4.442 -0.1842 -0.4285  0.0495
13601W        W33881   9.154   5.627  13.958  0.0863 -0.0503 -0.1702
13602W        W33882   1.195   3.709   1.967 -0.1360 -0.1941  0.2208
13603W        W33883   5.096   5.811   5.697  0.0859  0.0197  0.1700
13604W        W33884  16.580   0.216  16.039 -0.3022 -0.0367 -0.0970
13605W        W33885   0.243  16.944  12.570  0.2380 -0.2295  0.0276
13606W        W33886   2.899  11.522  16.241 -0.1523 -0.0586 -0.0068
13607W        W33887  12.324   0.451  13.309 -0.1910  0.3870  0.0137
13608W        W33888   0.079  16.403  12.439 -0.1101  0.5128  0.2113
13609W        W33889   5.475   4.426  16.114  0.0079 -0.1798 -0.1066
13610W        W33890  17.483  11.834  12.915  0.1086  0.2377 -0.0931
13611W        W33891  13.933  13.715  14.016 -0.0091 -0.1740  0.0998
13612W        W33892   9.297  14.618  16.205  0.2695 -0.1712  0.0541
13613W        W33893   3.405   0.708  15.744  0.0323  0.0069 -0.0972
13614W        W33894   0.571   3.947  15.543 -0.0366  0.0725  0.1090
13615W        W33895  14.111   1.567  16.870  0.1081 -0.0563  0.0201
13616W        W33896  10.992  12.576  15.244  0.2586 -0.2121  0.0350
13617W        W33897  15.783   6.304  15.238 -0.2962  0.1826 -0.4105
13618W        W33898   3.223   4.717  12.459 -0.1920  0.1181 -0.0525
13619W        W33899   5.641   3.075  16.202  0.5230  0.1512  0.0332
13620W        W33900  14.090  10.682  14.707 -0.2439  0.1980 -0.3084
13621W        W33901  10.991   4.698  15.901  0.0285  0.2268 -0.1695
13622W        W33902   5.305  17.321   3.245 -0.2228 -0.0536  0.0173
13623W        W33903  16.521   2.774  13.992 -0.1360  0.1969  0.2475
13624W        W33904   7.224   9.830  13.467  0.1309 -0.3134 -0.3032
13625W        W33905   3.410  13.374  15.184  0.3408  0.0199 -0.2134
13626W        W33906   6.535   8.664  15.205  0.0049 -0.0730  0.2749
13627W        W33907   5.195   0.672  16.375  0.1648  0.0191  0.0318
13628W        W33908   3.002   1.679   1.971 -0.2539  0.3011 -0.2087
13629W        W33909  11.839   8.303  12.151 -0.1762  0.0169 -0.2998
13630W        W33910  11.670  13.350  10.923 -0.2849 -0.0896 -0.0714
13631W        W33911  16.230  13.105  13.787 -0.0029 -0.2633 -0.3272
13632W        W33912   1.553   6.269  15.521 -0.0047  0.1348  0.4242
13633W        W33913   8.295   8.624   1.743 -0.1640 -0.2875  0.2185
13634W        W33914  16.463  13.481  16.355 -0.1710 -0.0693 -0.0677
13635W        W33915  10.395   5.634  12.191 -0.0635 -0.3276 -0.0368
13636W        W33916  14.411   4.524  16.329  0.3801 -0.0992  0.0745
13637W        W33917  13.891   6.347  12.181 -0.3040 -0.2533 -0.1755
13638W        W33918   1.871   7.471   2.491  0.0321  0.3935  0.4684
13639W        W33919   3.158  11.996  16.766 -0.0897  0.0375  0.1525
13640W        W33920   2.734   6.847  13.864 -0.1215  0.2439 -0.3174
13641W        W33921   5.134  14.899   2.695  0.0287 -0.1788 -0.1967
13642W        W33922  14.957   0.314  12.496  0.0481 -0.1996  0.2301
13643W        W33923   9.693  16.360  12.132 -0.0810 -0.0528  0.0008
13644W        W33924   6.578   6.256  13.092 -0.0174 -0.0237 -0.4054
13645W        W33925   8.663   7.859   3.433  0.0838  0.0215  0.0016
13646W        W33926   1.302   2.733   3.494 -0.0740  0.1707 -0.0415
13647W        W33927  17.493  15.264   3.090 -0.1642  0.0432 -0.0781
13648W        W33928  14.790   1.528   3.255 -0.0224 -0.3673  0.0039
13649W        W33929  13.319  11.889   3.689 -0.2866 -0.1505  0.1452
13650W        W33930   9.091   6.675  13.208  0.0424 -0.1162  0.1595
13651W        W33931   7.322  12.727   4.239 -0.0768  0.1922 -0.3226
13652W        W33932  11.396   9.400  12.174 -0.2274 -0.0425  0.2880
13653W        W33933  13.602  16.277  15.251  0.1171  0.3747  0.2317
13654W        W33934  11.681   3.222   1.375  0.0885  0.1676 -0.2553
13655W        W33935  17.673  17.056  15.389 -0.0927 -0.2187  0.4395
13656W        W33936   6.659   5.540   3.584  0.0345  0.1195  0.2442
13657W        W33937   8.241   9.550   2.438 -0.0335  0.1866  0.1612
13658W        W33938  15.439  17.425  16.027  0.0475  0.2631  0.0481
13659W        W33939  14.135  10.419   4.208  0.2477 -0.3732 -0.2632
13660W        W33940  15.747  10.724   4.461 -0.0827 -0.2202  0.0964
13661W        W33941   1.169  16.871  13.593 -0.0246  0.4218  0.0699
13662W        W33942   2.714  13.724   2.752 -0.3078 -0.0750 -0.0799
13663W        W33943  13.536   2.004   1.910  0.0804 -0.3890  0.0294
13664W        W33944   6.342   5.309   1.976  0.0637 -0.0600  0.0228
13665W        W33945   1.553   3.155   4.248  0.1875  0.0774 -0.0572
13666W        W33946   7.730  12.566  14.512  0.2452  0.0589  0.2645
13667W        W33947  13.104   0.872  16.446  0.2053 -0.3312 -0.1125
13668W        W33948  11.728  11.737   0.249  0.0878 -0.0379  0.1895
13669W        W33949   5.547  17.243  16.608  0.0184  0.0591  0.0121
13670W        W33950   2.821   7.563   1.816  0.0870  0.3146 -0.1484
13671W        W33951   6.304   5.244  16.348  0.2910  0.1982  0.3173
13672W        W33952  13.727  17.175  12.572 -0.1248  0.0088 -0.0611
13673W        W33953  15.187   1.318   2.387  0.4862 -0.2140  0.0284
13674W        W33954  17.726   3.766  15.443  0.3188  0.2004 -0.0662
13675W        W33955   2.695   0.230   0.249  0.0204  0.1138 -0.0835
13676W        W33956   3.023   6.166   4.367 -0.0807  0.2378  0.0936
13677W        W33957   1.063   2.707   2.070  0.0312  0.2343 -0.1323
13678W        W33958  16.648  15.734   1.996 -0.1154 -0.0234 -0.0072
13679W        W33959   1.898   3.397   3.931 -0.0457 -0.1900 -0.5141
13680W        W33960   5.961   9.635   4.139  0.1835  0.4578 -0.2722
13681W        W33961  14.829   6.205   2.460 -0.0461 -0.2682 -0.2703
13682W        W33962   2.789   2.269   4.074 -0.3190 -0.0050 -0.2592
13683W        W33963   3.734   9.186  14.333 -0.0758  0.0213 -0.1389
13684W        W33964   8.380  12.393   2.843  0.4304 -0.0711 -0.1118
13685W        W33965  17.145  10.954  15.333 -0.1129 -0.4040  0.2517
13686W        W33966   4.390   4.477   3.672 -0.1361 -0.0118  0.0881
13687W        W33967   8.649  14.411   4.935 -0.0371 -0.0118  0.1110
13688W        W33968  16.441   5.326   2.982 -0.0531 -0.1611 -0.0898
13689W        W33969   9.667   6.571  13.832 -0.3664 -0.0507  0.0805
13690W        W33970   8.812  13.108   3.233 -0.3129  0.0557 -0.3169
13691W        W33971   6.274   1.577   0.039  0.0424 -0.1109  0.2037
13692W        W33972  11.885   5.745   0.356 -0.3858 -0.1066  0.0866
13693W        W33973   5.690   2.471  15.415 -0.0623  0.0265  0.1259
13694W        W33974   1.101   7.482   0.616 -0.1988 -0.0805 -0.1994
13695W        W33975  14.276   3.772  12.735  0.2487  0.0292 -0.0704
13696W        W33976  15.184   8.457  12.863 -0.0984  0.3368  0.0336
13697W        W33977   6.204  12.680  16.417 -0.1385 -0.1227 -0.3351
13698W        W33978  12.889  11.611   3.957  0.1814  0.3634  0.2821
13699W        W33979   8.722  16.535   0.330 -0.0374  0.1307 -0.1890
13700W        W33980   8.150   6.196  14.736  0.0532  0.0307 -0.0768
13701W        W33981  15.148  17.361   2.268  0.0358  0.0262 -0.4784
13702W        W33982   8.496   5.254  12.688 -0.1097 -0.3322  0.0211
13703W        W33983  15.688  16.060   4.199 -0.2717  0.0404 -0.1159
13704W        W33984   1.342  14.879  12.320  0.3588 -0.0445  0.0100
13705W        W33985   5.660   5.044  16.695 -0.2916  0.1297  0.1417
13706W        W33986  17.430   0.539   3.722 -0.0889 -0.0191  0.0052
13707W        W33987  16.510  16.469  13.873 -0.1103 -0.0579  0.0030
13708W        W33988  16.440   9.212   4.924  0.0285 -0.2043 -0.0050
13709W        W33989   3.496  15.036   1.664  0.1718 -0.0596 -0.1196
13710W        W33990   1.308  15.955  15.113  0.1655 -0.0351  0.2261
13711W        W33991  14.599   3.831   0.731 -0.0315  0.1591  0.1414
13712W        W33992   4.275  11.649   4.164  0.0816 -0.0645 -0.2591
13713W        W33993   1.429  13.559   2.845  0.0686 -0.1699  0.0692
13714W        W33994   9.057   1.310   0.064  0.0268  0.2019  0.2455
13715W        W33995  10.179  17.508   3.494  0.0193 -0.1158  0.2519
13716W        W33996  10.840  12.076  12.664 -0.1694  0.1762 -0.1551
13717W        W33997   5.466   8.614  15.285 -0.0992 -0.4704 -0.2431
13718W        W33998   6.920   0.104   3.988  0.0391 -0.1514  0.2796
13719W        W33999   5.940  16.555  16.357  0.1589  0.0170 -0.1752
13720W        W34000   4.241   9.496   0.257 -0.0198 -0.1177 -0.2328
13721W        W34001   4.061  12.590   0.872 -0.3215 -0.0473 -0.2276
13722W        W34002   2.520  17.553  14.711 -0.2562 -0.0044 -0.0330
13723W        W34003  15.851   7.395   1.351 -0.0560 -0.3310 -0.2475
13724W        W34004  13.184  10.839   2.307 -0.0250 -0.2712 -0.2011
13725W        W34005   3.045   8.022   0.061  0.1422 -0.1372  0.2867
13726W        W34006  11.996   0.402   3.522 -0.4325  0.1135 -0.0526
13727W        W34007   7.391  17.193   4.450  0.2881  0.2186 -0.1484
13728W        W34008  17.722   9.733   2.525 -0.4227 -0.3653 -0.0383
13729W        W34009  15.450  15.753   3.304  0.2153 -0.1088 -0.2088
13730W        W34010   8.551   3.487   0.443  0.1523  0.0151  0.3766
13731W        W34011  13.410   9.826   2.503 -0.3076  0.0544  0.2001
13732W        W34012   6.969  17.077  15.128 -0.1217 -0.1777 -0.2359
13733W        W34013   0.596  10.459  12.350 -0.0767  0.0298 -0.3326
13734W        W34014  12.898  12.304  12.443  0.1835 -0.0018  0.0682
13735W        W34015   4.042   6.440   1.624  0.1940  0.0550 -0.1781
13736W        W34016  15.289  11.133   3.603  0.0281 -0.1554  0.1211
13737W        W34017   3.455  14.830  14.881 -0.0723  0.4067  0.0443
13738W        W34018  12.117   1.900   1.017  0.0218 -0.1341 -0.0263
13739W        W34019  11.790  10.045   4.894 -0.0849  0.1335  0.0983
13740W        W34020  15.171   4.357   0.637 -0.0573 -0.1648 -0.0557
13741W        W34021   1.818  15.807  16.172  0.1153  0.2615  0.0256
13742W        W34022  10.385   1.066  12.726 -0.0275  0.1698  0.2207
13743W        W34023  17.322  12.680  13.201  0.1608  0.2096  0.0670
13744W        W34024   3.704  11.246   4.677  0.4015  0.0198 -0.0685
13745W        W34025  15.484   6.157   1.782  0.1412  0.1851 -0.2370
13746W        W34026   8.919  13.510   2.818 -0.3524  0.1337  0.0511
13747W        W34027  14.942  14.611  13.390  0.1208 -0.3363 -0.2206
13748W        W34028   1.545   7.675   1.165  0.0457 -0.0324  0.0159
13749W        W34029   0.698   2.109  12.272 -0.1167 -0.2283  0.0845
13750W        W34030   5.296  15.704  15.327  0.2398 -0.0981 -0.0296
13751W        W34031   7.196   9.344   4.282  0.1778  0.1797  0.0733
13752W        W34032   8.937   9.617   1.968 -0.1035 -0.0399  0.0764
13753W        W34033  10.648   9.010   4.802 -0.2223 -0.3043 -0.0764
13754W        W34034   8.428   6.713   4.854 -0.2448 -0.0309  0.1132
13755W        W34035   4.075   7.223   2.482  0.0644  0.1524  0.1415
13756W        W34036   4.706  11.948  15.643  0.1074  0.0805  0.2629
13757W        W34037   5.528   7.922  14.785  0.1202 -0.0441 -0.0022
13758W        W34038   6.190  16.467   1.304 -0.2331 -0.0696  0.1583
13759W        W34039   8.845  10.227  12.634 -0.5211  0.2462  0.3355
13760W        W34040  13.283   9.262  16.097  0.0345  0.0931  0.2325
13761W        W34041   8.340   5.033  15.588  0.1176  0.1572 -0.2887
13762W        W34042  15.400  16.586  13.561 -0.1890 -0.0916  0.0460
13763W        W34043  10.238   5.118   0.036 -0.2703  0.0894  0.0897
13764W        W34044   8.084  11.405  15.702  0.0257  0.0998 -0.1949
13765W        W34045   7.545   7.351   1.782 -0.1618 -0.0069 -0.0768
13766W        W34046  13.132   6.950   1.809  0.2084 -0.1691 -0.0608
13767W        W34047  15.217  16.898   0.819  0.2345  0.0696  0.3351
13768W        W34048   4.143  10.917   1.379 -0.2402 -0.0982 -0.0873
13769W        W34049  12.208  16.666   1.998  0.1383  0.1472  0.1150
13770W        W34050  17.598  14.297   5.363 -0.1003 -0.1141 -0.1087
13771W        W34051   6.999   8.823   0.159  0.2756 -0.2631 -0.1791
13772W        W34052   5.592  16.897   3.268  0.2037  0.0171  0.0874
13773W        W34053  16.428   2.653   0.176  0.0294 -0.1162  0.0551
13774W        W34054  11.058  16.762   0.495  0.0821 -0.0041  0.1748
13775W        W34055   8.885  16.035  12.249  0.0552 -0.0388  0.1189
13776W        W34056  17.647  10.506   0.058 -0.0513  0.1707  0.1162
13777W        W34057   1.206  10.823   3.732 -0.0064 -0.2485 -0.3771
13778W        W34058   5.742  12.122  15.949 -0.1199  0.2147 -0.1108
13779W        W34059  16.919  10.876   4.986 -0.2562  0.3389  0.0275
13780W        W34060   1.934  14.885  12.494  0.1764  0.0905 -0.3782
13781W        W34061   9.923   3.336  15.219 -0.0263 -0.1728 -0.1169
13782W        W34062   1.147  15.079  14.746 -0.2279 -0.0886  0.2212
13783W        W34063  16.284  16.123  14.562  0.1873 -0.3884  0.0062
13784W        W34064  16.022   3.826  12.419 -0.0679  0.0879 -0.0620
13785W        W34065   5.472  15.450  12.955  0.4640 -0.1257  0.0743
13786W        W34066   6.425  13.388  15.714 -0.0304  0.2526  0.2685
13787W        W34067   3.061   4.756  11.936 -0.1553  0.0628 -0.2006
13788W        W34068  12.216   4.229   5.490 -0.0644  0.0087  0.0672
13789W        W34069   9.624   9.156  13.389 -0.1266  0.1079  0.3614
13790W        W34070  15.710  12.687  16.583  0.0755  0.2285 -0.0260
13791W        W34071   0.660  11.972  11.170 -0.1924 -0.2323  0.1178
13792W        W34072   9.079  14.471   1.853  0.0338  0.0735 -0.0601
13793W        W34073   3.662  13.692  12.308 -0.0459  0.3635 -0.2390
13794W        W34074   7.484   5.325  16.590  0.2120  0.1853 -0.0458
13795W        W34075   3.039   8.863  15.511 -0.1909  0.1820  0.1266
13796W        W34076  13.370  16.634   4.305 -0.2277 -0.0087 -0.0355
13797W        W34077  16.750   5.571   0.347 -0.0656 -0.3171  0.1163
13798W        W34078   4.762   2.229   2.368 -0.0070  0.1936  0.0282
13799W        W34079   0.430  17.625  13.451 -0.3607 -0.1742 -0.0587
13800W        W34080  10.317   6.621   2.773  0.1970 -0.0554 -0.0201
13801W        W34081  16.474  13.115  16.756  0.0332 -0.1205 -0.2574
13802W        W34082  13.308   5.962   3.144  0.0876  0.1893  0.1117
13803W        W34083   5.015   1.178   3.938 -0.1751 -0.0821 -0.1361
13804W        W34084   2.864  12.734   2.979  0.1047  0.2127 -0.0173
13805W        W34085   9.905  17.508   1.664  0.0075  0.0510 -0.0149
13806W        W34086  13.329   0.828   2.883  0.0017  0.1065 -0.0679
13807W        W34087   9.441  10.783  13.560  0.0817  0.1951  0.1163
13808W        W34088   3.244  12.325   4.716  0.0508  0.1136 -0.0740
13809W        W34089   4.627  13.141  16.423  0.0672 -0.0303  0.1452
13810W        W34090   5.736   9.599  17.003 -0.1243 -0.2638 -0.0192
13811W        W34091  12.816  14.692  12.765 -0.1398 -0.0384 -0.4813
13812W        W34092  15.322  16.298  16.576 -0.0964 -0.0770  0.0833
13813W        W34093  12.887   0.350   3.653  0.2526  0.3514  0.0078
13814W        W34094  11.188   5.424  12.791 -0.0815 -0.1685  0.3087
13815W        W34095   6.768  14.340   2.564  0.1038  0.0898  0.2761
13816W        W34096  10.255  10.624  14.848  0.1611  0.2012  0.0830
13817W        W34097   0.183   0.095   4.718  0.1004  0.0559 -0.3340
13818W        W34098   7.939   2.427  13.330  0.1851 -0.0273  0.0260
13819W        W34099   6.276   9.156   2.065  0.0063 -0.0575  0.1894
13820W        W34100  14.426   1.839  15.869  0.1200 -0.1125 -0.0504
13821W        W34101  14.735   5.185   4.232 -0.0289 -0.0948 -0.1257
13822W        W34102   6.733   3.519   4.709 -0.3021  0.0353 -0.0750
13823W        W34103  16.103  11.876  14.211 -0.2363 -0.1243  0.1015
13824W        W34104   3.341   9.926   4.466  0.2653 -0.2667  0.2375
13825W        W34105   4.967   0.454   0.680 -0.0973  0.0672 -0.1027
13826W        W34106  17.479   3.616   1.304 -0.1311  0.0520  0.0928
13827W        W34107   4.479  13.016   1.007  0.2246  0.1282  0.3237
13828W        W34108  10.182  14.341   0.571  0.3869  0.0619 -0.0870
13829W        W34109  14.594  15.722  15.126  0.0855 -0.5599  0.0632
13830W        W34110   2.363   2.508  12.995 -0.2381 -0.0111 -0.0917
13831W        W34111   3.501  10.108  14.109  0.0155  0.1704 -0.2018
13832W        W34112   1.748   1.078  12.797 -0.0001 -0.0207 -0.0476
13833W        W34113   0.849  12.136  13.708 -0.1336 -0.0400 -0.0799
13834W        W34114   3.958   0.951  15.379 -0.0759 -0.0172 -0.1625
13835W        W34115  11.906  14.450  14.556  0.0619 -0.0451 -0.2230
13836W        W34116  12.709   6.337   4.787  0.0041  0.1409 -0.3555
13837W        W34117  17.254  10.935   3.895 -0.1116  0.1834 -0.2419
13838W        W34118   9.711  12.552  12.941 -0.0766 -0.0559 -0.0473
13839W        W34119  10.580  11.399   2.312 -0.0023 -0.1690  0.2668
13840W        W34120  16.699   7.709   1.109 -0.1876 -0.1125 -0.0444
13841W        W34121  13.826   3.718   1.184  0.1191 -0.2231 -0.0313
13842W        W34122   3.381   9.106  13.157  0.2548 -0.2494  0.2691
13843W        W34123   8.531   7.250  13.838 -0.2086 -0.1082 -0.0145
13844W        W34124  17.359   3.280  13.399 -0.1989 -0.0594 -0.2006
13845W        W34125  10.512  13.869  14.170  0.2567 -0.1633 -0.1590
13846W        W34126  13.684  15.326   3.110 -0.0592 -0.3730  0.3272
13847W        W34127   5.651  13.652   3.973  0.0010 -0.1609  0.1050
13848W        W34128   0.683   9.215  15.738  0.2253 -0.1103 -0.1668
13849W        W34129   6.580   3.688   2.967  0.0640 -0.0715 -0.0685
13850W        W34130   0.003  13.187  12.529  0.1103  0.1778  0.0650
13851W        W34131   1.119   5.329  14.479  0.0189 -0.1955 -0.0295
13852W        W34132  16.472   2.533   1.989  0.2481  0.3252  0.1960
13853W        W34133  12.584   5.009   2.300  0.0669  0.0926  0.0265
13854W        W34134  11.265   6.165  13.538  0.1943 -0.1110  0.0739
13855W        W34135   2.353  10.372  16.234 -0.0229 -0.1885  0.0657
13856W        W34136   2.036   3.913   2.137 -0.2766  0.3213  0.0830
13857W        W34137  14.304   4.873  13.144  0.0524  0.0269  0.2799
13858W        W34138  17.517  10.061  12.426  0.0639  0.3076  0.2969
13859W        W34139   8.908   5.109  12.334  0.0592 -0.2191  0.1193
13860W        W34140   0.482   8.286   0.722 -0.2447  0.2842  0.0301
13861W        W34141   9.039  11.553   0.521 -0.0055  0.0618  0.0761
13862W        W34142  12.681   9.916  16.553 -0.0443  0.1239 -0.0108
13863W        W34143   2.751  17.185  12.516 -0.2616 -0.1319 -0.1289
13864W        W34144  12.319   2.254   2.198 -0.1656  0.1121 -0.1605
13865W        W34145   3.684   9.394   1.094  0.0621 -0.4610  0.0694
13866W        W34146   0.400   7.609  12.518 -0.0108  0.1961 -0.0782
13867W        W34147   7.313  11.793   1.589  0.3583 -0.2542 -0.0429
13868W        W34148  13.621   4.710  15.829 -0.0852  0.1603  0.0248
13869W        W34149   2.391  12.100  15.916  0.2250 -0.3379  0.0421
13870W        W34150  12.290   2.056  15.663 -0.3700  0.0224 -0.0819
13871W        W34151  10.665   1.064   4.034 -0.1317 -0.0433 -0.2035
13872W        W34152  17.565  14.815   4.167 -0.1771 -0.2061  0.2119
13873W        W34153  11.698   8.663  14.323 -0.1441  0.0668  0.1590
13874W        W34154  10.296  15.771   3.649  0.1125 -0.0930 -0.0203
13875W        W34155   6.256   0.107   1.386  0.0240 -0.1272 -0.1915
13876W        W34156   4.963   6.602   1.720 -0.1411  0.1274  0.2307
13877W        W34157   7.026   7.956   0.059 -0.2184  0.0010 -0.1654
13878W        W34158   4.535  15.528  12.905  0.0843 -0.2874 -0.1675
13879W        W34159   0.542  16.760   3.095 -0.1271 -0.0445 -0.1760
13880W        W34160   7.174  11.428   0.590  0.0318  0.1137  0.0684
13881W        W34161  17.318  16.604   1.275 -0.0134  0.0866  0.2342
13882W        W34162   0.138   8.077   2.158  0.1118  0.2509 -0.2146
13883W        W34163  11.084   6.953  15.689 -0.0261 -0.1693  0.1933
13884W        W34164  16.248  16.083  15.143  0.1262 -0.2340 -0.1584
13885W        W34165   6.667   5.735   0.523 -0.0111 -0.3793 -0.1956
13886W        W34166   7.989  14.376  16.978  0.0208  0.2121  0.2475
13887W        W34167   6.633   8.974   0.972 -0.2323 -0.0857  0.0147
13888W        W34168  17.061   1.169   0.690  0.1307 -0.0079  0.3749
13889W        W34169  16.292   4.697   4.964  0.0377  0.1289  0.2512
13890W        W34170  11.296   3.164  12.598  0.0699  0.1189  0.2047
13891W        W34171  15.381  13.222  15.776  0.2076  0.0144 -0.1379
13892W        W34172  14.673  13.190   3.935  0.1012 -0.0586 -0.3336
13893W        W34173  17.387   2.479  13.966 -0.2842  0.1754  0.3166
13894W        W34174  10.906  15.047   1.353  0.0051  0.1331  0.3322
13895W        W34175  16.218  13.766   2.111 -0.1255 -0.0308  0.1393
13896W        W34176   3.003  12.494   4.273  0.2237 -0.2189  0.4238
13897W        W34177  11.481   3.152   4.368 -0.0724 -0.3566  0.1357
13898W        W34178  15.013  12.352   2.585 -0.2397 -0.2167  0.0092
13899W        W34179   5.184   0.664  13.849  0.1306 -0.2786 -0.0790
13900W        W34180   4.187   1.412   3.062 -0.1900  0.0852 -0.0844
13901W        W34181  14.775   0.125  13.525  0.0487 -0.0875  0.1808
13902W        W34182   2.348   3.178   5.009  0.4858  0.1035 -0.2979
13903W        W34183  15.888   2.658   2.122 -0.1351  0.2228 -0.0216
13904W        W34184   6.685   4.868   0.236  0.0076  0.0679 -0.0759
13905W        W34185  16.733  17.654   2.040  0.2423 -0.0913 -0.1475
13906W        W34186   7.158   2.791  13.389  0.0272 -0.0382 -0.0177
13907W        W34187  17.383  10.382  13.421 -0.1415 -0.0309  0.1310
13908W        W34188  10.901  12.739   4.744 -0.1718  0.1095 -0.1460
13909W        W34189   9.547   7.702  12.118 -0.1085 -0.1269 -0.2638
13910W        W34190  15.669   4.993  14.470 -0.1220 -0.2535 -0.1681
13911W        W34191  13.060  17.617  15.947  0.0721  0.0805  0.1489
13912W        W34192   8.080   1.603   5.104 -0.1069 -0.2330  0.1381
13913W        W34193  16.714  16.566   3.135 -0.0637  0.3530  0.0762
13914W        W34194   7.140   7.701   0.762 -0.0029 -0.1260 -0.1514
13915W        W34195  16.229   2.808  14.816  0.2681 -0.1881 -0.1610
13916W        W34196  16.478  11.648  13.813 -0.0523  0.0540  0.1674
13917W        W34197   0.212  17.313   3.569 -0.0364  0.2846  0.2103
13918W        W34198  10.965   8.389   4.470  0.1886  0.1564 -0.0882
13919W        W34199  17.125   6.521  13.731  0.1545 -0.1008  0.2202
13920W        W34200  11.409   8.769   2.359  0.0104  0.0875 -0.1067
13921W        W34201  10.749   2.934  14.531  0.0957  0.2590  0.1101
13922W        W34202   2.464  12.357  14.255 -0.0122 -0.0479 -0.3610
13923W        W34203   7.577   8.890  13.323  0.4059  0.0934  0.1610
13924W        W34204   9.814  13.042  12.983  0.1728  0.3690  0.0498
13925W        W34205   4.756  11.390  13.821  0.5004 -0.4247  0.0460
13926W        W34206  12.290   0.964   1.016  0.1016 -0.1330 -0.3344
13927W        W34207  12.875   0.181   0.116  0.1191 -0.1480  0.0156
13928W        W34208   6.146   3.277   3.215 -0.0999  0.0011 -0.0314
13929W        W34209   0.172   2.245   0.800  0.0388 -0.0995  0.0195
13930W        W34210   8.412  13.401   3.216 -0.1253  0.1998 -0.0571
13931W        W34211   5.148   7.270  13.029  0.0969  0.1667  0.2514
13932W        W34212   5.107   1.551   3.011 -0.0419 -0.0375 -0.1818
13933W        W34213   3.222   8.858   2.720  0.1207 -0.0687 -0.1442
13934W        W34214  10.694  11.987   1.162 -0.3180 -0.0991  0.1026
13935W        W34215  16.607   0.978  13.483 -0.1425 -0.1039  0.2990
13936W        W34216  10.812  12.884  14.351  0.1156  0.2308  0.3019
13937W        W34217   3.893   5.379  16.233  0.3628 -0.0853  0.2650
13938W        W34218  15.635   9.700   0.366 -0.1928 -0.0500  0.2386
13939W        W34219   9.190   8.568   5.326 -0.0819 -0.2984  0.0756
13940W        W34220   5.577  10.638  12.855  0.1869 -0.0508  0.3663
13941W        W34221  11.657  13.911  11.963  0.1470 -0.0804  0.0403
13942W        W34222   4.168   1.708  13.797  0.2344 -0.1446  0.0445
13943W        W34223   1.063  13.787   2.056  0.0815 -0.0995  0.1654
13944W        W34224   0.689   9.838  14.567  0.2448  0.1478  0.2163
13945W        W34225  13.556   8.656   1.642 -0.1533  0.4075 -0.1110
13946W        W34226   0.303  12.003   2.678 -0.1943  0.2982 -0.0302
13947W        W34227  14.172  15.488  15.286  0.2745  0.1485 -0.2159
13948W        W34228  13.943  10.667   4.924  0.0116  0.2314  0.0806
13949W        W34229  10.865  10.265  14.315  0.1132 -0.1335  0.0202
13950W        W34230   6.322  12.190  13.702 -0.0439  0.1180 -0.0146
13951W        W34231   1.921   0.837   0.155 -0.0066  0.1704  0.0583
13952W        W34232   1.184  15.129  16.589  0.2059  0.3832  0.0035
13953W        W34233  13.418   9.193  15.148 -0.0561 -0.0022 -0.0936
13954W        W34234   0.965   2.355   2.484  0.1139 -0.2124 -0.1278
13955W        W34235   3.862   9.300  16.910 -0.2134 -0.2080 -0.4999
13956W        W34236  13.205   8.845   1.324  0.1252 -0.1236 -0.0007
13957W        W34237  11.219   3.692  14.869  0.1249  0.1192 -0.0723
13958W        W34238  16.023  16.053   0.928  0.2625 -0.0941  0.0663
13959W        W34239  17.219  14.080  14.299 -0.0782  0.1048 -0.0982
13960W        W34240   3.294  15.777   4.094  0.1047  0.0153 -0.1420
13961W        W34241   8.957  14.254  14.405 -0.2259  0.0563 -0.0194
13962W        W34242  14.349  16.702   2.999 -0.0039 -0.1486 -0.0557
13963W        W34243  12.020  12.314  14.036 -0.0344 -0.0359 -0.1392
13964W        W34244   4.914  14.971  14.329 -0.4461 -0.0652  0.3923
13965W        W34245  11.352   3.754  13.311  0.0487  0.0230 -0.1708
13966W        W34246   6.226   4.223   4.347  0.2711  0.0087 -0.1874
13967W        W34247  17.727   2.340   4.457  0.0980  0.0425 -0.2240
13968W        W34248   8.683   4.489  16.972 -0.1265 -0.1624 -0.0388
13969W        W34249   8.007  12.787  16.753 -0.1290  0.1984  0.1094
13970W        W34250   1.713   2.553   4.965 -0.0458  0.2065  0.2736
13971W        W34251   1.751  14.306  14.962  0.1577 -0.0096 -0.1366
13972W        W34252   6.669  10.688  15.022  0.0887  0.3039 -0.4112
13973W        W34253   5.353  12.556   0.949 -0.0794 -0.3508  0.2064
13974W        W34254   9.743  16.359   1.833 -0.2920 -0.2002  0.1429
13975W        W34255   9.551  14.749  14.879  0.1978 -0.0336 -0.1552
13976W        W34256   2.315  11.431  12.647 -0.0790 -0.2507  0.1154
13977W        W34257  17.401  14.368  13.896  0.0496  0.1061 -0.1417
13978W        W34258   3.401   1.124   1.442 -0.0106 -0.0557 -0.0079
13979W        W34259   4.094  12.209   4.955  0.2549  0.0075 -0.2101
13980W        W34260  17.739   2.254  16.362 -0.0758  0.0884  0.0328
13981W        W34261  16.481   4.940   0.211 -0.0795  0.1601  0.1118
13982W        W34262   3.158   5.160   3.691 -0.0379 -0.0915  0.1350
13983W        W34263  14.237  14.034   0.735 -0.0966 -0.0783 -0.1583
13984W        W34264  17.461  15.876  13.296  0.3198 -0.1189  0.1543
13985W        W34265  11.664  14.976  13.348  0.0059  0.1849  0.1498
13986W        W34266   2.503   1.596   2.242 -0.0078 -0.2453 -0.2733
13987W        W34267  13.571  12.767   4.308  0.2794  0.2611  0.0140
13988W        W34268   5.621  10.886   4.660  0.3307  0.0927  0.0861
13989W        W34269   4.197  14.307   1.236  0.0952 -0.2794  0.1832
13990W        W34270   3.670   9.041   2.763 -0.0570  0.2824 -0.0745
13991W        W34271   5.150  11.952   3.917  0.0941  0.1862  0.1896
13992W        W34272   4.351   6.746   3.903  0.0050  0.0668  0.3450
13993W        W34273   3.834   5.026   4.976 -0.0387 -0.0447 -0.1304
13994W        W34274   7.152  15.542   1.025  0.3101  0.0677  0.1413
13995W        W34275   0.417   8.483   3.108 -0.2832 -0.0970  0.1277
13996W        W34276   1.863  10.953   3.121 -0.1009  0.2016 -0.1578
13997W        W34277   9.110   0.971  13.235  0.0856 -0.0886  0.0084
13998W        W34278   2.588   5.859   2.423 -0.0784 -0.0268  0.0767
13999W        W34279   2.826  14.301   4.065 -0.0618 -0.0060 -0.1099
14000W        W34280   8.358   2.476   3.052  0.0965 -0.0055  0.0284
14001W        W34281   6.881  10.890   2.419 -0.2412 -0.0156 -0.0572
14002W        W34282  12.913   7.218  14.921  0.0115 -0.1433 -0.2738
14003W        W34283   3.923  11.530  12.431 -0.1068  0.1122  0.2422
14004W        W34284   4.553   0.185   1.435 -0.3900 -0.0087  0.3715
14005W        W34285  11.315   1.130  12.302 -0.0025  0.2454 -0.0555
14006W        W34286   3.158   8.184  13.161  0.1650 -0.0286 -0.0213
14007W        W34287  15.143   3.833  14.273  0.0048 -0.2792  0.4653
14008W        W34288  12.113   0.763  17.008 -0.3121  0.1831  0.1457
14009W        W34289  15.084   1.507   0.093 -0.2090 -0.1815 -0.2211
14010W        W34290   5.245   1.791  14.044 -0.1377  0.3213 -0.0030
14011W        W34291   7.581  11.722  13.543 -0.1303 -0.0137  0.0817
14012W        W34292   7.576   8.777  13.839 -0.0143 -0.1631 -0.1126
14013W        W34293  13.398   7.217  13.473  0.0743 -0.0328  0.0427
14014W        W34294   5.778   6.946  16.303 -0.0845 -0.2191  0.1601
14015W        W34295  15.099   6.214  13.339  0.1093 -0.1223  0.2901
14016W        W34296   8.589   2.692  13.958  0.1301  0.1691 -0.0390
14017W        W34297  12.661  13.607   2.421 -0.1991  0.2069 -0.1727
14018W        W34298   1.212  11.466   4.748 -0.3163  0.0155  0.2048
14019W        W34299   3.680  10.344  14.604 -0.4757 -0.1390 -0.1039
14020W        W34300   9.277  14.428   2.543  0.0698  0.4398 -0.1569
14021W        W34301   0.241  16.181  15.228 -0.3307  0.1642 -0.0535
14022W        W34302  10.194   2.924  12.212  0.1923 -0.0021  0.1134
14023W        W34303  12.472  11.002   3.753  0.0886 -0.0200 -0.1446
14024W        W34304  14.797   2.995  15.404 -0.1666  0.1145  0.0762
14025W        W34305   3.793  10.190   2.410  0.1365 -0.2807  0.2172
14026W        W34306  11.082  16.043   2.328 -0.1556 -0.2738 -0.1864
14027W        W34307  12.285   7.365  13.578  0.1008  0.3134 -0.1134
14028W        W34308  11.877   8.814   1.075 -0.0815  0.1497 -0.3718
14029W        W34309  11.069  13.382  15.587 -0.1442 -0.2073 -0.2636
14030W        W34310   3.999   6.360  13.734 -0.0081 -0.0292  0.1045
14031W        W34311   9.842  12.297  16.220  0.0730  0.1538 -0.0699
14032W        W34312  16.051  13.561  16.924 -0.1812  0.0635 -0.1817
14033W        W34313   5.755  13.554  13.857  0.2233 -0.0190  0.3403
14034W        W34314   2.236  12.919  16.317  0.2567 -0.0630 -0.1379
14035W        W34315   8.396  14.329   3.159 -0.2206  0.0038  0.3353
14036W        W34316   3.674  14.729  13.721 -0.0875 -0.0227 -0.2475
14037W        W34317   9.495  14.909  12.658 -0.0328  0.0212 -0.1375
14038W        W34318  13.055   3.359  14.957 -0.1781  0.1888  0.1181
14039W        W34319  12.312   3.325  13.425  0.0112  0.2362  0.0441
14040W        W34320   4.836   7.136  14.795  0.2959  0.2476 -0.2395
14041W        W34321   2.915  11.133  12.313  0.1145 -0.2433 -0.3244
14042W        W34322  13.045   2.843   4.671 -0.0208 -0.0925 -0.0099
14043W        W34323  16.045   8.037  14.648  0.3118  0.0324 -0.0594
14044W        W34324  14.837  16.007  16.467 -0.1051 -0.1622  0.0099
14045W        W34325   5.645   0.473  16.496  0.2130 -0.3698 -0.2385
14046W        W34326   7.583  13.657   2.273 -0.1376 -0.3340  0.1184
14047W        W34327  17.263   6.245  16.182  0.0037 -0.2699  0.2147
14048W        W34328   4.123   6.789   2.139 -0.0446  0.1172  0.3056
14049W        W34329   7.487   9.916   3.497 -0.0207 -0.0390 -0.0230
14050W        W34330  15.582  12.531  12.877 -0.2398 -0.2357 -0.0603
14051W        W34331   2.752   5.315   3.502 -0.0178 -0.2869 -0.3178
14052W        W34332  12.213  16.715  15.885 -0.1816  0.0674  0.2039
14053W        W34333   2.086   6.415  14.620  0.2692 -0.1221  0.1195
14054W        W34334   7.681  15.065  13.057 -0.1813  0.0688  0.3160
14055W        W34335  17.481   5.878   0.264 -0.0063 -0.0235  0.1762
14056W        W34336   0.461   1.944   4.369  0.1339 -0.0185  0.0652
14057W        W34337   9.910  11.200  13.225  0.0885 -0.0242  0.0858
14058W        W34338   6.785   9.176  12.327  0.1126 -0.1465  0.0267
14059W        W34339   7.579  10.516   1.068 -0.0220  0.1759  0.2843
14060W        W34340  16.922  12.915  12.503 -0.0669  0.0878 -0.1051
14061W        W34341   3.783  14.036   2.484  0.0558  0.0319 -0.0090
14062W        W34342   8.552   7.235   4.039 -0.3497  0.0175 -0.1074
14063W        W34343  10.971   9.923  15.403 -0.2497  0.0474  0.3739
14064W        W34344   7.530  16.463   1.990 -0.0334 -0.1688  0.0848
14065W        W34345   2.430  12.190   0.796 -0.1456 -0.2782 -0.0309
14066W        W34346   4.518   2.406   0.898 -0.2530 -0.1102 -0.0839
14067W        W34347  15.196  10.406   2.421 -0.1950  0.1275 -0.0250
14068W        W34348   4.460   9.073  15.134  0.0045 -0.0738 -0.1445
14069W        W34349  13.650  14.830   2.992 -0.1013 -0.0957 -0.0749
14070W        W34350   0.569  16.124  13.293  0.0905 -0.2950  0.1278
14071W        W34351   2.410  12.496   2.580 -0.0359 -0.1532  0.0320
14072W        W34352   9.945   1.146  16.518  0.0146 -0.0342  0.2743
14073W        W34353  11.889   9.680  13.127  0.2614 -0.0328 -0.1556
14074W        W34354  16.967   4.685  14.045  0.0199  0.4321  0.0298
14075W        W34355  10.672   2.493   1.874  0.2116  0.1121 -0.3385
14076W        W34356   9.041   3.208   3.330  0.0522 -0.1025 -0.0071
14077W        W34357  11.194   7.382  13.493 -0.0599  0.0771  0.0392
14078W        W34358  17.370  13.236   5.038 -0.1594 -0.0104  0.2984
14079W        W34359   5.435   2.561  14.369 -0.3089 -0.0329  0.2476
14080W        W34360  15.633   6.335   2.678  0.2065 -0.0621 -0.0927
14081W        W34361  16.764   8.275   2.047 -0.1043  0.0028  0.0403
14082W        W34362   8.442  17.597  16.008 -0.2247 -0.0539 -0.0208
14083W        W34363  13.636   0.798   0.907 -0.0058  0.2048 -0.0802
14084W        W34364   0.543   6.930  15.504 -0.0472 -0.0071  0.1018
14085W        W34365   1.717  11.052   1.900 -0.0180  0.3130 -0.1812
14086W        W34366  12.850  15.187  12.682  0.4526 -0.1663 -0.1996
14087W        W34367   3.848  17.299   3.675 -0.1709 -0.1752  0.2149
14088W        W34368  12.685  12.342  16.714 -0.1124 -0.0710  0.0151
14089W        W34369  15.439  14.151  15.395  0.1513 -0.1235 -0.1431
14090W        W34370   7.715   1.958   5.020 -0.2993 -0.0831 -0.1125
14091W        W34371   1.861  11.532   1.078 -0.0164  0.1884 -0.0917
14092W        W34372   5.193  12.260  16.522  0.0337 -0.0424  0.0930
14093W        W34373   0.038  11.048   3.867 -0.2216  0.2271 -0.0663
14094W        W34374   3.722   7.327   4.361 -0.1021 -0.0225  0.3241
14095W        W34375  16.630   6.214  14.511  0.1589  0.0472 -0.1557
14096W        W34376  10.696   0.724  13.543  0.1336 -0.1328 -0.2779
14097W        W34377  13.547  16.149  16.814  0.3948 -0.2692  0.0838
14098W        W34378   6.939  13.099   2.862 -0.1540  0.2803 -0.1607
14099W        W34379  13.460   3.838  14.408 -0.0090  0.0545  0.2818
14100W        W34380  10.992  16.452  16.387  0.2499  0.0217 -0.0692
14101W        W34381   2.969  10.015   1.086 -0.0945 -0.1041 -0.0360
14102W        W34382   1.205  11.493  16.230  0.0149 -0.4791 -0.0528
14103W        W34383   7.471   2.200   1.680 -0.0132  0.1781  0.1808
14104W        W34384  13.760  10.001   4.243  0.0096  0.0016  0.0354
14105W        W34385   5.527   8.785  12.380 -0.2210  0.0069  0.1168
14106W        W34386  16.045   3.887  13.150  0.1559  0.5200  0.3862
14107W        W34387  16.503   7.077  14.067 -0.0300  0.0148 -0.1369
14108W        W34388   7.363   4.606   1.034 -0.1295  0.0215  0.3385
14109W        W34389   9.291  11.241   1.531  0.2490  0.1344  0.3637
14110W        W34390  13.493   9.453  13.873  0.3702 -0.3023 -0.0794
14111W        W34391   0.928   8.580   3.050  0.1028 -0.1004  0.1815
14112W        W34392  16.836   5.698   2.130 -0.1801 -0.1077  0.1997
14113W        W34393  11.793  17.035   2.100  0.1871 -0.1003 -0.0240
14114W        W34394   7.446  13.752   2.877  0.1069  0.1271  0.1276
14115W        W34395  15.787   4.282   4.597 -0.1199  0.3737 -0.2295
14116W        W34396  10.571  14.006  15.111  0.1731  0.0306 -0.1446
14117W        W34397  13.241  14.600  16.629  0.3352 -0.0195 -0.0248
14118W        W34398   2.686   7.356   2.756  0.1676  0.1934  0.1146
14119W        W34399   1.699   4.177  14.979  0.0550  0.1909  0.0268
14120W        W34400  14.110  11.701  14.540 -0.4144  0.1854 -0.2251
14121W        W34401   5.227   6.661  14.987 -0.1504 -0.1321 -0.1524
14122W        W34402  14.929   7.504   0.302 -0.2087  0.0172 -0.1233
14123W        W34403   8.430  11.110   4.930  0.0824  0.1420  0.0003
14124W        W34404   9.135   3.137  12.308  0.0161  0.0844 -0.0421
14125W        W34405   8.481  10.072  13.829  0.2391  0.1714 -0.2142
14126W        W34406  16.455  13.762  13.158 -0.4719 -0.0189 -0.0861
14127W        W34407   9.456   9.307   2.677 -0.1450 -0.2461  0.2781
14128W        W34408   4.202   9.272   4.913 -0.0357  0.0596 -0.2410
14129W        W34409   9.961   1.931   0.083 -0.1027 -0.0607  0.0952
14130W        W34410   4.217   6.850   2.747 -0.0070 -0.1787 -0.3272
14131W        W34411   6.704   3.267   4.214  0.2217 -0.0064 -0.0534
14132W        W34412   8.774   5.077   1.105 -0.3204 -0.1594  0.1815
14133W        W34413  10.246  10.722  13.947 -0.2683 -0.1555 -0.2068
14134W        W34414   7.794  16.222  16.501  0.0217  0.0287  0.2286
14135W        W34415  10.820  16.153   3.100 -0.1420  0.0671  0.0763
14136W        W34416  13.000  15.560   0.990 -0.0593 -0.0248  0.3631
14137W        W34417   1.832   9.749   5.969  0.0664  0.0450  0.2171
14138W        W34418  10.949   8.929  16.691 -0.1827 -0.0749  0.2098
14139W        W34419  12.776   3.907   1.763  0.2331 -0.1952  0.3655
14140W        W34420  13.890   5.295   4.962 -0.1716 -0.2774 -0.4407
14141W        W34421   5.662  15.695  12.599 -0.2651  0.0745 -0.0582
14142W        W34422   2.812  12.434  13.845  0.5007  0.1124 -0.3334
14143W        W34423   8.627  14.123  11.894 -0.2356  0.0538 -0.1368
14144W        W34424  13.918  11.201   4.837 -0.2120  0.0104  0.2245
14145W        W34425  15.618   7.060   5.547 -0.0064 -0.0065 -0.0094
14146W        W34426   6.836   3.647  13.155 -0.1148 -0.2394  0.0034
14147W        W34427  11.956   6.110  16.036  0.0098 -0.0387 -0.2776
14148W        W34428   5.595  13.792   5.326 -0.0857  0.3754  0.0213
14149W        W34429   4.049   8.113   0.132  0.3232  0.2590  0.2707
14150W        W34430  11.750  16.778  14.452 -0.0371  0.0223  0.0257
14151W        W34431  13.591   8.345  12.301 -0.0884 -0.2459  0.3020
14152W        W34432  10.655  14.613   3.708 -0.2801  0.1537 -0.0049
14153W        W34433  14.298   7.541  13.868 -0.2031  0.0331  0.0199
14154W        W34434  15.447  16.898   2.635  0.1332  0.0464  0.1346
14155W        W34435  16.348   6.522   1.623  0.0654 -0.1066 -0.0793
14156W        W34436  10.916  15.555   0.500  0.0081 -0.0834  0.3215
14157W        W34437   2.205   0.752  16.718 -0.2616  0.4565 -0.0121
14158W        W34438   6.827  13.994  12.349 -0.3679  0.4767  0.1912
14159W        W34439   1.367   3.264   1.518  0.2988 -0.1372 -0.2979
14160W        W34440  16.203   3.430   0.888 -0.0417  0.2033  0.1920
14161W        W34441   1.327  11.863  13.952 -0.0140 -0.1179  0.3155
14162W        W34442   6.315   4.144  16.911 -0.4559 -0.0153 -0.5682
14163W        W34443   4.130   3.989   2.499  0.0338 -0.1312  0.1554
14164W        W34444  14.942   8.050  12.909  0.0129 -0.2550  0.1774
14165W        W34445  15.241  16.268   2.048  0.1628  0.0897  0.1520
14166W        W34446   9.633  10.073  16.126 -0.0872  0.0079 -0.0159
14167W        W34447   6.525  14.919   3.588 -0.0841  0.0745  0.0309
14168W        W34448  16.835  13.042   0.521 -0.1556 -0.1470 -0.1277
14169W        W34449  16.578   4.684  12.281  0.1066  0.0974  0.2914
14170W        W34450   0.515   7.333  16.409  0.2343  0.0414  0.0641
14171W        W34451   8.925  14.860  13.654  0.0162  0.0453  0.2717
14172W        W34452   9.808  13.227   4.568 -0.1419 -0.0337 -0.1274
14173W        W34453  13.357   0.521   1.607  0.1541  0.2106 -0.1366
14174W        W34454   3.306   1.268  15.933  0.1086  0.1011 -0.0177
14175W        W34455  16.766   8.727   5.065 -0.0883 -0.1260  0.1031
14176W        W34456  13.314   0.398  12.951 -0.0478 -0.1784  0.0644
14177W        W34457   1.079   6.149   5.164 -0.0921 -0.1698 -0.2895
14178W        W34458  16.059  14.037  14.529  0.3114  0.0089  0.0237
14179W        W34459  12.614   8.803   4.817  0.2537 -0.2135  0.1435
14180W        W34460   2.964   7.083   1.892 -0.0212  0.2297 -0.1528
14181W        W34461   9.965   7.974  16.750  0.0929 -0.0744 -0.2679
14182W        W34462  15.152  13.467   3.647  0.2640  0.1780  0.1464
14183W        W34463   2.794  14.319   4.861 -0.0679 -0.0116 -0.0633
14184W        W34464  11.161   8.464   1.224  0.1427  0.1186  0.1419
14185W        W34465  16.068   4.586   3.959  0.0750 -0.0128 -0.3432
14186W        W34466  11.611  15.646   3.630 -0.0013  0.1421  0.2825
14187W        W34467   9.220  17.393   0.699 -0.0019  0.2527  0.0572
14188W        W34468   1.948   4.131  15.777  0.3186  0.2085  0.0061
14189W        W34469   9.250   7.073   1.976 -0.2676 -0.0027  0.0956
14190W        W34470   8.300   8.925   2.201 -0.1157  0.0413 -0.0758
14191W        W34471  14.563  11.370  15.925  0.2328  0.1429 -0.3023
14192W        W34472  13.742  10.453   2.247 -0.1937 -0.0265  0.0979
14193W        W34473   2.907   5.551   3.940  0.0146 -0.1747 -0.1410
14194W        W34474   4.805   2.782   0.159 -0.1252  0.0881  0.1465
14195W        W34475  14.277  14.099  15.140  0.3000 -0.2177  0.1720
14196W        W34476  13.591   3.125  16.140  0.1686 -0.1554 -0.1622
14197W        W34477   2.671  11.596   4.839  0.4383  0.3476  0.5432
14198W        W34478  11.350  13.015   1.258 -0.2460 -0.1022  0.0485
14199W        W34479  15.965  14.538  14.812 -0.1930  0.0313  0.3046
14200W        W34480   5.429  13.903   4.899  0.2968 -0.3306  0.0015
14201W        W34481  12.880   5.525   3.311 -0.0380  0.1567  0.4350
14202W        W34482  17.095   3.327   2.945  0.1461  0.0569 -0.2810
14203W        W34483   1.097   7.688  15.825  0.1990 -0.0193  0.1174
14204W        W34484   7.122   3.481   0.223  0.0345 -0.0596 -0.0852
14205W        W34485  14.303   0.198  14.528 -0.1317 -0.2532  0.2519
14206W        W34486  10.884   2.676  14.057  0.6200  0.1433 -0.1617
14207W        W34487  12.554   0.546   2.311 -0.2952 -0.0803 -0.1583
14208W        W34488   3.714  13.153  12.833  0.0200  0.2478 -0.0720
14209W        W34489   7.138  14.582  16.470 -0.0652  0.1796 -0.2655
14210W        W34490   0.396   4.586  13.531 -0.1060 -0.0281  0.2203
14211W        W34491  14.859   8.593   0.557 -0.1905  0.1218  0.3831
14212W        W34492   6.225   5.313   0.762 -0.0709 -0.3146 -0.1837
14213W        W34493   0.278  14.733   1.177  0.1830 -0.0333 -0.0764
14214W        W34494   0.483  14.236  13.403 -0.0963  0.1619 -0.0231
14215W        W34495   4.679   2.591   1.396 -0.2194 -0.6043  0.1586
14216W        W34496  12.588  16.150  14.166 -0.0586 -0.0031  0.1116
14217W        W34497  17.095   3.070  15.672  0.2336 -0.0193 -0.1819
14218W        W34498  17.524   4.442   0.338  0.0289 -0.0956  0.2593
14219W        W34499   6.190  12.037  12.358  0.2750  0.1148  0.0824
14220W        W34500  12.161  11.265  12.937 -0.1190  0.0405  0.0056
14221W        W34501  17.495   7.798   4.193 -0.2529  0.1453  0.1460
14222W        W34502  15.607   3.979  13.337 -0.1636  0.0041  0.1079
14223W        W34503  17.618   3.975   0.213 -0.0506 -0.0465  0.1953
14224W        W34504   6.074  11.695   3.288  0.1596  0.4046 -0.1459
14225W        W34505   4.283  16.265  13.215  0.2303 -0.1621 -0.1400
14226W        W34506   1.643   4.774  12.515 -0.0915  0.4091  0.0548
14227W        W34507  16.140  13.288   5.284  0.0868  0.0182 -0.0621
14228W        W34508   5.019   7.822  13.054 -0.2859  0.4677  0.0187
14229W        W34509  10.401  11.713   1.547 -0.3183  0.0549  0.0468
14230W        W34510   3.977  10.312   0.007 -0.0756 -0.0312 -0.3007
14231W        W34511   0.508  10.858   1.413 -0.0601  0.0561 -0.1337
14232W        W34512  10.537   0.642   0.244 -0.0116 -0.0013  0.0645
14233W        W34513   8.411  14.838   3.390  0.2836 -0.2653 -0.0373
14234W        W34514   1.413   7.568   3.439 -0.0802 -0.1703  0.0642
14235W        W34515  16.339  10.701  15.687 -0.2677 -0.1025  0.1983
14236W        W34516  14.168  10.283  12.239  0.0849  0.1400 -0.0749
14237W        W34517   5.171  14.209  13.890 -0.0827  0.1933 -0.1799
14238W        W34518   7.399   9.004   0.497  0.4431 -0.1469  0.1750
14239W        W34519  17.582  16.564  13.052 -0.1369 -0.1502 -0.0817
14240W        W34520  15.186   9.899  14.707 -0.2073  0.0843 -0.1371
14241W        W34521  11.628  10.661   4.859  0.1683  0.0153 -0.2758
14242W        W34522   9.206  13.431   0.709 -0.0280 -0.3374  0.0419
14243W        W34523   8.807   5.478   0.803  0.4408  0.1657  0.0756
14244W        W34524   4.674   2.606   4.254 -0.2120  0.0478 -0.0374
14245W        W34525  12.765  15.629   2.871 -0.1787  0.2699  0.0869
14246W        W34526  12.323   5.221  16.097 -0.1996  0.2134 -0.1346
14247W        W34527   7.553  16.326  11.681 -0.3333 -0.3140 -0.1011
14248W        W34528   6.923   2.136   4.988  0.1911 -0.1661  0.1831
14249W        W34529   0.370   1.717  13.262  0.0904 -0.0779 -0.0778
14250W        W34530   3.966  14.713  14.699  0.1025 -0.2274  0.0806
14251W        W34531   7.794  12.304  15.736  0.0476 -0.0784 -0.1595
14252W        W34532  13.109   7.060   3.915 -0.0533  0.0717 -0.0075
14253W        W34533   5.931   3.840  14.924  0.0194 -0.2930 -0.1848
14254W        W34534  10.557   9.113  12.578 -0.0526 -0.0948  0.0143
14255W        W34535  13.003  16.981   0.588  0.0295 -0.1643 -0.1905
14256W        W34536   3.707   6.013  14.258  0.2065  0.2358 -0.1457
14257W        W34537  14.906  13.136  15.544  0.1344  0.0884 -0.0839
14258W        W34538  16.337  11.657  15.972  0.0819 -0.2118 -0.1826
14259W        W34539   9.670  14.366   0.631  0.5060  0.0418  0.1203
14260W        W34540   8.869  14.662   0.648 -0.1623  0.1037  0.1694
14261W        W34541  15.053   6.865  14.774  0.0516 -0.1450 -0.0417
14262W        W34542   5.963  10.479   0.235 -0.0688 -0.1416 -0.0399
14263W        W34543   2.315   7.510  16.275  0.0643 -0.1874  0.4848
14264W        W34544  13.759  13.768  14.845  0.0297  0.1097  0.0983
14265W        W34545  12.220   3.240  16.540  0.2366  0.0632  0.0983
14266W        W34546   0.667  14.590  16.848  0.0901  0.3088  0.0578
14267W        W34547  14.433  10.591  11.968  0.1073 -0.0291  0.0564
14268W        W34548   3.336  16.475   1.144 -0.0453 -0.2025 -0.2346
14269W        W34549   5.827  14.844   0.983  0.1949  0.0108  0.0039
14270W        W34550   6.863  15.444   1.440  0.1680 -0.1589  0.0162
14271W        W34551   6.706  16.273   0.586 -0.0436  0.2023 -0.0009
14272W        W34552  17.138   5.682   4.924 -0.0368  0.0856 -0.0048
14273W        W34553  16.736  13.666  14.080 -0.0571  0.4462 -0.2857
14274W        W34554  13.813   3.409  12.060  0.0470  0.0583  0.0028
14275W        W34555   4.872  13.062  14.414 -0.3561 -0.1226 -0.2353
14276W        W34556   4.545   3.115  12.950  0.1830 -0.1870  0.0537
14277W        W34557  10.010  14.872  14.071  0.0080  0.4706  0.2571
14278W        W34558   4.880  17.220  15.108  0.0353 -0.1829  0.1235
14279W        W34559  14.030   8.589  16.208 -0.0964 -0.1731 -0.0041
14280W        W34560   2.818   7.474  14.542  0.1023  0.2175 -0.0012
14281W        W34561   3.252   4.723  15.548 -0.0651 -0.0677 -0.2043
14282W        W34562  16.695   9.490   1.135 -0.3329 -0.3005 -0.0077
14283W        W34563  17.087   6.152  15.173 -0.0489 -0.2414  0.0229
14284W        W34564   7.149   3.831  12.634 -0.1288 -0.0135 -0.3360
14285W        W34565   9.554   2.389  13.927 -0.1426 -0.1888 -0.2705
14286W        W34566   9.849  15.834  13.912 -0.0427  0.2417 -0.0470
14287W        W34567  11.084   9.337   0.087 -0.0478  0.3665 -0.1319
14288W        W34568   3.398  11.031  13.131  0.0656 -0.0306 -0.0536
14289W        W34569  11.880   9.360   2.953 -0.1769  0.0216 -0.0979
14290W        W34570   4.646  10.068   1.590 -0.0312  0.0581 -0.0776
14291W        W34571  17.543   6.428  14.799  0.1954 -0.0882  0.4389
14292W        W34572   3.697   6.755   2.414  0.0174 -0.1590 -0.2147
14293W        W34573  10.012   9.132  16.900 -0.0164  0.0923  0.0093
14294W        W34574   7.576   2.747  13.637 -0.3511 -0.0234 -0.2959
14295W        W34575  14.911   4.689   2.169  0.3108  0.0585  0.1494
14296W        W34576  14.475   3.670   2.746 -0.3388 -0.0070  0.2665
14297W        W34577  17.643  15.337  16.766 -0.1523 -0.2257 -0.1261
14298W        W34578   7.736   8.308  16.314 -0.0123  0.1678  0.0202
14299W        W34579   0.157  13.238   1.977  0.0284 -0.0357 -0.1413
14300W        W34580  13.912   1.479   1.562 -0.0245 -0.1262  0.0463
14301W        W34581  11.726   3.403  12.690  0.2537  0.2242 -0.2757
14302W        W34582   5.534  12.351   3.424 -0.1329  0.1930  0.1539
14303W        W34583  14.796  11.226   3.500 -0.1230 -0.1296 -0.1421
14304W        W34584  10.900   8.494   1.697 -0.1564  0.0873 -0.4194
14305W        W34585  11.707   1.807   4.409  0.0900  0.4492  0.0569
14306W        W34586  15.920  13.074   4.811  0.0843 -0.3016 -0.0044
14307W        W34587   9.529  17.365  14.992  0.2974 -0.0024 -0.0924
14308W        W34588   3.873   0.006  14.359 -0.0479 -0.2252 -0.1371
14309W        W34589   0.121   7.126  13.162 -0.0288  0.3373  0.1229
14310W        W34590   6.654   0.742  16.597  0.0547  0.2364  0.0254
14311W        W34591   7.922   3.561  14.054 -0.2145  0.0954  0.1211
14312W        W34592  12.592   6.235  12.689 -0.0251 -0.1399  0.0399
14313W        W34593  12.565   4.219  14.678 -0.2146 -0.1058  0.1148
14314W        W34594  16.155  10.891  12.303 -0.0786  0.1005 -0.2906
14315W        W34595  13.960  11.259   3.870 -0.1538  0.3288  0.1606
14316W        W34596  16.120  14.981  14.710  0.0463 -0.3704  0.5451
14317W        W34597  12.452  13.836  16.484 -0.2020  0.0859 -0.2106
14318W        W34598  16.202  13.009  12.038  0.2474  0.1447 -0.1940
14319W        W34599   5.915   9.144  12.909 -0.0353 -0.2200 -0.2263
14320W        W34600   0.621   6.838  13.730 -0.1357  0.0627  0.0361
14321W        W34601  15.051   4.452   1.358 -0.0376  0.3784 -0.2684
14322W        W34602   1.017  15.799  14.755 -0.0441 -0.4126 -0.1057
14323W        W34603  13.294   5.483  14.562 -0.0313  0.2746 -0.0840
14324W        W34604  14.850  10.563   2.796 -0.1247 -0.1171  0.0091
14325W        W34605   3.541   3.432   1.554  0.0162 -0.0748 -0.3981
14326W        W34606  17.420  13.249  15.729  0.2938  0.4078  0.1190
14327W        W34607   5.430   9.192  12.738  0.0118  0.4313  0.2561
14328W        W34608   0.631  14.841  14.614 -0.1935 -0.2790 -0.2585
14329W        W34609  12.193  10.840   4.178 -0.3931 -0.1882  0.0207
14330W        W34610   8.903  15.726   4.251  0.5078  0.0642  0.0870
14331W        W34611  15.052   7.065  15.702 -0.3276  0.2087 -0.0866
14332W        W34612   8.149  14.719  15.814 -0.4100 -0.0219 -0.2143
14333W        W34613   5.928  11.459   3.769 -0.0144 -0.4636  0.1139
14334W        W34614  13.681   7.281   0.539 -0.4536  0.1726  0.1144
14335W        W34615  15.373   9.051   1.684  0.1296  0.0529  0.2272
14336W        W34616   1.457   6.324   0.131  0.1161  0.0358 -0.1470
14337W        W34617   0.714  13.232   3.819  0.0331 -0.1049 -0.1354
14338W        W34618   7.827  16.357   1.528 -0.1089 -0.0380 -0.1326
14339W        W34619   0.493   5.154   0.223  0.0993  0.2174 -0.1388
14340W        W34620   9.599   7.533   3.660 -0.0915 -0.0053  0.0225
14341W        W34621  11.307   7.088  12.504  0.0623 -0.1524  0.1721
14342W        W34622   4.932  11.303   1.614 -0.2211  0.1634 -0.0831
14343W        W34623   1.891   2.613  13.202  0.4004 -0.0545  0.2404
14344W        W34624   7.443   7.853  12.551  0.0417  0.2793  0.0541
14345W        W34625   2.962  13.255  15.890 -0.0044 -0.1377 -0.0329
14346W        W34626  10.112  16.579   4.075 -0.1372  0.1756  0.0919
14347W        W34627  10.257  17.132   2.826  0.2471  0.0421  0.1723
14348W        W34628   5.139   6.454  16.266  0.5036 -0.0631  0.2373
14349W        W34629  12.593  17.548   2.892 -0.0804  0.0675  0.1706
14350W        W34630  13.487  10.926   4.006  0.0553 -0.2620  0.1094
14351W        W34631   4.205  15.867  14.632  0.1425  0.0082 -0.0217
14352W        W34632   1.903   2.178   0.511 -0.1852 -0.3110  0.0299
14353W        W34633  13.995   3.514  13.518 -0.0846 -0.1241  0.1208
14354W        W34634   0.260   7.139  14.713 -0.0498  0.1271  0.0930
14355W        W34635  10.193  10.977   3.296 -0.0951  0.0431 -0.2420
14356W        W34636   4.795   3.826  15.796 -0.1635 -0.1319 -0.0439
14357W        W34637   1.587   7.478  13.639  0.1797  0.0294 -0.0069
14358W        W34638   6.511  10.563   5.109  0.1239 -0.0301  0.1120
14359W        W34639   6.788   2.620   3.887  0.3054 -0.0516 -0.4002
14360W        W34640  12.776   5.455   0.973  0.1825 -0.1259  0.0600
14361W        W34641   7.724  13.080  14.217 -0.0205 -0.3868 -0.2088
14362W        W34642   6.488   6.644   0.330 -0.2470  0.2914 -0.3409
14363W        W34643   7.496  12.429  16.662  0.4047  0.1109 -0.0760
14364W        W34644  16.736  14.317   0.200 -0.0315  0.0158 -0.4541
14365W        W34645  13.218   8.759  12.673  0.1769 -0.0004  0.0033
14366W        W34646  12.240   8.589   2.882 -0.0920  0.1369 -0.0052
14367W        W34647   2.454   8.355   4.698 -0.3194 -0.2640  0.0008
14368W        W34648   8.209  11.461  13.496  0.0536 -0.2392 -0.1983
14369W        W34649   6.307   6.213   2.899  0.1170  0.1473 -0.0180
14370W        W34650  10.580  16.745  15.099 -0.0273  0.0244 -0.0701
14371W        W34651   0.831   4.889  12.764  0.0477  0.0078 -0.3282
14372W        W34652  14.680  11.332   1.003 -0.2955 -0.0381 -0.0142
14373W        W34653   3.874  17.232  15.034  0.1963  0.2835 -0.1974
14374W        W34654  11.696  17.292  16.454 -0.1606  0.0238 -0.1012
14375W        W34655   3.525   7.056   1.332 -0.0337 -0.0140  0.0320
14376W        W34656  13.242  12.550  12.718  0.3948  0.2290  0.0316
14377W        W34657  14.258   6.996  12.468  0.1689  0.4630  0.1505
14378W        W34658   0.309  11.542   4.987  0.0016 -0.0641  0.0540
14379W        W34659   3.237  14.720   1.969 -0.1028 -0.3143  0.0937
14380W        W34660   5.189  11.641   0.111  0.0220  0.0457  0.4774
14381W        W34661  17.463  11.423   3.768 -0.0633 -0.2749 -0.2006
14382W        W34662   3.968  17.557   2.603  0.2102  0.2727  0.0104
14383W        W34663  12.801   5.026   4.031 -0.0048 -0.1102  0.1466
14384W        W34664   5.139  12.933  15.882 -0.1216 -0.1854  0.1114
14385W        W34665   1.302  15.189  13.155 -0.1232 -0.5086 -0.2106
14386W        W34666  15.020   6.677   0.625  0.2286  0.1738  0.1090
14387W        W34667   3.329  12.904  16.631  0.0216 -0.2471  0.1138
14388W        W34668  14.305   7.484  15.322  0.2045 -0.0235  0.0637
14389W        W34669  15.978   7.411  13.506  0.1397  0.3334 -0.1689
14390W        W34670  11.059   3.982  14.509 -0.0042 -0.2184  0.1544
14391W        W34671  15.182   7.707  16.160  0.1743 -0.0230 -0.1556
14392W        W34672   0.500  14.537   3.242  0.0798 -0.0689  0.0422
14393W        W34673   3.695   3.682   0.538 -0.2068 -0.1766 -0.2168
14394W        W34674   6.550  16.616   1.623 -0.1210  0.3406  0.0404
14395W        W34675   0.421   9.163   1.296  0.0808 -0.0561 -0.0962
14396W        W34676   7.783  15.779  16.753  0.1436  0.1667  0.0455
14397W        W34677   0.524  12.647   4.552  0.0291  0.2178  0.0452
14398W        W34678  12.590  11.768  16.846  0.3722  0.0954 -0.1020
14399W        W34679  17.305   5.070  16.643 -0.0791 -0.0165 -0.1742
14400W        W34680  16.327  17.683  12.298  0.1589 -0.0837  0.3181
14401W        W34681   1.186   9.030  14.630 -0.0468 -0.2838 -0.0333
14402W        W34682   0.888  11.668  15.010 -0.1066  0.2222  0.0302
14403W        W34683  13.421  10.355   0.406 -0.1961  0.4000  0.0742
14404W        W34684   1.447   9.085   3.393  0.3016  0.0091  0.1487
14405W        W34685   9.663   8.047   4.714 -0.3261  0.1795 -0.1856
14406W        W34686  13.546   3.808  12.211 -0.1445 -0.2130  0.3302
14407W        W34687  16.974  17.003   1.342 -0.1014  0.0631  0.3661
14408W        W34688  10.477   4.233   0.339  0.0667  0.3964  0.0655
14409W        W34689  14.201   7.565   4.970  0.0887 -0.0863 -0.0906
14410W        W34690   9.147  11.079  16.228  0.3684  0.1050  0.0696
14411W        W34691  12.562   0.168  16.707 -0.2506 -0.0580  0.2004
14412W        W34692   9.377  11.762  14.563  0.0753  0.0354 -0.1251
14413W        W34693   4.081   6.504  16.265 -0.1688 -0.6681 -0.0342
14414W        W34694  11.577  13.055  14.337 -0.0159 -0.1228 -0.1108
14415W        W34695  10.705  17.021   1.466 -0.1768 -0.0157  0.1598
14416W        W34696  14.779  11.510  15.434 -0.0084 -0.1928 -0.1067
14417W        W34697  14.011   7.995  15.945  0.1586  0.1354 -0.0739
14418W        W34698   9.841   5.572   2.470 -0.1834  0.1791 -0.1080
14419W        W34699   3.690  13.179   0.402  0.0964  0.4158 -0.1203
14420W        W34700  11.705   5.928  12.372 -0.2262 -0.1670  0.0237
14421W        W34701   5.194  14.170   4.459  0.1559  0.4251  0.0062
14422W        W34702  13.929   0.675  16.586  0.1094  0.0183 -0.2355
14423W        W34703  15.447  11.920  14.278 -0.0666  0.0515  0.2641
14424W        W34704   1.243   8.971  12.824 -0.2004 -0.0544 -0.0436
14425W        W34705  11.874  13.964   4.058  0.0982  0.0855  0.0790
14426W        W34706  10.019   1.234   1.619  0.2877  0.3330 -0.0922
14427W        W34707   6.638   5.317   2.410 -0.1599 -0.0392 -0.1266
14428W        W34708   0.016   9.993   1.488 -0.1658 -0.1136  0.1985
14429W        W34709   7.483  12.093  15.249 -0.1780 -0.0663  0.3161
14430W        W34710  15.464  12.730   0.897  0.2760 -0.2375  0.3549
14431W        W34711  10.070   0.700  16.319 -0.0447 -0.0203 -0.0779
14432W        W34712   9.536   8.868  16.651 -0.0436 -0.3886  0.0453
14433W        W34713  15.485   9.649  15.701 -0.0869 -0.0961  0.1418
14434W        W34714  12.531   9.052  16.368  0.0222  0.0765 -0.0148
14435W        W34715  17.422   3.328   0.416  0.2121 -0.2017 -0.1867
14436W        W34716   5.859   7.309  15.975  0.0281  0.0719 -0.2398
14437W        W34717  14.980  13.065  12.834 -0.2162  0.1693 -0.0171
14438W        W34718  13.652  11.709   2.161 -0.2538 -0.1838 -0.0646
14439W        W34719   2.056   2.574   4.612  0.2415 -0.0842 -0.2484
14440W        W34720   8.559   0.400   0.281 -0.0355  0.1457 -0.0399
14441W        W34721   0.688  17.033  16.824  0.4678 -0.0180  0.1601
14442W        W34722   5.056   5.129   3.342  0.2468 -0.3407 -0.1928
14443W        W34723   9.579   0.197  14.331 -0.2157 -0.1625 -0.0889
14444W        W34724   4.298   4.332  14.282  0.1912  0.2838 -0.2172
14445W        W34725   5.089  17.676   4.232  0.4276  0.0617  0.1686
14446W        W34726  13.987   4.537   1.317  0.0892  0.0123 -0.2460
14447W        W34727   0.858   5.533   0.230 -0.2906  0.4815  0.1885
14448W        W34728   1.845   0.483   1.541  0.0919 -0.0346 -0.0483
14449W        W34729   8.314   4.706   4.685 -0.0224 -0.2579  0.3121
14450W        W34730   0.675   0.233  14.488  0.0677  0.0282 -0.1267
14451W        W34731   6.574  16.983   3.977  0.0555 -0.3622  0.2209
14452W        W34732  10.295   7.176   0.812  0.1563  0.1757 -0.1581
14453W        W34733   6.157   1.422  13.007 -0.2275  0.1247  0.3716
14454W        W34734  14.114   2.833  16.811  0.1328 -0.1825 -0.2768
14455W        W34735  10.545  13.144   4.818 -0.2392  0.1597 -0.1046
14456W        W34736   3.027  15.911  12.074  0.0684 -0.0888 -0.0146
14457W        W34737   4.598  15.259  14.124  0.0701  0.0623  0.2333
14458W        W34738   4.391  15.508   2.597 -0.0937  0.0126  0.0153
14459W        W34739   5.543   3.660   2.157 -0.1742 -0.1069  0.0401
14460W        W34740   7.459  12.829   1.315 -0.0122  0.0481 -0.0849
14461W        W34741   0.054   3.140   2.145  0.1703  0.0607 -0.0435
14462W        W34742  11.587   5.864   1.363  0.1986 -0.0232 -0.1088
14463W        W34743  16.109   7.947   2.765  0.3135  0.4423  0.1583
14464W        W34744  14.782  11.874  13.534 -0.0973  0.0231 -0.4824
14465W        W34745   1.929   1.591  12.912 -0.3370  0.2542  0.0218
14466W        W34746   5.621   5.699  16.784 -0.0621 -0.0791 -0.0968
14467W        W34747   4.474   7.029  14.258 -0.0903  0.1915 -0.3171
14468W        W34748  14.699   5.016  16.541 -0.3005 -0.2660 -0.1371
14469W        W34749  14.061  16.255   3.984 -0.2792  0.0032 -0.1642
14470W        W34750   8.052  16.719  15.591  0.1803 -0.1150  0.1555
14471W        W34751   6.653   1.030   3.137  0.1642  0.1749  0.0997
14472W        W34752   0.332  12.759  16.181 -0.1423 -0.0655  0.1881
14473W        W34753   3.648  14.075  16.085  0.0098 -0.2430  0.1498
14474W        W34754   3.762  11.522   0.364 -0.0343 -0.0426 -0.2311
14475W        W34755  14.066   9.141  14.001  0.0071 -0.0955  0.0139
14476W        W34756  16.866   5.162   0.529 -0.1450  0.3486 -0.3559
14477W        W34757   0.711  10.712  12.777 -0.2984 -0.0905  0.0256
14478W        W34758  11.653  16.557  12.048  0.0012  0.2466 -0.0660
14479W        W34759   8.566  12.278  16.375  0.1251  0.0106 -0.3829
14480W        W34760  11.063   7.534  15.548 -0.3154 -0.2083  0.0568
14481W        W34761   1.749  17.371   2.705  0.0697  0.0081  0.2070
14482W        W34762   5.405  14.932   1.763  0.1201 -0.2740  0.2565
14483W        W34763  11.142  15.886  12.719 -0.1058 -0.1865 -0.0213
14484W        W34764  12.399   9.053  15.068 -0.3178  0.0729  0.0454
14485W        W34765   9.961  12.637   0.613  0.1797  0.1884  0.4442
14486W        W34766   3.915  12.253  15.614  0.0798  0.0439  0.1833
14487W        W34767   6.391  11.022  15.420 -0.1190  0.0135 -0.1918
14488W        W34768  16.778   2.110   0.813 -0.0662 -0.0566  0.1394
14489W        W34769  17.010   6.432  16.904  0.0881 -0.2538 -0.0428
14490W        W34770  11.482  13.902   1.729  0.1048 -0.0817  0.0002
14491W        W34771  15.813   3.013  13.360  0.0993  0.3789  0.2315
14492W        W34772   8.398  12.576   1.427  0.0006 -0.0058 -0.1997
14493W        W34773   0.947  17.219   3.018  0.1134 -0.3597 -0.2458
14494W        W34774  12.760   3.184   1.755 -0.0075  0.3388 -0.3697
14495W        W34775   7.340  15.123   1.284 -0.0485 -0.0060  0.1169
14496W        W34776  10.011   4.629   0.942 -0.0443  0.2542 -0.2321
14497W        W34777   6.534  10.554   1.661  0.0293 -0.0660 -0.0161
14498W        W34778   5.630   0.902  12.759  0.1205  0.1011 -0.0545
14499W        W34779  10.470   3.957  16.918  0.0856 -0.0810  0.3650
14500W        W34780   6.912   6.712   0.587 -0.3438 -0.3229  0.1588
14501W        W34781  15.822  16.853  13.708 -0.0183 -0.2385  0.0601
14502W        W34782  14.465   3.037  15.003 -0.1501 -0.1391 -0.0230
14503W        W34783  12.114  17.391   0.424  0.2700  0.0824 -0.0721
14504W        W34784   2.822  10.171  16.192  0.0341 -0.1139  0.0323
14505W        W34785  13.139   0.754  13.924  0.0727 -0.0272 -0.0548
14506W        W34786  13.908  16.471  16.687 -0.0697 -0.1007 -0.0175
14507W        W34787  16.415  14.011   4.886  0.1627 -0.2003 -0.1142
14508W        W34788   6.695  17.108  16.709 -0.0072 -0.1202 -0.1771
14509W        W34789   3.976  13.012   2.696  0.2088 -0.1534 -0.4215
14510W        W34790   8.882   5.602   1.283  0.0946  0.1482  0.1133
14511W        W34791   0.606   8.535  14.269  0.0037  0.2442  0.0573
14512W        W34792   5.963  14.570   0.544  0.2854 -0.1045  0.0101
14513W        W34793  10.965   2.740  15.386 -0.1677  0.3062  0.0269
14514W        W34794  14.961   8.217   1.972 -0.1626 -0.1553  0.1079
14515W        W34795  13.363  15.230   0.892 -0.0230  0.1940 -0.3306
14516W        W34796   8.065   5.842   3.159  0.4778  0.0885 -0.0326
14517W        W34797   4.214  12.435  14.866  0.1852  0.2175  0.0706
14518W        W34798   8.439   2.095  12.423 -0.0083  0.1519  0.2365
14519W        W34799   4.907  14.496   4.260  0.1707  0.1241 -0.0435
14520W        W34800  11.028  16.975  15.046  0.3566 -0.0171  0.0468
14521W        W34801   6.021  14.293   4.288 -0.2073 -0.0152  0.1098
14522W        W34802   6.458   6.592  14.361 -0.0017  0.2276 -0.2015
14523W        W34803  13.879   2.691   0.952 -0.0083  0.2458 -0.3084
14524W        W34804   8.397  12.350   4.391  0.0088 -0.2557  0.1071
14525W        W34805   4.985   5.690   3.145  0.0762 -0.1610 -0.1508
14526W        W34806   8.660   7.844  16.688 -0.1947 -0.0981 -0.1321
14527W        W34807   4.691  12.147   0.990  0.1614 -0.1835 -0.3485
14528W        W34808  16.876  12.376  14.836 -0.0488 -0.1520 -0.0388
14529W        W34809  16.762   2.557  16.295  0.2014  0.0532  0.1964
14530W        W34810  12.318   5.352   3.374 -0.0264  0.0504  0.2190
14531W        W34811   1.600  11.466  15.805 -0.1908  0.1154 -0.1553
14532W        W34812   2.043   0.554   3.511  0.1026  0.1406  0.0850
14533W        W34813  11.314   1.776   3.724 -0.0598  0.0041  0.1086
14534W        W34814   3.808   9.935   4.483  0.2528 -0.0912  0.0375
14535W        W34815  10.595  12.195   1.571 -0.2727  0.0645  0.0808
14536W        W34816   5.757  15.986  15.550  0.3923  0.2253 -0.1046
14537W        W34817   2.366  16.788   3.812 -0.1297 -0.2713 -0.1258
14538W        W34818   4.302  16.777  13.211  0.1642 -0.3875 -0.1461
14539W        W34819  14.113  12.727  13.800  0.0900  0.5548  0.1121
14540W        W34820  16.283   6.451  15.144  0.1554  0.1457 -0.1288
14541W        W34821  12.272  14.559  14.197 -0.1662 -0.1138  0.1291
14542W        W34822   8.177   7.512   3.214 -0.0732  0.0436 -0.1432
14543W        W34823   1.976  14.315   4.422  0.0162  0.1602 -0.0098
14544W        W34824   9.522   3.268   1.549 -0.2530 -0.0139  0.0496
14545W        W34825   4.405   4.621  12.894  0.1961  0.1512  0.1569
14546W        W34826  14.415  13.746  14.276  0.1859 -0.0772 -0.0488
14547W        W34827  10.953   2.779  12.630 -0.0165  0.0685  0.1705
14548W        W34828  17.368  15.804   4.270 -0.3794  0.1472  0.0172
14549W        W34829  12.291  11.628  14.861  0.1665  0.0662 -0.1583
14550W        W34830  15.257  13.542   2.378  0.0686  0.2781  0.0714
14551W        W34831   2.162   0.306  15.478  0.1674  0.2102 -0.3003
14552W        W34832   4.466  17.709  12.873 -0.0201 -0.0115 -0.1699
14553W        W34833   6.455   4.043   1.079  0.3401  0.2170  0.1745
14554W        W34834   3.874  14.785  15.726  0.2126  0.1246  0.0691
14555W        W34835   7.569  13.299   2.998 -0.1518  0.0683 -0.1495
14556W        W34836  10.338   1.737   4.797 -0.1000  0.1325 -0.2841
14557W        W34837  10.196   0.893   3.532  0.1055 -0.2174  0.3193
14558W        W34838   6.761   0.891  14.278 -0.3903  0.2689  0.4190
14559W        W34839   1.025  13.728  12.454  0.0294  0.2032 -0.0560
14560W        W34840   3.308  16.947  16.813 -0.1603  0.0695 -0.0568
14561W        W34841   2.651  16.213   2.025  0.0379 -0.0516  0.0273
14562W        W34842   5.700   6.150  15.999  0.0457 -0.2193  0.2936
14563W        W34843  10.313   9.123   3.342  0.0321 -0.2845 -0.2719
14564W        W34844   8.171  12.295  12.829 -0.0069  0.2349 -0.1086
14565W        W34845  13.199   1.058   1.984 -0.0417  0.3707  0.0299
14566W        W34846  13.523   4.468  13.761 -0.0301  0.0051 -0.0594
14567W        W34847  12.719  12.882  13.763 -0.0498 -0.0797  0.3724
14568W        W34848   6.941   9.565  16.740 -0.0389 -0.1760  0.0493
14569W        W34849   4.243  10.607  16.539 -0.3542 -0.0431 -0.0908
14570W        W34850   3.231  17.408   1.349  0.1137  0.1741  0.5387
14571W        W34851  16.600  15.285   1.093  0.0235 -0.0730  0.1311
14572W        W34852  11.622  17.310   0.346 -0.0972 -0.0317  0.0118
14573W        W34853   2.425  12.868  16.808 -0.0511  0.1078  0.0620
14574W        W34854  11.220   0.737   0.953  0.4219  0.1829  0.2615
14575W        W34855   9.136   2.507  13.024 -0.5912  0.3461  0.1628
14576W        W34856  12.365  16.539  12.397  0.2154 -0.1637 -0.0279
14577W        W34857  15.231   3.766  16.921 -0.0785 -0.0751  0.0205
14578W        W34858   0.935   6.585   0.276 -0.2358  0.1917  0.0415
14579W        W34859  10.198   2.970  14.988  0.1316  0.0979  0.2260
14580W        W34860   1.058   6.596  14.833 -0.0279 -0.2188  0.0544
14581W        W34861   8.005   0.165  12.689  0.0346  0.1229 -0.3473
14582W        W34862   5.103  11.429  13.391 -0.1110  0.2735  0.0334
14583W        W34863   5.257  16.436  16.151 -0.1374 -0.0672 -0.0113
14584W        W34864   0.342   5.420  16.217  0.2185 -0.3641 -0.1506
14585W        W34865   3.926   7.624   0.441  0.2314  0.2117 -0.1034
14586W        W34866  16.030  11.481   4.465  0.2239  0.1780 -0.2784
14587W        W34867   3.429   8.035   1.029 -0.1682  0.1693  0.1382
14588W        W34868   7.591   9.790   4.816  0.0304  0.0843  0.2447
14589W        W34869  13.450   2.749  15.773  0.0631  0.1309  0.0158
14590W        W34870  16.994   3.830  16.717 -0.1759 -0.1337  0.1710
14591W        W34871   4.750   1.719   0.132 -0.3222 -0.1763 -0.2013
14592W        W34872   6.325   5.446  12.744 -0.0468  0.1435 -0.2919
14593W        W34873   6.974  16.527  15.329  0.0479  0.1623  0.0096
14594W        W34874  11.239  17.261   0.646  0.2753  0.3006 -0.0475
14595W        W34875   7.443   8.545  14.720 -0.4408  0.2072  0.2143
14596W        W34876  16.226   3.342   4.813  0.0307 -0.1084 -0.3001
14597W        W34877   7.903  13.742   2.688  0.2077 -0.0755  0.1519
14598W        W34878  16.576   1.129   3.391  0.1416  0.2839 -0.0522
14599W        W34879   7.663   8.568  12.842  0.1028 -0.0310 -0.3294
14600W        W34880   8.140   4.214   0.425  0.0209 -0.0578  0.5074
14601W        W34881  11.939   5.537   1.344 -0.1676  0.2738 -0.1549
14602W        W34882   1.259   6.644  13.757  0.1107 -0.2128 -0.1335
14603W        W34883   1.884  13.271   4.347 -0.1982  0.0100 -0.2478
14604W        W34884   2.978  14.143  14.606 -0.0690 -0.1733 -0.1443
14605W        W34885  10.907  10.836   2.322 -0.0469 -0.2375 -0.0152
14606W        W34886   8.489  17.086   2.302 -0.1277  0.0593  0.0372
14607W        W34887  14.702  15.210   3.053 -0.1814  0.0282 -0.1274
14608W        W34888  12.693  10.457   3.607 -0.0366  0.0518 -0.3001
14609W        W34889   2.069  17.213   0.002 -0.0822  0.2256 -0.1024
14610W        W34890  16.740   3.411   4.716  0.2371  0.2152 -0.0423
14611W        W34891   8.822  17.206  14.874 -0.3638 -0.1005  0.0341
14612W        W34892   1.407  12.917  13.934  0.0956  0.1192  0.1667
14613W        W34893   0.241  11.218   0.001  0.2126 -0.1847 -0.2237
14614W        W34894  17.273  12.689  14.977  0.2187 -0.0069  0.0327
14615W        W34895   5.643  16.239  13.055  0.1037  0.2173  0.0172
14616W        W34896   6.870   4.293   4.646 -0.0460  0.1953 -0.1355
14617W        W34897  17.094   7.173  14.115  0.0758 -0.0512 -0.3413
14618W        W34898   5.987   3.802   0.086  0.0242 -0.3621 -0.0238
14619W        W34899   6.114   1.828   4.346  0.0382 -0.1224  0.0861
14620W        W34900  15.877  12.253   3.196  0.3892  0.0858  0.0122
14621W        W34901   3.034  17.662  13.321 -0.3640 -0.0808  0.1898
14622W        W34902   7.718   1.062   0.385  0.3068  0.2159 -0.1163
14623W        W34903   7.855   1.491   4.213  0.1363  0.1158  0.1494
14624W        W34904   0.365   1.964  16.599 -0.0185  0.1422 -0.0187
14625W        W34905  13.655   6.094  13.009 -0.1864 -0.1143 -0.0508
14626W        W34906   4.363   4.591   3.183 -0.1384 -0.2715  0.0183
14627W        W34907   8.288   8.601  14.239  0.0613 -0.0734  0.2981
14628W        W34908  15.318   7.051  13.474 -0.0793 -0.2006  0.0269
14629W        W34909   7.816   9.731   2.126  0.1000 -0.1666  0.2264
14630W        W34910  12.444  13.730  12.232  0.2840  0.2477  0.0294
14631W        W34911  10.246   5.061  12.230 -0.1495  0.0495  0.0694
14632W        W34912  11.119  15.026  15.014 -0.0300  0.1258 -0.1751
14633W        W34913   2.629   0.639  16.386 -0.0369  0.2174 -0.2942
14634W        W34914  14.702   2.900   2.311 -0.0046 -0.2311  0.1530
14635W        W34915  12.387   7.849  13.909  0.4603  0.1394 -0.0007
14636W        W34916   3.832   0.539  12.952  0.3146 -0.0874 -0.1395
14637W        W34917   7.319   3.696  16.673 -0.2336  0.0922  0.1083
14638W        W34918   1.409   5.810   2.971  0.1466  0.0561 -0.0583
14639W        W34919  11.206   1.615  12.441  0.1889  0.2865 -0.1268
14640W        W34920   8.275  13.624   4.552 -0.1101  0.0034  0.1922
14641W        W34921   9.466   2.158  15.200 -0.0812  0.1996  0.1542
14642W        W34922   7.937   1.155  14.864 -0.3128 -0.3375  0.1368
14643W        W34923   8.067  11.337   1.903  0.1509  0.0363 -0.2454
14644W        W34924   0.454  14.884   2.594  0.0074 -0.0144 -0.0950
14645W        W34925   0.661  11.847  13.313 -0.0339  0.0376  0.1393
14646W        W34926   2.086  11.476  13.912 -0.1528  0.3313  0.0709
14647W        W34927  14.106  11.490   3.151  0.1371 -0.0985 -0.1218
14648W        W34928  13.897   3.455  16.941  0.1577 -0.3427  0.1864
14649W        W34929  17.683   1.022   1.416 -0.1084  0.1022  0.3297
14650W        W34930  10.875  14.429  12.794  0.2049 -0.1613 -0.0159
14651W        W34931  11.193   3.078   2.330  0.2059 -0.2518 -0.1430
14652W        W34932  11.910   0.859   3.693 -0.1995 -0.0039 -0.2023
14653W        W34933  12.816  13.485   0.367  0.1918  0.0355 -0.2026
14654W        W34934  12.277  10.605  15.423 -0.0049 -0.0923  0.0114
14655W        W34935   3.802   1.411  13.071 -0.1006  0.1281 -0.1810
14656W        W34936  10.489   5.098  14.653 -0.0844  0.0186  0.0412
14657W        W34937   5.015  13.736  13.875  0.2337  0.1211 -0.1667
14658W        W34938  14.496  14.221  14.720  0.0586 -0.1790 -0.3905
14659W        W34939  11.646  13.455  13.787 -0.1652 -0.2081 -0.1976
14660W        W34940   5.130   1.500  15.913  0.1781 -0.1334  0.1988
14661W        W34941   4.125   9.233   3.405  0.1188 -0.3914 -0.1410
14662W        W34942  16.496   7.744   0.588  0.0394  0.1038  0.0213
14663W        W34943   9.997  12.276   0.222  0.1207 -0.0185  0.0012
14664W        W34944   2.836  10.919  13.831  0.3779 -0.2564 -0.2931
14665W        W34945   2.451  13.323   2.584 -0.1768 -0.1750 -0.1944
14666W        W34946  13.368  13.693  12.570 -0.4625 -0.1011 -0.4396
14667W        W34947  13.139   7.834   1.904  0.3811  0.0731  0.5097
14668W        W34948  12.978   6.764   0.153  0.0892  0.2294  0.1318
14669W        W34949   6.587   3.398   2.251  0.1690 -0.1258 -0.2290
14670W        W34950   3.659  14.666   3.688 -0.1798  0.1301 -0.2787
14671W        W34951   5.156   6.883   0.486 -0.1352 -0.0013 -0.1129
14672W        W34952  13.645   5.282  13.263 -0.0686 -0.2053 -0.2697
14673W        W34953  16.086   5.693  16.337 -0.1207  0.0905 -0.2654
14674W        W34954   4.538  15.132   0.297  0.1389 -0.3154  0.2073
14675W        W34955   5.159   2.033  16.086  0.0608  0.1254  0.0206
14676W        W34956  14.912   0.600   2.016 -0.3010  0.1920 -0.1253
14677W        W34957  14.825   3.654  14.628  0.0445 -0.1489  0.0829
14678W        W34958   8.311  13.062   0.027  0.1506 -0.1410 -0.1503
14679W        W34959   4.821   5.614   0.754  0.0944 -0.2524  0.0652
14680W        W34960  10.287  10.941  13.442 -0.1912 -0.2899  0.0861
14681W        W34961   8.371   0.838  12.334  0.3230  0.0299 -0.1929
14682W        W34962  14.433   4.827   0.059  0.0523 -0.0553 -0.1671
14683W        W34963  17.393  17.461   0.671  0.0605 -0.0544 -0.0380
14684W        W34964   8.719   0.443  12.066  0.0006 -0.0008 -0.1676
14685W        W34965   0.762  10.240  14.818  0.2718  0.2159 -0.0917
14686W        W34966  13.607   0.327  15.065  0.0073  0.1197 -0.3104
14687W        W34967  17.733   5.859  15.558 -0.0482 -0.0473 -0.4554
14688W        W34968   4.486  16.106  12.244  0.1828 -0.0822 -0.1963
14689W        W34969   7.758   6.838  16.549 -0.0238  0.1924 -0.1290
14690W        W34970   1.865  16.647  13.271  0.0707  0.0663  0.1623
14691W        W34971   6.745   0.053  12.277  0.0534  0.1689 -0.1856
14692W        W34972   0.981  16.862  12.268  0.1849  0.2664 -0.0292
14693W        W34973   3.950  11.586  16.414  0.0304  0.2572  0.0519
14694W        W34974  12.334  16.223   0.592 -0.2987 -0.3645  0.2153
14695W        W34975   3.977   3.993  14.560 -0.1794 -0.3111  0.1955
14696W        W34976  17.399  10.732  14.310  0.1348 -0.2177  0.2522
14697W        W34977   8.096   3.393  12.546  0.1989  0.0112  0.1275
14698W        W34978  14.231  11.901  16.864  0.0277 -0.1394 -0.1864
14699W        W34979  12.399  16.927  12.744 -0.0719  0.1891 -0.2056
14700W        W34980  16.369  13.990  16.521  0.2149  0.0604  0.0140
14701W        W34981   5.713   3.354  14.854 -0.0956  0.2961  0.3358
14702W        W34982  15.145   1.643  13.448  0.2840 -0.3890  0.2781
14703W        W34983  10.201   6.324   3.991  0.2910 -0.1031 -0.2607
14704W        W34984   4.958   2.194   0.018  0.0987 -0.1632  0.1241
14705W        W34985   4.365   4.139   1.081  0.1436 -0.0781  0.2368
14706W        W34986  16.151  13.813  15.591 -0.0247 -0.3298  0.0299
14707W        W34987  14.596  11.627  14.532 -0.2182  0.0834 -0.2969
14708W        W34988   5.987   5.039  12.962 -0.0096  0.2194 -0.0071
14709W        W34989   3.082   1.195   2.862 -0.1100 -0.1680  0.1747
14710W        W34990   1.769  12.581  13.660  0.0146 -0.0887 -0.1478
14711W        W34991   0.057   1.938  14.645  0.1055 -0.0049  0.2632
14712W        W34992   2.415   0.440   4.770 -0.1016 -0.3387  0.1355
14713W        W34993   5.732  16.540  14.861  0.0801 -0.1298  0.0793
14714W        W34994   1.148   4.220  15.870  0.1443  0.0632 -0.1115
14715W        W34995   5.414  13.458  15.687 -0.1678 -0.0261 -0.0745
14716W        W34996   5.155   0.069   3.145 -0.0595 -0.2319  0.2393
14717W        W34997  15.050   4.472  12.660  0.2112 -0.2148  0.2918
14718W        W34998  14.844  16.905  16.424  0.2365  0.2260  0.0183
14719W        W34999  12.193  11.059   0.807 -0.0956 -0.0061 -0.0802
14720W        W35000  11.454  10.125   5.289 -0.2008  0.0770 -0.0186
14721W        W35001   8.015   1.184   4.589 -0.1310 -0.1962  0.0103
14722W        W35002   5.285  17.168  15.494  0.0856 -0.1554 -0.0812
14723W        W35003   7.695   0.416  15.133 -0.1439  0.0595  0.3092
14724W        W35004   3.197  13.131  14.236 -0.1312 -0.3098  0.1464
14725W        W35005   2.614   6.528   0.026  0.1763 -0.0723  0.0330
14726W        W35006  12.697  16.469   4.341 -0.1925  0.1245 -0.2290
14727W        W35007  12.101  15.833  13.490 -0.0206  0.3111 -0.2001
14728W        W35008   8.071   0.125   0.921 -0.3517 -0.1731  0.0401
14729W        W35009   7.609  11.140   3.794  0.4062 -0.1762  0.0968
14730W        W35010   0.415   3.403  14.241 -0.1058  0.0872  0.2085
14731W        W35011   7.614  17.680   5.214 -0.0437  0.2280  0.2330
14732W        W35012   3.979   0.062  12.708  0.0326 -0.0647  0.0069
14733W        W35013   4.229  13.562   1.853 -0.1146  0.0417 -0.0924
14734W        W35014  16.975  11.159  12.324  0.0803 -0.2921  0.2656
14735W        W35015   5.704   6.423  14.613 -0.3733  0.0078  0.0242
14736W        W35016   3.028  10.040   4.098  0.0164 -0.1388 -0.1755
14737W        W35017   1.677   5.506   3.280  0.1694  0.1139 -0.0188
14738W        W35018  13.482  12.578   2.511  0.1005  0.3153 -0.1216
14739W        W35019   9.463  13.096  16.926  0.0706 -0.2891  0.0456
14740W        W35020   5.845  16.617   2.901 -0.1650 -0.1837  0.2404
14741W        W35021   3.596   5.383  14.377  0.1448 -0.2321  0.2397
14742W        W35022  15.442  16.666   3.493 -0.2010 -0.2779 -0.0596
14743W        W35023   2.881  12.900  14.806 -0.0626  0.1834  0.0982
14744W        W35024   9.338   2.840  12.621 -0.2131  0.2038  0.3584
14745W        W35025   3.105  16.902  15.104  0.1949 -0.2547  0.1652
14746W        W35026  15.590   4.380  13.795 -0.0985  0.1494 -0.2594
14747W        W35027  14.257   2.539   3.895  0.0456 -0.2243 -0.4481
14748W        W35028   9.994   6.879  16.802 -0.3674  0.0758 -0.3396
14749W        W35029  16.898  15.869   3.287 -0.1639 -0.2392 -0.0279
14750W        W35030   0.448  14.405  12.244 -0.3986  0.5238 -0.0473
14751W        W35031   1.288   1.045   1.891 -0.0300  0.4502 -0.0012
14752W        W35032   5.009  17.533   3.612  0.0753 -0.0771  0.2292
14753W        W35033   3.353   7.361  12.281  0.1402 -0.1738 -0.1553
14754W        W35034   7.124  12.177  15.611 -0.0471 -0.0983  0.1699
14755W        W35035  16.967   5.599   3.552 -0.0827 -0.1035 -0.1749
14756W        W35036  11.459   9.242  13.574 -0.2822 -0.0712 -0.2783
14757W        W35037   2.118  13.403   1.367  0.0712  0.0116  0.1388
14758W        W35038  16.716  15.198   0.124 -0.1886 -0.0169 -0.1851
14759W        W35039   9.795   7.782  11.629 -0.1665 -0.2007 -0.1826
14760W        W35040   8.763  16.620   3.182  0.0708  0.1325 -0.2943
14761W        W35041   8.987   0.869  12.122  0.4737 -0.1563  0.1516
14762W        W35042   7.255   5.909   0.436  0.3064 -0.2942 -0.1741
14763W        W35043  15.116   9.487   4.802 -0.0544 -0.1139 -0.1567
14764W        W35044   5.495  10.771   0.323  0.1352  0.0457  0.1351
14765W        W35045   7.757   5.092   1.731  0.2681 -0.2347  0.4343
14766W        W35046  17.338  13.043   0.483 -0.3240 -0.1841  0.1254
14767W        W35047  13.814  13.841   4.096 -0.0605  0.2958  0.0579
14768W        W35048   5.724   4.330   0.954  0.0465 -0.3556 -0.0936
14769W        W35049  14.175   0.072   1.882  0.0201 -0.0489 -0.0464
14770W        W35050   5.342  12.941  14.418  0.1600 -0.2433  0.2299
14771W        W35051   1.625   3.525   3.429  0.2203 -0.0152  0.3169
14772W        W35052   0.059   5.012  13.198  0.0384  0.0518 -0.0199
14773W        W35053   7.812  15.545   3.362  0.0492 -0.0359  0.0506
14774W        W35054   5.992   2.009   3.901 -0.3278 -0.1581 -0.1367
14775W        W35055  10.520  10.780  15.208 -0.2697 -0.1011 -0.0673
14776W        W35056   3.361  10.280   2.725  0.0925 -0.0562 -0.2504
14777W        W35057   0.541   5.109  12.411 -0.0050  0.0563  0.0585
14778W        W35058  15.660   6.015   3.892 -0.0466 -0.1965 -0.0278
14779W        W35059  17.470  10.452   4.456 -0.2208 -0.1259  0.3576
14780W        W35060   6.787  15.197  13.177  0.0728  0.0217  0.0892
14781W        W35061   8.599   2.852  14.462  0.3340  0.0971 -0.3728
14782W        W35062  14.443   2.725  15.773  0.1512 -0.1196 -0.1227
14783W        W35063  10.455   3.734   2.602  0.1389 -0.2688 -0.0485
14784W        W35064   3.942  17.710  16.812  0.0480 -0.1636 -0.0950
14785W        W35065  16.646   4.942  15.928  0.4189  0.0879 -0.0136
14786W        W35066  12.506  11.971   3.994 -0.1172 -0.2147  0.0319
14787W        W35067   7.367   0.747   2.261 -0.1246 -0.0173  0.0445
14788W        W35068   3.319  12.936  13.763  0.0378 -0.0849 -0.0044
14789W        W35069   2.997  16.657   1.458 -0.0840  0.0649 -0.2300
14790W        W35070   4.530   0.344   3.632  0.2260 -0.1436  0.0017
14791W        W35071  13.804  17.334   4.083 -0.1021  0.2074  0.4561
14792W        W35072   0.537  11.591  12.853  0.0132 -0.1427  0.1890
14793W        W35073  16.742   9.274  15.989 -0.2284 -0.0543  0.1791
14794W        W35074   5.120   1.545  16.777  0.0650 -0.0121 -0.0626
14795W        W35075   8.563  17.349   4.570 -0.2042 -0.2601  0.0337
14796W        W35076   2.762  12.097  15.539  0.1565 -0.0788  0.3022
14797W        W35077   9.780   9.159  16.155  0.1653  0.2212 -0.0289
14798W        W35078   9.592   6.677  14.615 -0.3114  0.0889 -0.0347
14799W        W35079  11.086   0.220  11.930  0.2158 -0.2867 -0.0462
14800W        W35080   3.674  16.768   2.838 -0.0143 -0.1700  0.0116
14801W        W35081  12.167  11.598   0.051  0.3594 -0.0498 -0.0260
14802W        W35082  10.018   6.987   4.905 -0.1630 -0.1449 -0.0481
14803W        W35083   3.876   0.964   2.906 -0.1051  0.0397 -0.0614
14804W        W35084  16.148   4.449   0.861 -0.2242 -0.2380  0.0730
14805W        W35085  17.248   6.016  13.921 -0.1661  0.0351  0.2540
14806W        W35086  13.893  13.213  13.773  0.1198 -0.4170 -0.2651
14807W        W35087  12.858  10.668  14.176 -0.3705 -0.1530 -0.3157
14808W        W35088  11.691  16.623  12.956  0.2986  0.1372 -0.2704
14809W        W35089   3.588   9.809  16.466  0.2184  0.0542 -0.0311
14810W        W35090   7.569   3.729   0.478 -0.0299  0.2926 -0.2949
14811W        W35091   7.313  14.246   5.018 -0.1171 -0.4808  0.0455
14812W        W35092   5.950  10.076   3.892 -0.1478  0.2529  0.1350
14813W        W35093   1.972  16.193  13.660 -0.0507  0.2382 -0.0827
14814W        W35094  14.672   9.974   0.278 -0.1627 -0.3658  0.2646
14815W        W35095  12.523  13.455  15.374  0.2220 -0.0819 -0.0004
14816W        W35096  16.721  10.489  15.293  0.0476 -0.0398 -0.1177
14817W        W35097   6.253  11.713  13.340  0.0236 -0.0999 -0.3695
14818W        W35098  16.694   9.809  16.151 -0.2592  0.0954  0.0890
14819W        W35099  10.429  15.947  15.696 -0.0490 -0.3275 -0.0127
14820W        W35100   2.770   0.849  12.461  0.0809 -0.0465 -0.1485
14821W        W35101   5.796  16.011   0.882  0.0231 -0.0551 -0.0129
14822W        W35102  10.078   5.102   2.434 -0.0631  0.0881 -0.1847
14823W        W35103  10.596   7.856  15.591 -0.2863 -0.0130 -0.0565
14824W        W35104   4.423   5.859   3.757  0.1174  0.0303 -0.1045
14825W        W35105  10.465   0.508  14.719  0.2280  0.0705  0.1317
14826W        W35106   8.686   4.997  16.931 -0.1411 -0.0434  0.0161
14827W        W35107  16.863   0.572  15.289  0.0427 -0.1987 -0.0044
14828W        W35108   2.639   4.574   0.181  0.0317 -0.1260 -0.1110
14829W        W35109  15.372  16.683  15.321 -0.2320  0.3229 -0.1537
14830W        W35110  14.321   2.185  14.385  0.0082 -0.0607 -0.2853
14831W        W35111  14.420  16.306  14.254 -0.2200 -0.0256  0.0676
14832W        W35112  14.374  13.169   0.353 -0.1376 -0.2864 -0.2125
14833W        W35113   9.894   7.408  15.106 -0.3574  0.0950  0.1202
14834W        W35114  10.876   0.799   0.527  0.0729 -0.0328 -0.2079
14835W        W35115  11.482  17.181  14.374 -0.2416 -0.3161  0.0191
14836W        W35116  14.734  16.342   2.102  0.2265  0.3210  0.0908
14837W        W35117  12.259   2.154  12.971  0.0571  0.1513 -0.0933
14838W        W35118   3.663   6.209  12.946 -0.2623 -0.0019 -0.1102
14839W        W35119  15.661   0.914  16.118 -0.2072  0.3017 -0.0034
14840W        W35120   8.885  17.686  16.472  0.1868 -0.1913 -0.0515
14841W        W35121  16.780  12.050  14.023 -0.0333 -0.1199 -0.2093
14842W        W35122  15.183   5.721  15.670  0.1109 -0.0259 -0.1030
14843W        W35123   1.662  17.185   0.830  0.0844  0.0814 -0.0305
14844W        W35124   2.684  17.112   4.455 -0.1748 -0.0850  0.0865
14845W        W35125   8.181  14.936   2.093  0.0564 -0.4521 -0.1062
14846W        W35126   5.077  13.545   2.042 -0.4413 -0.0585  0.0033
14847W        W35127   4.808  13.293  12.674 -0.3536 -0.1092  0.1140
14848W        W35128   7.875  12.388   4.340  0.0117  0.0544  0.0058
14849W        W35129  10.489   8.286  14.850 -0.2884  0.3327 -0.4078
14850W        W35130   2.162   3.194  13.721  0.1160 -0.3205  0.0211
14851W        W35131  12.554   1.921   1.869  0.2214  0.0399  0.0379
14852W        W35132   0.106   7.139   1.965  0.0141  0.1080 -0.0187
14853W        W35133   4.633   1.587  15.652  0.0634  0.2128  0.3078
14854W        W35134   8.359   4.784  13.967  0.0311 -0.1428  0.0224
14855W        W35135  10.606   1.427  16.134  0.1236 -0.2694 -0.2591
14856W        W35136  15.710   7.783  14.239 -0.0289  0.0908  0.1264
14857W        W35137  10.300   8.334   4.033 -0.2578  0.0833  0.1632
14858W        W35138  17.189  15.917  16.262 -0.0489  0.0684 -0.1145
14859W        W35139  10.257  16.654  14.390  0.2585  0.0714 -0.2296
14860W        W35140   9.612   0.603  16.495  0.0573 -0.1236 -0.0018
14861W        W35141  16.110  11.476  14.699  0.1200  0.0629  0.2236
14862W        W35142   1.722  15.344  13.331 -0.1917  0.0886 -0.1435
14863W        W35143   0.748   1.474   0.411 -0.1316  0.3031 -0.0969
14864W        W35144  13.095   5.087   2.265  0.1925  0.4028 -0.0195
14865W        W35145  15.630   7.586  16.409 -0.0409  0.1821  0.7076
14866W        W35146  10.381  13.103   3.821 -0.2617  0.4107 -0.1242
14867W        W35147   7.293  10.369  13.357  0.4588 -0.1933  0.0513
14868W        W35148  11.919  12.129  12.481 -0.3100 -0.1809 -0.0362
14869W        W35149  10.195   2.421  13.301  0.2083 -0.0637  0.0584
14870W        W35150  12.849   8.639  16.718  0.0701  0.0844  0.0422
14871W        W35151   0.146   6.125  16.859 -0.0712 -0.0303  0.1653
14872W        W35152   7.000   5.872   3.438  0.1732  0.0613 -0.1843
14873W        W35153  13.639  11.777  12.471  0.0962  0.4056  0.1053
14874W        W35154   8.541   9.297   0.514 -0.1555 -0.1554 -0.0815
14875W        W35155   9.704  15.603   4.933  0.3055  0.3618 -0.1413
14876W        W35156   8.943   4.363   1.862 -0.0892 -0.1495  0.2013
14877W        W35157   1.296   5.416   5.705 -0.0300 -0.1323  0.1690
14878W        W35158  11.846   5.210   3.401 -0.1518 -0.0001 -0.2404
14879W        W35159   8.276  14.246  16.136 -0.2921 -0.2613 -0.1187
14880W        W35160   1.305   8.586   4.427  0.3201  0.0316  0.2316
14881W        W35161   5.305  15.871  12.330 -0.0264  0.0334  0.1152
14882W        W35162  17.685   7.664  14.427  0.2357  0.2269  0.1984
14883W        W35163   7.101   4.145   3.254 -0.4524  0.1257 -0.2168
14884W        W35164  15.746  12.074   1.509 -0.1688 -0.0623  0.2483
14885W        W35165  13.646   4.904  15.004  0.0429 -0.0418 -0.0056
14886W        W35166  11.004   9.072  16.187 -0.0996  0.0406 -0.0746
14887W        W35167   7.055  13.461  15.902  0.0834 -0.0161  0.0482
14888W        W35168   7.580  10.274   2.172  0.1794  0.0717 -0.1142
14889W        W35169  14.721  13.671   3.791  0.1761  0.1438  0.2485
14890W        W35170  12.699   7.648   1.570 -0.3070 -0.2058  0.3220
14891W        W35171   9.366   7.910  13.816  0.0490 -0.2642  0.1560
14892W        W35172   0.985  11.856  16.987  0.0165  0.1834 -0.1786
14893W        W35173   9.670   8.910   0.166  0.3180 -0.1184 -0.3562
14894W        W35174   9.713   6.554   4.908 -0.2705 -0.1415 -0.1539
14895W        W35175   2.288  12.258   4.374  0.0744 -0.0678 -0.1671
14896W        W35176   6.264   5.621   2.736  0.0399  0.2143 -0.0222
14897W        W35177  10.743  12.318   2.063 -0.0221  0.0804 -0.1430
14898W        W35178  10.402   8.156  12.213 -0.0516  0.1076 -0.0559
14899W        W35179  17.113   1.393  13.484 -0.1236  0.0405 -0.0627
14900W        W35180   8.840   2.443   4.470 -0.1284  0.1592 -0.1004
14901W        W35181   7.304   1.301  16.732  0.1331 -0.1517  0.0624
14902W        W35182   1.629   1.857  15.535  0.1179  0.3624 -0.0659
14903W        W35183   7.536   1.567   5.276 -0.1483  0.1161  0.0336
14904W        W35184  10.388   6.893   3.192 -0.0536 -0.1558 -0.1187
14905W        W35185   1.394   2.018   0.769 -0.2234 -0.1440  0.1317
14906W        W35186  11.580   5.418  16.591 -0.0911 -0.4309  0.0308
14907W        W35187  16.857   2.409  13.955 -0.1014 -0.0595 -0.0656
14908W        W35188  10.813   8.675  13.383 -0.1918  0.1465 -0.0253
14909W        W35189   9.094  11.725  15.274  0.0666 -0.0924  0.2752
14910W        W35190   0.469   5.914  16.476  0.0384 -0.4551  0.2433
14911W        W35191  10.901  10.283   4.245 -0.0025  0.2011 -0.1779
14912W        W35192  12.327   0.947   0.381  0.0285 -0.3083  0.0422
14913W        W35193   7.516  12.898  13.251  0.0586 -0.0278 -0.0770
14914W        W35194   3.850  14.140  14.572  0.0835  0.0538 -0.0038
14915W        W35195   8.566   3.229   1.890  0.0866  0.1866  0.3653
14916W        W35196  15.261  17.001   0.305  0.3267  0.1946  0.0950
14917W        W35197   1.911   0.988   3.750 -0.0033 -0.0839 -0.2567
14918W        W35198   9.853   4.531   4.069  0.1880 -0.1188  0.3500
14919W        W35199  15.115  14.184   1.333  0.1588  0.0457  0.3127
14920W        W35200   1.829  15.153   4.367 -0.4234 -0.0795 -0.1444
14921W        W35201   0.825  13.820   0.123 -0.2284 -0.2235 -0.0661
14922W        W35202  16.758   7.742   3.473  0.2524  0.1731 -0.1193
14923W        W35203  14.474   4.811   4.585 -0.5312 -0.0934  0.1431
14924W        W35204  12.232   5.273   1.884  0.1253 -0.1116  0.2244
14925W        W35205   5.826   3.235  15.713 -0.3250 -0.0829  0.0819
14926W        W35206   0.004   1.535   1.858  0.1161 -0.0880  0.1214
14927W        W35207  13.415   3.617  16.269  0.0302  0.0464 -0.2175
14928W        W35208  14.317   6.803  14.272 -0.2766 -0.2311 -0.0510
14929W        W35209  17.676  14.007  13.579  0.0442 -0.1755 -0.1854
14930W        W35210   8.018  16.042  15.387 -0.0521  0.1759  0.2239
14931W        W35211  16.692   5.489  12.335 -0.2341  0.2080 -0.1598
14932W        W35212  16.281  12.795  14.514  0.0140 -0.0223  0.0195
14933W        W35213  11.667  17.082  12.241  0.1019  0.3717 -0.1304
14934W        W35214  13.838  15.761   2.085 -0.0728 -0.1364 -0.0642
14935W        W35215  15.786   4.319  14.763 -0.2645 -0.1543 -0.0094
14936W        W35216   6.096   6.421   0.017  0.1629  0.1505 -0.2334
14937W        W35217  11.079   3.420  13.750  0.0609  0.0724  0.1160
14938W        W35218   7.774   6.739   1.103  0.1669  0.0149  0.0028
14939W        W35219  13.288   2.264  15.900 -0.1074  0.2942 -0.0840
14940W        W35220   5.344   3.171  14.102 -0.1627 -0.1880  0.2794
14941W        W35221   4.802  12.629   2.892  0.2452  0.0829 -0.1180
14942W        W35222   0.594  16.561   2.365  0.0432 -0.2221 -0.2429
14943W        W35223   7.650   8.749  16.070 -0.1880  0.1157  0.2035
14944W        W35224   5.432  12.518  16.816 -0.0575  0.1912  0.0961
14945W        W35225  14.443  15.958   3.591 -0.1259  0.1962 -0.0456
14946W        W35226   5.157  12.721  14.877 -0.0902  0.0839 -0.4559
14947W        W35227   2.258  13.904   2.883  0.0838 -0.0204  0.3589
14948W        W35228   4.239   0.939  16.768  0.2459  0.0387  0.0394
14949W        W35229   5.400  14.188   3.176  0.1553  0.4516  0.1564
14950W        W35230  13.516   0.967  16.731 -0.0245 -0.2755 -0.0660
14951W        W35231  15.852   7.639   4.687 -0.2605 -0.0375  0.2726
14952W        W35232  16.498  15.301  14.586 -0.0840  0.1459  0.0843
14953W        W35233   4.109   7.646  15.914 -0.1143 -0.1069 -0.2176
14954W        W35234  11.245   3.571  11.842  0.0940 -0.0387 -0.1830
14955W        W35235   6.991   0.222  15.528  0.0695  0.2816 -0.1841
14956W        W35236   7.472   5.459  14.569 -0.1198 -0.0130 -0.0546
14957W        W35237  10.662  13.408  15.874  0.0636 -0.0120  0.0549
14958W        W35238  10.973   5.786   1.889 -0.1069 -0.2585  0.2483
14959W        W35239  16.366   0.618   1.090 -0.0961 -0.1197  0.0600
14960W        W35240   3.062  13.222   1.629  0.1394 -0.2329  0.3680
14961W        W35241  10.416   2.819  13.277  0.2884 -0.0224  0.2746
14962W        W35242  16.385  11.419   0.931  0.0284  0.1483  0.0159
14963W        W35243  13.951   3.091  13.829  0.1890 -0.1667 -0.1278
14964W        W35244  16.369   5.397  15.101  0.2973  0.1373 -0.3636
14965W        W35245   9.679   3.927  14.773  0.1288 -0.0701  0.1956
14966W        W35246  16.040  16.755   1.315 -0.2694 -0.0164 -0.0443
14967W        W35247  11.894  12.791   4.378  0.0296  0.1977 -0.0326
14968W        W35248  15.796  16.082  16.427  0.3283 -0.0891  0.0212
14969W        W35249  11.912  10.627  14.844 -0.1349 -0.0788 -0.1505
14970W        W35250   8.107  14.497   1.871 -0.1221 -0.0151 -0.1209
14971W        W35251  11.629   7.893  16.556  0.2168  0.2876  0.0212
14972W        W35252   2.200  14.906   2.804 -0.0991 -0.3098  0.4356
14973W        W35253   5.734  16.650  13.932 -0.2099 -0.0139 -0.0101
14974W        W35254   0.867   9.063   1.158 -0.3419 -0.1984 -0.3679
14975W        W35255  10.294  11.462   4.774 -0.3825  0.1731  0.0671
14976W        W35256   9.440   3.678   1.286 -0.2115  0.1724  0.4263
14977W        W35257   9.263   9.402   3.256  0.1071  0.1013  0.2285
14978W        W35258   3.983  11.119   1.850  0.3469  0.1252 -0.1429
14979W        W35259  15.875  15.206  13.210  0.3172  0.0407 -0.0367
14980W        W35260  14.782   9.800  13.045 -0.2036 -0.4619  0.0848
14981W        W35261  16.783   3.765  16.255 -0.5530  0.0076  0.0053
14982W        W35262   4.658  12.777   4.575  0.1106  0.0594 -0.1316
14983W        W35263  15.314   7.471  15.653 -0.1725 -0.0201  0.4563
14984W        W35264   3.808   0.236   4.378 -0.4013 -0.1722  0.0222
14985W        W35265  16.595   5.081   5.382 -0.2251 -0.2441  0.1743
14986W        W35266  15.844   2.188  13.144 -0.0706  0.0182  0.1233
14987W        W35267  12.844  13.054   0.669  0.3336  0.1310 -0.0620
14988W        W35268  11.850  11.792  14.091  0.1747 -0.0087 -0.2661
14989W        W35269  16.584   0.593   4.180 -0.0129 -0.2096  0.1705
14990W        W35270  14.347  15.519   1.286 -0.1151 -0.3223  0.0833
14991W        W35271   0.757  16.113  15.161  0.0183 -0.1739  0.2772
14992W        W35272   2.049  14.677   1.460  0.2309 -0.2394 -0.2408
14993W        W35273  11.013  11.726   2.439  0.0706  0.1721  0.1260
14994W        W35274  11.462   9.322   3.934  0.1969 -0.3282  0.1941
14995W        W35275  10.366   3.902   3.663 -0.0338  0.0083  0.1293
14996W        W35276  13.237   9.344   1.212  0.1517  0.1038  0.2030
14997W        W35277   5.241   1.323   2.155  0.0845  0.0935 -0.1290
14998W        W35278  11.465   3.035   3.876 -0.2187 -0.2345 -0.0684
14999W        W35279   2.452   5.638  15.010  0.0642  0.1842  0.1922
15000W        W35280  15.132  15.162   1.530  0.4141  0.1713 -0.0550
15001W        W35281   3.567   2.329   0.592 -0.1986  0.1262  0.0265
15002W        W35282   6.652   1.330  12.753  0.0680  0.1191 -0.1328
15003W        W35283   6.288   4.757   3.698 -0.2098  0.1476 -0.2026
15004W        W35284   7.591   9.470  13.315  0.0581 -0.1875 -0.0559
15005W        W35285   0.160  13.971   2.814 -0.0469 -0.0869 -0.0247
15006W        W35286   8.009   1.577  12.820 -0.2531  0.2174 -0.1979
15007W        W35287  13.051  13.287  16.649 -0.0904  0.2437 -0.2745
15008W        W35288  15.170  14.090   4.636  0.1011  0.0376  0.0249
15009W        W35289   3.473   6.304  16.596 -0.1785 -0.0208 -0.1527
15010W        W35290   4.654  10.068   4.875 -0.2375  0.1302 -0.1967
15011W        W35291   4.955   8.233  16.146  0.0088  0.0998 -0.1016
15012W        W35292   9.310   8.667  13.777  0.2888  0.1169  0.1290
15013W        W35293   3.448  13.670   3.429  0.2750 -0.2032  0.1403
15014W        W35294   4.558   3.431   3.728  0.0798  0.0676 -0.1003
15015W        W35295   4.045   7.879   1.534  0.1469  0.2771 -0.1548
15016W        W35296   3.939  11.130   2.412  0.1536 -0.0422  0.0269
15017W        W35297   6.139  13.723  16.729 -0.1898  0.0301 -0.0191
15018W        W35298  16.265  10.495   1.950  0.3855  0.3445  0.0266
15019W        W35299   7.181   8.210   0.824 -0.0727  0.0842  0.2554
15020W        W35300  10.052   5.972  16.062  0.2213 -0.1578 -0.2125
15021W        W35301  14.014   5.806   0.660  0.4901 -0.0564 -0.0657
15022W        W35302  15.248  16.194  15.441  0.1763  0.2700 -0.2391
15023W        W35303   8.669   6.905  14.310 -0.2747  0.0545  0.1182
15024W        W35304   7.751  12.363   1.851 -0.0128  0.1262 -0.1636
15025W        W35305   1.444   4.603  15.604 -0.2085  0.0588 -0.0209
15026W        W35306  16.836   0.668  16.040 -0.2750  0.3367  0.0311
15027W        W35307   3.664  17.665   1.385  0.0451  0.0479 -0.2507
15028W        W35308  15.119   1.316   0.981 -0.2787 -0.1479  0.0273
15029W        W35309  14.052  11.807   1.666 -0.0285 -0.2379 -0.1071
15030W        W35310  14.931  15.624  12.601 -0.0716 -0.0027 -0.1412
15031W        W35311   7.546  11.357  15.842 -0.1519  0.3852  0.0535
15032W        W35312  16.834   1.568   0.822  0.1345 -0.3394  0.0434
15033W        W35313  17.672   7.183  16.989 -0.1092  0.0774 -0.0425
15034W        W35314  11.548   6.844   2.933  0.1015 -0.3879  0.0893
15035W        W35315   5.064   6.129   1.634 -0.0201  0.1324  0.0533
15036W        W35316   0.797  12.336  13.239 -0.1508 -0.1499  0.0868
15037W        W35317   4.867  17.267  12.769 -0.0400 -0.1934  0.0945
15038W        W35318  16.882  14.480   3.663  0.1946 -0.0319  0.0045
15039W        W35319  17.608  16.497  15.440  0.0547  0.1356  0.4050
15040W        W35320   9.804   1.677   3.253  0.0677  0.1113  0.0128
15041W        W35321   7.717   7.060  12.783  0.0296 -0.2409 -0.3658
15042W        W35322  14.265  14.396   3.687  0.2226  0.2936 -0.2945
15043W        W35323   7.092  13.985   2.489  0.1860 -0.0470 -0.0571
15044W        W35324   9.737   1.952   0.582 -0.1696  0.0080  0.1076
15045W        W35325  17.370   2.999  14.782  0.0156  0.1504  0.0956
15046W        W35326   0.145   7.958   2.621 -0.0351 -0.1541  0.2969
15047W        W35327  17.653   9.705   1.039  0.2733 -0.0366  0.0705
15048W        W35328  15.756  14.228   4.712 -0.1126 -0.0002  0.4461
15049W        W35329   8.983  12.911   2.048 -0.1810 -0.1653  0.0924
15050W        W35330   6.474   3.940   6.072 -0.1492 -0.0259  0.3859
15051W        W35331  17.654  16.381   2.343  0.4888 -0.2660  0.0345
15052W        W35332  17.533  13.207  15.197 -0.1082  0.0614  0.2007
15053W        W35333   0.508  13.805  15.333  0.1251 -0.0748  0.0801
15054W        W35334  17.311   0.556   0.157 -0.0382  0.1011 -0.0779
15055W        W35335  16.305   8.514   1.272 -0.2715 -0.3307  0.0138
15056W        W35336   1.364   4.345  14.600  0.0823 -0.0678  0.0842
15057W        W35337   3.018   6.353  16.840 -0.1393  0.0286  0.1947
15058W        W35338   4.141  12.867   3.188 -0.3010 -0.2873 -0.4194
15059W        W35339   8.441  13.361  16.174 -0.0126 -0.3437  0.1173
15060W        W35340   2.185   0.149   4.404 -0.0655  0.0073  0.0587
15061W        W35341   1.433  16.623   4.546 -0.1462  0.2077  0.1767
15062W        W35342   1.825  10.118   0.943 -0.1286 -0.0591  0.0234
15063W        W35343  15.632   2.703   4.710  0.0079  0.4117  0.1285
15064W        W35344  17.576  14.986  14.689  0.0455  0.2745  0.2555
15065W        W35345   6.492   0.239  16.710 -0.1691  0.3195 -0.1074
15066W        W35346   4.826   9.807   3.090 -0.2488 -0.0038 -0.2065
15067W        W35347  11.663   6.327   1.191 -0.1027  0.0482  0.0876
15068W        W35348  10.269  10.291   1.352  0.1994  0.0875 -0.0331
15069W        W35349   7.516   2.007  14.301 -0.0111  0.2484 -0.2923
15070W        W35350  14.543  17.693   1.063 -0.1733 -0.0154  0.1408
15071W        W35351  10.403   2.814   2.264 -0.2430 -0.1853 -0.1556
15072W        W35352   2.723   4.766  12.288  0.1069 -0.1962  0.0018
15073W        W35353   4.855   6.486  13.116 -0.0218 -0.1002  0.1095
15074W        W35354   3.272   6.424  12.704  0.0134 -0.2899 -0.0838
15075W        W35355  15.946   6.454  14.243 -0.0159  0.1204  0.3918
15076W        W35356  12.752   8.525  14.349 -0.1420 -0.1391 -0.2534
15077W        W35357  15.580  11.637  13.361 -0.1798  0.0227  0.1057
15078W        W35358   0.313   3.890   2.390 -0.0561  0.0370  0.0970
15079W        W35359  14.165   1.666  15.019 -0.2566  0.3512  0.3002
15080W        W35360  13.939   0.286   0.641  0.1897  0.2503 -0.1722
15081W        W35361  14.521  17.424   0.110 -0.0186 -0.0317 -0.1917
15082W        W35362   3.418   3.585   3.122  0.0355 -0.3843 -0.3101
15083W        W35363   1.915  14.760  13.731  0.4268 -0.3536 -0.1723
15084W        W35364   5.385   6.471   3.334  0.1647  0.1902 -0.0049
15085W        W35365  16.983   9.086   1.553 -0.2331  0.3790 -0.1593
15086W        W35366   1.824   9.424  13.359  0.1337  0.0672 -0.0038
15087W        W35367  11.638  13.529  16.553 -0.3627  0.1263  0.2330
15088W        W35368   3.888  14.314  12.284  0.3067  0.1365  0.0217
15089W        W35369  12.735  10.092  13.496  0.0154 -0.0291  0.1322
15090W        W35370   7.939   0.672  12.563  0.3884 -0.1437 -0.1581
15091W        W35371   7.861  16.245   2.817  0.0277  0.1218 -0.3437
15092W        W35372  15.142   3.968  13.171  0.1077  0.0781 -0.1677
15093W        W35373  11.683  13.231  12.533 -0.1325  0.0628 -0.0858
15094W        W35374   7.893  14.883   0.260 -0.0293 -0.0295  0.1369
15095W        W35375   5.287   6.281  12.372 -0.0454 -0.0155 -0.1825
15096W        W35376  10.286   4.789   2.745  0.3101 -0.1231  0.0058
15097W        W35377   2.185  10.787   2.844  0.0433  0.0841 -0.1985
15098W        W35378   6.930  14.914   0.361 -0.4631  0.2973  0.2500
15099W        W35379  15.149  12.277  12.811 -0.0196  0.0498 -0.1222
15100W        W35380   9.757  10.130  12.534  0.3732 -0.0031 -0.0948
15101W        W35381   5.816   8.349  13.284 -0.1037  0.3033  0.2051
15102W        W35382   9.837   1.122   1.086  0.1900  0.1126  0.1031
15103W        W35383   5.074   7.172   4.541 -0.1785 -0.1232  0.1215
15104W        W35384  11.611   2.083  13.907  0.2083  0.0888  0.0862
15105W        W35385  13.562   2.732   0.451  0.2612 -0.2330  0.2452
15106W        W35386  10.380   5.315   3.404 -0.2245 -0.1984  0.1507
15107W        W35387  10.242  16.537   2.097  0.2789 -0.0896 -0.1502
15108W        W35388   1.600  17.417  13.847 -0.1565  0.0837 -0.0627
15109W        W35389  14.945   6.133  16.413 -0.1303 -0.1488 -0.2197
15110W        W35390   2.221  14.172  14.744  0.2644 -0.0231  0.1621
15111W        W35391  17.533   9.142  13.927  0.0239 -0.0893  0.1754
15112W        W35392  14.583  12.655   1.350 -0.1627 -0.0562  0.2226
15113W        W35393   5.913  11.494   4.355  0.1078 -0.2204  0.2890
15114W        W35394   4.438  13.142  12.293 -0.0193  0.1665 -0.0504
15115W        W35395  15.744   6.947   1.981 -0.2928 -0.0450  0.1880
15116W        W35396   0.153   4.182   4.915 -0.1855  0.0294  0.0976
15117W        W35397   9.746  13.693  12.928 -0.0929 -0.1526  0.2051
15118W        W35398   2.545   7.744  13.585 -0.0459 -0.0580  0.2770
15119W        W35399  11.472   9.846  13.687 -0.0714 -0.1725  0.3237
15120W        W35400  15.212  14.173   2.932 -0.2055  0.1059  0.0758
15121W        W35401   6.266  14.366  13.704  0.4781  0.6504 -0.0748
15122W        W35402  10.094  16.901  14.806 -0.1858 -0.0795  0.0913
15123W        W35403   8.057   3.883   1.582 -0.1371 -0.2045  0.0637
15124W        W35404  12.999  14.322   0.103  0.2261  0.2833  0.0364
15125W        W35405  13.687  16.578   0.974 -0.1280  0.0578 -0.3541
15126W        W35406  12.406   3.475   1.995  0.3135 -0.2363 -0.0885
15127W        W35407   4.399  13.739   0.165  0.0908 -0.1027  0.0244
15128W        W35408   9.522  11.064   0.059  0.3177  0.0130  0.1173
15129W        W35409   6.420  16.666   0.743  0.3739 -0.1199  0.0967
15130W        W35410   4.840  11.761   5.162 -0.3589  0.0887 -0.0792
15131W        W35411   4.339   0.458  16.534 -0.1048  0.3574  0.1051
15132W        W35412   4.262   3.975  13.915 -0.0447 -0.0668  0.0133
15133W        W35413   8.717   0.287  13.124 -0.0484 -0.0714 -0.1378
15134W        W35414  13.144   9.499   4.857 -0.3834 -0.0497 -0.0643
15135W        W35415   2.471  16.471   0.497 -0.1116 -0.1698  0.2777
15136W        W35416   6.133   3.502  16.587 -0.0510 -0.1248 -0.1166
15137W        W35417   9.612   7.013  13.180 -0.1695 -0.0124 -0.0886
15138W        W35418  11.304   9.286   0.527 -0.0747 -0.1089  0.0461
15139W        W35419   7.952   7.458  15.021 -0.1997 -0.0390 -0.2077
15140W        W35420  14.193  13.568   0.561 -0.4140  0.1076  0.1875
15141W        W35421  13.372   8.371   2.588 -0.1046  0.3750 -0.4535
15142W        W35422   4.478  12.502   4.174  0.1587  0.0504  0.1197
15143W        W35423  16.129   0.945   1.712 -0.1691 -0.0136 -0.0084
15144W        W35424   6.885  15.963  12.201 -0.0128 -0.1313 -0.1296
15145W        W35425   5.224   6.557  14.492  0.0795  0.2419 -0.0111
15146W        W35426   8.483   0.715   3.537  0.3696 -0.0179 -0.3537
15147W        W35427   8.033   0.129   4.149 -0.0009  0.1309 -0.1175
15148W        W35428   2.068   0.228   2.273 -0.0388 -0.0327 -0.0581
15149W        W35429   1.579   1.257  14.638 -0.2012 -0.1458 -0.1118
15150W        W35430   2.268  16.753  14.418  0.0964 -0.2857 -0.1653
15151W        W35431  16.220  10.979   4.241  0.1390  0.3035 -0.0164
15152W        W35432  13.733  15.702  15.084  0.1040 -0.3168  0.0973
15153W        W35433  15.241   8.460   3.492  0.3184  0.0628 -0.2416
15154W        W35434   6.231  12.975  15.866 -0.1240 -0.2154  0.1703
15155W        W35435  15.350  11.308   1.384 -0.0224 -0.1047 -0.0990
15156W        W35436  12.547   1.423   3.913 -0.0720 -0.3789 -0.1261
15157W        W35437   7.488  13.705  13.675 -0.3950 -0.0029 -0.1283
15158W        W35438  14.178   4.763   4.189  0.0371 -0.0404  0.2238
15159W        W35439   0.937  16.842  13.096 -0.2180  0.0946 -0.0912
15160W        W35440  15.156   9.448  16.129 -0.2882  0.1427 -0.1513
15161W        W35441   0.625  13.677  16.293 -0.2106  0.0385  0.1532
15162W        W35442  16.114   5.541   4.270 -0.1335 -0.1683  0.1829
15163W        W35443   0.730  11.438  16.654  0.2307  0.1608 -0.0119
15164W        W35444  13.939  14.244  15.689  0.0756  0.0648 -0.3847
15165W        W35445  12.576  17.704   0.626  0.0108  0.0693 -0.0203
15166W        W35446   5.715  13.887   2.881  0.3481  0.1135 -0.2420
15167W        W35447  13.980   3.848   2.701 -0.1266 -0.1183  0.1810
15168W        W35448   8.351  12.903   3.421 -0.0927 -0.0616  0.0942
15169W        W35449   8.480   0.155  13.567  0.2570 -0.0774  0.1799
15170W        W35450  17.676  13.437  14.058 -0.2811 -0.1815 -0.1520
15171W        W35451  16.486   9.587   3.177 -0.0596  0.1032  0.0260
15172W        W35452   0.001   6.362   4.035  0.2080  0.0093  0.1611
15173W        W35453   0.174   2.998  12.391 -0.1075 -0.1556  0.1866
15174W        W35454  13.683  12.396  15.270  0.0513 -0.0502 -0.0413
15175W        W35455   0.236   5.667   0.102  0.2369  0.0156  0.1032
15176W        W35456  12.808  12.093  15.525  0.3265  0.0799  0.0193
15177W        W35457   7.002   8.281   1.293 -0.0354 -0.5068 -0.0510
15178W        W35458   8.884   3.919   4.508 -0.3891 -0.2249 -0.0518
15179W        W35459   8.745   0.738   5.855  0.1566 -0.3856  0.1797
15180W        W35460   9.366   1.737   4.589 -0.1231  0.0528  0.1325
15181W        W35461   5.655   0.609   2.474 -0.0028 -0.4012  0.1015
15182W        W35462  12.871   9.162  16.769 -0.2505  0.1661  0.1554
15183W        W35463   6.492   0.183   2.726  0.0469 -0.0719  0.2378
15184W        W35464   7.547  14.693   4.972  0.0118  0.1608  0.0865
15185W        W35465   2.276  17.123   3.007 -0.1878  0.0110  0.4572
15186W        W35466   8.134  15.506   1.415  0.1682  0.3992 -0.0698
15187W        W35467   0.334   5.171   3.350  0.0061 -0.3764  0.1974
15188W        W35468   4.688   0.720   3.929  0.2812 -0.0181  0.2221
15189W        W35469   2.902  16.018   4.004 -0.1677 -0.1518  0.2271
15190W        W35470   2.712  15.451   3.902 -0.2406  0.1316  0.3800
15191W        W35471   5.050  12.958  13.891  0.2934 -0.0391 -0.3017
15192W        W35472   3.035   5.618  13.260 -0.1183 -0.1265  0.1079
15193W        W35473  13.225  17.588   4.725 -0.1091 -0.3312  0.1408
15194W        W35474  11.598   6.488   3.303 -0.3241  0.0043  0.2306
15195W        W35475  10.224   0.140   0.536  0.2074 -0.0707 -0.1373
15196W        W35476  14.512   4.977   2.944  0.1051 -0.0021 -0.1328
15197W        W35477  11.607  10.418   2.394 -0.2642 -0.1713  0.0267
15198W        W35478  16.664   2.347   1.248 -0.1648  0.0425  0.1034
15199W        W35479   1.939  11.892  14.635 -0.0156  0.0782  0.1437
15200W        W35480  16.989  17.141  17.012  0.3408  0.1291 -0.0406
15201W        W35481   9.654  17.058  12.743 -0.2704 -0.1022  0.3022
15202W        W35482   6.993   4.449  16.370  0.0086  0.0790 -0.0800
15203W        W35483  10.725  13.596  12.039 -0.0700  0.0667 -0.0014
15204W        W35484   5.329  15.625   0.095  0.1391 -0.0016 -0.0090
15205W        W35485  13.086  12.542  16.408 -0.1004  0.0080 -0.5224
15206W        W35486   6.401   4.449   4.769 -0.0980 -0.1449 -0.2721
15207W        W35487   2.131  17.468   2.314  0.0025  0.0036 -0.1030
15208W        W35488  15.949  13.523   1.664  0.1280  0.2916  0.0290
15209W        W35489   4.966  14.140  16.452 -0.2405 -0.4810  0.1256
15210W        W35490   4.843   7.459  13.511 -0.1592 -0.0109  0.0429
15211W        W35491   9.522  13.684  15.482  0.1392  0.4354 -0.1770
15212W        W35492   2.614  10.209   3.823  0.1444 -0.0832 -0.0645
15213W        W35493  12.494   8.045   3.619  0.0149 -0.0257  0.4097
15214W        W35494  15.076   2.841   3.698 -0.0353 -0.3434  0.1959
15215W        W35495  14.381   2.738  13.742  0.0687 -0.2200 -0.3091
15216W        W35496  14.810  12.346  15.670  0.0912  0.0243 -0.1714
15217W        W35497  17.496   9.149   0.134  0.2696  0.3122 -0.3141
15218W        W35498   4.703   1.445  12.508 -0.1870 -0.1773  0.3328
15219W        W35499   5.293   4.054  15.614  0.1624 -0.1586  0.1036
15220W        W35500   2.446  11.720   1.850  0.0766 -0.0092  0.1279
15221W        W35501  17.345  13.767  13.783 -0.3110 -0.0881 -0.0722
15222W        W35502   1.572  12.801  15.504 -0.3304  0.0744 -0.2104
15223W        W35503  12.363   7.373   1.837 -0.0943 -0.2029 -0.5028
15224W        W35504   8.693  10.700   0.380  0.1785  0.1901  0.0366
15225W        W35505   5.244   3.225  15.015 -0.1385 -0.1315 -0.2992
15226W        W35506   9.228  12.654  12.705  0.2581  0.0330  0.0483
15227W        W35507  16.391   8.434   1.818  0.1437  0.0765  0.2397
15228W        W35508  15.725   4.778   1.738  0.2967  0.2664 -0.3246
15229W        W35509  17.705  13.648  14.509  0.3244 -0.1312  0.0473
15230W        W35510   9.368  16.271  13.259  0.2222  0.0721 -0.3000
15231W        W35511   0.839  11.832  16.182  0.0324 -0.1051  0.0990
15232W        W35512   8.482  16.059   4.848 -0.1978 -0.1741 -0.1401
15233W        W35513   3.530   1.374   0.771 -0.2295  0.0514 -0.0362
15234W        W35514  11.503   9.974  13.179  0.0746 -0.4332  0.1145
15235W        W35515  15.464   1.226  14.071 -0.1478  0.0700 -0.1818
15236W        W35516   4.290   8.504  16.939 -0.0103  0.0863 -0.0832
15237W        W35517   8.741  16.307   2.787 -0.1157  0.1683  0.0125
15238W        W35518  10.570  16.348   2.618 -0.0817 -0.1640 -0.0894
15239W        W35519   0.545   0.818   3.025 -0.1906  0.0399 -0.0910
15240W        W35520   9.038   6.790   0.180 -0.1172 -0.0036 -0.1350
15241W        W35521  15.761  16.103   2.311  0.0133  0.4284 -0.1241
15242W        W35522   5.409  15.783   4.168  0.0671  0.3263  0.1133
15243W        W35523   8.693  13.741  13.222  0.0584 -0.1106 -0.1204
15244W        W35524   7.719   3.812  12.692  0.0930 -0.2510 -0.2250
15245W        W35525   9.560   6.108  12.134 -0.0565 -0.1690 -0.2121
15246W        W35526   5.169   3.499   1.344 -0.1138 -0.2307 -0.0262
15247W        W35527  12.151   6.736   1.832 -0.0830 -0.2046 -0.0306
15248W        W35528   2.568  16.223   5.116  0.1423  0.2403  0.1474
15249W        W35529   5.222   8.902  14.507 -0.0432 -0.0943 -0.0260
15250W        W35530   4.996  13.398  15.991  0.1952 -0.0399  0.1546
15251W        W35531   1.092   5.630   3.332  0.0677 -0.3948 -0.0376
15252W        W35532   0.407   9.463  12.796  0.0334 -0.0588  0.1742
15253W        W35533  13.565   1.253   4.344  0.1815  0.1556 -0.3182
15254W        W35534   0.752   8.766  14.669  0.1315  0.0361  0.1075
15255W        W35535  10.592  16.612   3.055  0.1582 -0.2763 -0.0060
15256W        W35536   6.860   9.333   2.056  0.1334 -0.1021 -0.1969
15257W        W35537  12.968   7.649  16.496 -0.4688  0.0665  0.3195
15258W        W35538  15.595   3.827  15.025  0.3245  0.1843  0.1483
15259W        W35539   5.706   3.390   2.818 -0.0641  0.1646 -0.0088
15260W        W35540  16.003   7.848   1.071  0.2667  0.1963 -0.2946
15261W        W35541   3.653  15.069   2.952 -0.2738 -0.0732  0.4523
15262W        W35542   4.455   8.509   3.498 -0.0638 -0.0453 -0.1638
15263W        W35543  14.510   1.358   4.195 -0.0069  0.0634 -0.0866
15264W        W35544   1.457   4.842  16.109  0.1237  0.0904  0.0161
15265W        W35545  10.455   9.140  15.048 -0.1920  0.0664  0.1055
15266W        W35546  12.725   6.304  13.602 -0.0079  0.0556  0.1445
15267W        W35547   3.720   4.459   1.304 -0.1752 -0.0711 -0.1222
15268W        W35548   7.072  16.099   2.105  0.0235  0.1719 -0.0247
15269W        W35549  12.571   5.572  15.311  0.0908 -0.2694 -0.0752
15270W        W35550  10.114  16.587  15.282  0.2733  0.1744  0.1679
15271W        W35551  12.454  12.550   2.320  0.0225 -0.0306  0.1997
15272W        W35552  16.559  10.969   1.894  0.1000 -0.0364 -0.0338
15273W        W35553  15.228   2.354  14.139  0.1489 -0.0521  0.2103
15274W        W35554  14.205  15.223  12.932  0.1235 -0.0013 -0.3516
15275W        W35555   9.122  11.134  15.362  0.0501  0.0053 -0.0709
15276W        W35556   3.245  11.011   5.080  0.0651  0.0458  0.0280
15277W        W35557   6.147  10.104   4.343  0.2219  0.1569  0.1896
15278W        W35558  17.726  10.467   2.967 -0.2042  0.2794  0.0537
15279W        W35559   2.963  14.449   0.320  0.2322  0.1140 -0.3273
15280W        W35560   3.932   2.511  16.952  0.0525  0.2144 -0.0408
15281W        W35561   3.455   9.919  13.672  0.0194 -0.2178  0.1145
15282W        W35562  14.569  15.648   1.758  0.3697 -0.0220 -0.0203
15283W        W35563   5.302   4.521   1.960  0.0584  0.1729 -0.3593
15284W        W35564  15.899  10.154   4.408  0.1638 -0.0148 -0.1406
15285W        W35565   9.504   0.097  16.350  0.0750 -0.1734  0.1476
15286W        W35566   0.736  12.138  14.670  0.0604  0.0177 -0.2395
15287W        W35567   5.653  13.494   4.930 -0.3030 -0.1640  0.0992
15288W        W35568  14.266  12.996   3.643  0.0947 -0.0765  0.0654
15289W        W35569  11.788  16.257   3.954  0.2645 -0.3251  0.0323
15290W        W35570  13.388  11.409   0.251  0.1833  0.0214  0.1355
15291W        W35571   2.152  15.543   2.161  0.0318 -0.2424  0.0281
15292W        W35572  14.573   3.233   2.623 -0.0615  0.0478  0.1157
15293W        W35573   4.977  15.956   1.351 -0.0100 -0.2008 -0.1451
15294W        W35574   9.202   5.200   1.852  0.0503 -0.2366  0.1509
15295W        W35575  12.567   3.083  12.569  0.1425 -0.0101 -0.1900
15296W        W35576   9.157  13.546   0.116 -0.4475  0.0049 -0.0635
15297W        W35577  12.428   4.152   1.257 -0.2350  0.3414  0.0407
15298W        W35578   0.953   6.345   2.095  0.1045 -0.1515  0.1535
15299W        W35579   7.653  10.551  15.619 -0.1502  0.1843  0.2095
15300W        W35580  11.335  12.640  13.106  0.2053 -0.2779  0.2086
15301W        W35581  17.567  17.391   2.386 -0.1038  0.1927 -0.0742
15302W        W35582  16.955  16.422  16.243 -0.0092  0.0978 -0.0638
15303W        W35583  15.563   5.873   1.016 -0.0485  0.2241  0.0604
15304W        W35584   6.858   0.116   3.450  0.1016  0.0234 -0.0031
15305W        W35585   4.009  10.682   2.668 -0.0731  0.1011  0.1739
15306W        W35586   0.548  12.498   2.773 -0.1362  0.3178  0.2758
15307W        W35587  10.588   1.371  11.679 -0.0448 -0.1230 -0.2296
15308W        W35588   1.879  15.724   1.648  0.0011 -0.4188 -0.4652
15309W        W35589  11.048  15.814  12.222 -0.1086 -0.2535 -0.2038
15310W        W35590   4.702  13.648   1.602 -0.1843 -0.1931 -0.1725
15311W        W35591   8.097   2.300   2.551 -0.0632  0.1340 -0.0572
15312W        W35592   5.781   7.082   5.608  0.0462  0.3096 -0.1076
15313W        W35593  10.995   9.239   3.018 -0.2483  0.1659 -0.2932
15314W        W35594  12.514  11.391  15.816  0.0570 -0.0678  0.0720
15315W        W35595   4.101   6.623   0.725 -0.2984  0.0546 -0.1364
15316W        W35596  15.297  10.152   3.571 -0.1544  0.0610  0.2045
15317W        W35597   4.772  14.821   4.718  0.0136 -0.1468 -0.0598
15318W        W35598  10.913   4.105  15.810  0.1036  0.1334 -0.2094
15319W        W35599   2.424   4.743   4.311  0.0647 -0.2683  0.1623
15320W        W35600   6.229  15.504   2.255  0.3748  0.0750  0.3617
15321W        W35601  15.934  11.999   4.434  0.0299 -0.2359 -0.4073
15322W        W35602  11.343  15.320  14.563 -0.0482 -0.1333 -0.2083
15323W        W35603  14.701  13.824   0.666  0.0925 -0.0406  0.1762
15324W        W35604  12.715  10.962   4.662  0.0338 -0.2347  0.0407
15325W        W35605  13.702  13.691  15.708  0.0516  0.2326 -0.0261
15326W        W35606   3.344   0.666   2.782 -0.1074 -0.1416 -0.0308
15327W        W35607   5.316  16.748   1.791 -0.1070 -0.0214  0.2807
15328W        W35608   8.122  11.964   2.739 -0.2083  0.3801  0.3538
15329W        W35609   7.820  15.084   5.766  0.2755 -0.1484  0.0857
15330W        W35610   9.918   5.435  12.099  0.0651  0.3274 -0.0492
15331W        W35611  16.602  10.323   0.246 -0.1452 -0.6595  0.1640
15332W        W35612   3.241   5.189   1.610 -0.0157  0.0471 -0.1108
15333W        W35613   0.703   6.254  14.941 -0.2984  0.2128 -0.4359
15334W        W35614  17.094   8.867  14.791 -0.0673  0.1054 -0.0934
15335W        W35615   6.213   4.641   2.248  0.0375 -0.1173 -0.0212
15336W        W35616  16.263   3.183   1.406 -0.1014  0.1809  0.0988
15337W        W35617   2.312   5.879  13.462  0.1355  0.0425 -0.0019
15338W        W35618  10.133  11.443  12.342 -0.2852  0.1098 -0.1705
15339W        W35619  10.318  14.865   3.462  0.1469  0.0641  0.1689
15340W        W35620  14.879  17.201   1.049 -0.1035 -0.0422  0.0534
15341W        W35621   4.872  13.613  14.519 -0.0244  0.1454 -0.1813
15342W        W35622   4.430  15.145   4.770 -0.4443 -0.0632 -0.1707
15343W        W35623   9.307   5.401  12.594  0.0425  0.1933 -0.1367
15344W        W35624  12.192  10.901   2.024  0.1778 -0.0736  0.2149
15345W        W35625  12.580  12.838  16.599 -0.0612  0.3775 -0.2588
15346W        W35626   1.771  14.731  16.103 -0.0486  0.2353 -0.3596
15347W        W35627   0.342   6.396  16.046 -0.1017 -0.0510  0.0324
15348W        W35628  16.155   9.425  15.521  0.0930 -0.3779  0.0905
15349W        W35629  14.222  13.471   2.362 -0.0760 -0.1652 -0.1789
15350W        W35630   7.301   9.351  16.009  0.1819 -0.0360 -0.1725
15351W        W35631  15.296  11.049  12.129  0.3134 -0.0669 -0.1486
15352W        W35632   9.520   9.236   4.665  0.1195 -0.0790 -0.3280
15353W        W35633   2.145   7.386  12.842 -0.1419 -0.0930  0.0466
15354W        W35634   9.023   3.246   2.807 -0.0951  0.0184 -0.2039
15355W        W35635   9.932   2.383  15.615 -0.0691  0.2782  0.1589
15356W        W35636   1.455  10.677   1.638 -0.2506  0.2020  0.0044
15357W        W35637   6.853   2.333   0.110 -0.1947 -0.0519  0.1653
15358W        W35638  16.506  13.949  12.685  0.1097 -0.0141  0.5270
15359W        W35639  15.730   4.479   2.597  0.1266  0.1398  0.2417
15360W        W35640  15.731  17.111   1.628 -0.0108 -0.1263 -0.1306
15361W        W35641   1.663   9.915   2.673  0.1321 -0.1743  0.0758
15362W        W35642  17.211  16.335  15.035  0.0405 -0.1026 -0.1028
15363W        W35643  11.884   5.006  14.906 -0.0088  0.2124 -0.2641
15364W        W35644   8.954   3.182   0.590 -0.0277  0.3418  0.0431
15365W        W35645  14.101   7.852  13.475 -0.2617 -0.0465  0.0619
15366W        W35646  15.796   3.067   2.813  0.1512 -0.2335  0.1924
15367W        W35647   9.785  16.798  13.536  0.0255 -0.1349 -0.0566
15368W        W35648  10.244   8.158  15.418  0.2022  0.2219 -0.1965
15369W        W35649   0.461   1.930   0.251 -0.1657 -0.1271 -0.1689
15370W        W35650  13.339   9.161   1.678  0.1088 -0.3846  0.0577
15371W        W35651  13.013  17.449   2.377 -0.0388 -0.2092 -0.1604
15372W        W35652   6.862  11.320  16.302  0.2748  0.1176 -0.5502
15373W        W35653  11.789  17.624   2.790  0.1668  0.1370  0.0141
15374W        W35654  17.126   4.824   4.611 -0.0384 -0.1964  0.2174
15375W        W35655   9.419   6.742  12.374 -0.1450 -0.3309 -0.0712
15376W        W35656  15.645   5.480  16.269  0.4062  0.0338 -0.2097
15377W        W35657   9.255   9.159  16.308  0.2167  0.1250 -0.2917
15378W        W35658   6.555  16.556  13.095  0.3010 -0.0449  0.0863
15379W        W35659  13.619   7.231   4.013  0.0065  0.0078 -0.2169
15380W        W35660   6.877  11.019  16.753 -0.2023  0.1393 -0.0748
15381W        W35661   0.543   3.576   2.966  0.4146  0.0439 -0.1114
15382W        W35662   2.414  15.882   3.967  0.2057 -0.2775 -0.4062
15383W        W35663   4.493   9.466   4.158 -0.0232 -0.0116  0.2582
15384W        W35664  15.970   2.073  15.538  0.3058  0.1352  0.4049
15385W        W35665  13.473  16.765  12.747 -0.0554  0.0021  0.1842
15386W        W35666   3.363   1.453  16.935 -0.0311 -0.2966 -0.0186
15387W        W35667   2.876  14.776   3.328 -0.2729  0.5028  0.1733
15388W        W35668   1.099   9.972   1.585 -0.3139  0.2646  0.0620
15389W        W35669  12.141   0.442  13.910 -0.1237 -0.0253 -0.2358
15390W        W35670  11.337   9.385  14.704 -0.0142  0.1597 -0.0119
15391W        W35671  14.731   6.925  12.272  0.2395 -0.0100 -0.0875
15392W        W35672   5.752  12.487   2.776  0.1338 -0.3726 -0.0312
15393W        W35673  11.485   2.079   4.688 -0.0894  0.0121  0.0108
15394W        W35674  17.106  10.036  13.675  0.1037 -0.0483 -0.0081
15395W        W35675  10.970   6.729  16.799  0.3191 -0.2261  0.0200
15396W        W35676  12.257   1.278  16.934  0.2028 -0.3630 -0.0769
15397W        W35677   3.408  16.923   5.009 -0.1886 -0.3662 -0.0068
15398W        W35678   5.420  16.922   1.235 -0.3174  0.1751  0.0325
15399W        W35679   0.116   0.009  16.159 -0.0457 -0.0625  0.0438
15400W        W35680   6.860   7.992  15.095 -0.0034 -0.2240 -0.0100
15401W        W35681   8.201   3.482   3.401  0.0611 -0.4988  0.0790
15402W        W35682  17.321  17.666   4.895 -0.2664 -0.3384 -0.3882
15403W        W35683   8.354   9.744   0.259 -0.2431 -0.1477 -0.4701
15404W        W35684   0.336  11.018  15.080  0.1121  0.0699  0.2193
15405W        W35685   2.610   3.437   3.545 -0.1017  0.1924  0.0104
15406W        W35686  14.347   0.087  15.537 -0.1082 -0.0475  0.4341
15407W        W35687   1.325   6.570   1.747  0.0688 -0.2497  0.1501
15408W        W35688  16.594   7.392   4.954 -0.0828 -0.0176 -0.3734
15409W        W35689   6.206   5.764  13.821 -0.3911 -0.0146 -0.1289
15410W        W35690  16.934   3.507   1.581  0.0615 -0.0398  0.1127
15411W        W35691  13.612  15.207   1.363  0.0123  0.0456 -0.0870
15412W        W35692   2.632  11.659  15.778 -0.1707  0.1350 -0.0100
15413W        W35693  14.660  17.409   2.144  0.2452  0.1108  0.0726
15414W        W35694  15.622  10.995   0.104 -0.1006  0.1341 -0.1384
15415W        W35695  12.531  14.242   4.296 -0.0611 -0.1382  0.0524
15416W        W35696  17.247   8.066   1.886  0.0980  0.0069 -0.0924
15417W        W35697  10.920   9.415   4.561  0.0255  0.1228 -0.2224
15418W        W35698   4.712   3.556  14.553  0.2754 -0.1240  0.0974
15419W        W35699   9.131   4.127   2.529 -0.1057  0.3392 -0.0388
15420W        W35700   1.989   5.564  14.248  0.2048 -0.2117  0.0248
15421W        W35701   2.663   7.135   1.435 -0.0664  0.1960 -0.4399
15422W        W35702   3.886  16.359  14.770 -0.1015  0.0976 -0.0617
15423W        W35703   6.548   3.402  15.180 -0.0883 -0.0271  0.1605
15424W        W35704   7.768  11.590  14.033 -0.0063  0.1097  0.3193
15425W        W35705  10.107  15.405   4.580  0.2989 -0.3128 -0.0494
15426W        W35706  17.151   3.388   4.386 -0.1053 -0.1987 -0.1222
15427W        W35707  10.992  15.031  11.909  0.1089 -0.1220 -0.1319
15428W        W35708   7.027   0.187  13.751  0.0063 -0.2767 -0.0074
15429W        W35709   1.401  17.394   3.109 -0.2101  0.2185  0.2205
15430W        W35710  13.316  13.725  14.589 -0.2573  0.2681  0.2296
15431W        W35711   2.970   0.155   4.038 -0.1206 -0.1274  0.1154
15432W        W35712   7.405  13.230   0.202  0.0784  0.0722 -0.0218
15433W        W35713   0.097   0.668  12.412  0.2186  0.0384  0.0392
15434W        W35714   3.306   6.542   4.652  0.0348  0.0285 -0.2707
15435W        W35715  11.046  12.102  16.078  0.0992 -0.0282  0.0372
15436W        W35716   8.918   2.627   1.387 -0.1956  0.2459  0.2548
15437W        W35717   8.645   4.231   0.409 -0.0426  0.0909 -0.1031
15438W        W35718   2.675  17.388   2.961 -0.1562 -0.0543  0.0854
15439W        W35719  13.772  13.125   1.188  0.0453 -0.1081 -0.1886
15440W        W35720  16.410  11.384  15.109 -0.2603 -0.2056 -0.3690
15441W        W35721  11.619   4.892   3.102 -0.2916  0.1822 -0.0745
15442W        W35722  14.500   2.668  13.213 -0.1080  0.1143 -0.1700
15443W        W35723   7.296  14.848  14.380 -0.2395 -0.1161  0.0318
15444W        W35724  12.318  17.729   3.688 -0.0180  0.0079 -0.4065
15445W        W35725  17.009   9.634   2.051 -0.1875  0.3304  0.2547
15446W        W35726   0.980  13.426   4.725  0.1028  0.2683  0.3459
15447W        W35727   9.237   0.202  15.954  0.0414  0.2778 -0.0400
15448W        W35728   7.927  15.843   1.668 -0.2078 -0.2222  0.1099
15449W        W35729   7.620   9.121   4.322 -0.0649 -0.2108  0.1122
15450W        W35730   8.002   8.507  16.891 -0.0936  0.0478  0.1540
15451W        W35731  13.760   8.392   1.265 -0.1054 -0.0152  0.2560
15452W        W35732   9.825   7.020  16.319 -0.1785  0.1511 -0.3672
15453W        W35733   4.052  16.292   0.028  0.0985  0.1300  0.1299
15454W        W35734  14.369   4.351   4.358 -0.0284 -0.0666 -0.1778
15455W        W35735   0.306  10.664   4.188 -0.0130 -0.1007 -0.0274
15456W        W35736  14.148   1.883   1.943 -0.0400 -0.1803 -0.3010
15457W        W35737  10.567  16.966  13.476  0.3376  0.0546 -0.1680
15458W        W35738   0.470  14.148   3.654 -0.0409 -0.2673 -0.0392
15459W        W35739   0.444  13.766  14.731 -0.0920 -0.0091 -0.0203
15460W        W35740   0.105  16.667   1.459  0.0415 -0.0455 -0.0303
15461W        W35741   3.318   1.306  13.987  0.2076 -0.0696 -0.1336
15462W        W35742   4.373   1.181   2.611  0.0410  0.0438 -0.0911
15463W        W35743   8.710  13.290   0.264  0.1394 -0.0371 -0.2458
15464W        W35744   2.505  13.830  13.919  0.0171 -0.1976 -0.0754
15465W        W35745   2.916   7.123  12.495 -0.0603 -0.1258  0.2036
15466W        W35746  12.286  11.578   0.958  0.0888 -0.1245 -0.2554
15467W        W35747   6.258   9.135  15.064  0.0262 -0.2412 -0.0197
15468W        W35748   0.062   0.415  16.549  0.2178  0.2964 -0.0964
15469W        W35749   8.331  16.020  14.877 -0.3303 -0.0420  0.1497
15470W        W35750   1.112  16.280   3.637 -0.0842  0.0538 -0.3186
15471W        W35751  16.291   8.843   5.323  0.3772  0.0932 -0.0631
15472W        W35752   5.366  14.738   0.585 -0.0427 -0.3035 -0.0144
15473W        W35753   2.639  10.127  16.663 -0.1583 -0.0318 -0.0927
15474W        W35754   7.350  11.233   4.194 -0.1023 -0.1081  0.0545
15475W        W35755   0.717   5.914   4.892 -0.1237  0.1209 -0.0503
15476W        W35756  13.513   5.740   1.616 -0.0718 -0.0703 -0.2322
15477W        W35757  15.766  12.982  13.560  0.0137 -0.3121  0.1388
15478W        W35758  15.308   4.142   4.445  0.0149 -0.1520  0.3004
15479W        W35759   8.508  11.301  12.676  0.0987  0.0811 -0.3331
15480W        W35760   1.887  13.569   1.813 -0.0495 -0.3536 -0.1044
15481W        W35761  16.952  11.007  13.429 -0.0916  0.2147 -0.2628
15482W        W35762  13.355   7.925   3.007  0.1830  0.0619  0.2432
15483W        W35763  12.326  14.453   2.803 -0.0401 -0.0735  0.1046
15484W        W35764  10.812   3.788  13.037  0.0644  0.1022 -0.0667
15485W        W35765   6.947  14.266   5.563  0.1524 -0.0485 -0.2596
15486W        W35766  17.249  16.127   1.417 -0.1970  0.0994  0.1336
15487W        W35767  10.516   1.295  14.476  0.1813 -0.0182 -0.2720
15488W        W35768   5.081   1.912  15.605  0.2252 -0.2053  0.1435
15489W        W35769   3.627   8.820   3.750 -0.1465 -0.1256  0.0131
15490W        W35770   1.899   5.310   2.268  0.2710 -0.2704 -0.2795
15491W        W35771   6.621  10.110  11.850 -0.0419 -0.0552  0.0544
15492W        W35772  12.446   5.621  16.652 -0.2731 -0.0888 -0.1324
15493W        W35773   3.535  15.946   1.998  0.2346  0.1566 -0.0763
15494W        W35774  13.980  10.989   3.001 -0.0855  0.0545 -0.2009
15495W        W35775  14.374   0.866  15.071  0.0415  0.1259 -0.2177
15496W        W35776  10.263   9.609  14.771 -0.1632  0.2138 -0.2082
15497W        W35777  17.144  10.656   0.280 -0.2833 -0.1989 -0.2098
15498W        W35778   2.826   7.489   4.574  0.0118  0.3966  0.1721
15499W        W35779  13.385   3.378   1.117  0.0221 -0.2046 -0.0999
15500W        W35780   1.466   0.173   3.120 -0.0711  0.0599 -0.1346
15501W        W35781  15.766   9.265  12.701 -0.1653  0.1648  0.2147
15502W        W35782  17.587  11.498  13.950  0.0795  0.0640  0.1056
15503W        W35783  13.575   7.937  13.465 -0.0264 -0.0065 -0.1190
15504W        W35784   2.702   2.204  12.403 -0.0469 -0.1815  0.0707
15505W        W35785   1.535   1.000  13.655 -0.2630 -0.0920  0.0185
15506W        W35786   2.291  12.900   2.792 -0.2326  0.0845  0.1580
15507W        W35787  14.975  16.718  14.721  0.0224  0.1306 -0.1789
15508W        W35788  15.767   6.428   0.747  0.1661  0.3464 -0.4314
15509W        W35789   4.638  10.939  16.285 -0.0324  0.0493  0.3723
15510W        W35790  10.129   3.440   4.042  0.3463 -0.1359  0.0744
15511W        W35791   5.903  13.652  14.859  0.0203  0.0194 -0.2212
15512W        W35792  13.750  14.526  14.350  0.1036  0.0765  0.1107
15513W        W35793   1.644   8.496  12.062  0.2348 -0.1141 -0.1701
15514W        W35794   3.322  15.063  13.480  0.2154  0.2063 -0.2354
15515W        W35795  14.359  11.786   1.101  0.1293  0.1255 -0.1633
15516W        W35796  17.315  11.711   4.571 -0.1422  0.0763  0.0817
15517W        W35797   1.893   6.587   0.023 -0.0994  0.2324  0.4861
15518W        W35798   1.432  15.996  16.537 -0.0429  0.0360 -0.1795
15519W        W35799   5.754  13.189  14.903  0.0772  0.0038 -0.0407
15520W        W35800   6.836   1.451   3.525  0.0614 -0.0421 -0.1430
15521W        W35801   7.175  12.233  13.157 -0.1499  0.4037  0.2017
15522W        W35802   0.457  14.357   0.793 -0.2249  0.0955  0.0859
15523W        W35803   6.417  11.382   3.574 -0.2149 -0.1771  0.1182
15524W        W35804  15.411  11.884  15.991 -0.0097  0.1460  0.1468
15525W        W35805  13.932   3.148  15.016  0.2145  0.1930 -0.1921
15526W        W35806  14.244   4.621   2.709  0.1243  0.2605 -0.1907
15527W        W35807  16.848  12.199   4.189  0.1273  0.1503 -0.0283
15528W        W35808   4.626   3.523   3.164 -0.0327 -0.1960  0.0282
15529W        W35809   9.256   4.472   4.577  0.2423  0.0382  0.0390
15530W        W35810  13.380  16.727   3.361 -0.0297  0.1283  0.1601
15531W        W35811   9.391  10.361   4.158 -0.0617  0.0327  0.0184
15532W        W35812   7.960   6.612   4.426 -0.0126 -0.4233  0.0181
15533W        W35813  14.432   5.273   3.850 -0.0482 -0.0541  0.2259
15534W        W35814  17.194  14.113  12.722 -0.2159  0.1410  0.4139
15535W        W35815  16.115   8.852  16.554  0.1608 -0.0093  0.1836
15536W        W35816  17.529  16.096  15.965 -0.1617  0.2571  0.1132
15537W        W35817  11.531  11.549  12.527 -0.0410 -0.0442 -0.1980
15538W        W35818  13.694   9.479  12.103  0.0401 -0.2542  0.1761
15539W        W35819  15.044   7.924  13.375 -0.0234 -0.1315  0.1095
15540W        W35820  13.471   1.822  15.953 -0.0060  0.0006 -0.3131
15541W        W35821  17.369   8.913  15.215 -0.1604  0.2445 -0.1850
15542W        W35822   6.274  17.539   4.886 -0.3069 -0.0374 -0.2318
15543W        W35823  15.430   9.254  16.495  0.2277  0.0413 -0.1408
15544W        W35824   5.673  13.377  16.704  0.0299 -0.2743 -0.1744
15545W        W35825   5.291  15.594   4.706  0.2517  0.0237 -0.1550
15546W        W35826   4.600   0.932   4.484 -0.1918 -0.2234  0.0475
15547W        W35827   7.121   9.308  14.587  0.2012 -0.0512  0.0427
15548W        W35828  15.321   3.902  15.460  0.1123  0.0087  0.2480
15549W        W35829  17.466   8.845  12.990 -0.0589 -0.2267  0.2440
15550W        W35830  13.128   1.052   5.047  0.0530 -0.0782 -0.0991
15551W        W35831   0.816   9.790  13.107  0.0844  0.1928  0.1701
15552W        W35832   2.282  14.162  15.706  0.2648 -0.2523 -0.4021
15553W        W35833   9.248   2.041   0.442 -0.3698  0.0445 -0.0013
15554W        W35834  11.933  14.799   4.315 -0.2672  0.1229  0.4478
15555W        W35835  15.703   2.124   4.090  0.1279  0.1106 -0.0930
15556W        W35836   1.216   1.314  15.493  0.0156  0.1015  0.0901
15557W        W35837   5.027   5.291   4.830  0.0396 -0.2498  0.1893
15558W        W35838  15.389  15.633   2.836  0.0855 -0.0135  0.0306
15559W        W35839   8.418  10.402   1.963  0.1906  0.0689 -0.0830
15560W        W35840   9.378   1.841   0.925 -0.0900  0.0312  0.1661
15561W        W35841   7.430   5.689   3.562 -0.2532  0.0216 -0.1322
15562W        W35842   1.215  10.644  12.929 -0.0251 -0.0215  0.1429
15563W        W35843   2.193   7.842  15.043 -0.2691  0.1092  0.2195
15564W        W35844   0.047  10.771  16.211  0.1102 -0.0354  0.1222
15565W        W35845   6.358   6.111   0.339  0.3022  0.1343  0.1894
15566W        W35846   9.923   5.703  15.571  0.1637  0.3694  0.1066
15567W        W35847   8.646   8.613   3.671 -0.0062 -0.0172 -0.1803
15568W        W35848  13.246   9.672  15.821  0.0390  0.2755  0.3492
15569W        W35849  10.116   5.453  16.017 -0.0301 -0.0795 -0.3525
15570W        W35850   1.407   2.230  15.218  0.1353 -0.2348 -0.2878
15571W        W35851  12.120   4.632   0.594 -0.0879  0.0494  0.1284
15572W        W35852  10.520  11.962  13.527 -0.3440  0.0327  0.3451
15573W        W35853  13.364   4.391  12.961  0.0433 -0.0255  0.1037
15574W        W35854  13.958  14.476   0.491 -0.1824  0.2352  0.2558
15575W        W35855   8.077  12.057  12.336  0.0573 -0.4390  0.0274
15576W        W35856   9.538  11.896   0.574  0.1208 -0.1207 -0.0447
15577W        W35857  12.211   5.788   4.039  0.0280  0.0394  0.0676
15578W        W35858   9.808   9.009  14.293  0.1378 -0.1503  0.1647
15579W        W35859   1.085  10.880   4.811 -0.1041 -0.1736  0.0995
15580W        W35860   5.508   3.674   4.736  0.0293  0.0281 -0.2293
15581W        W35861   4.228   7.390   1.923 -0.1096 -0.0637 -0.0996
15582W        W35862   9.021  11.250  12.329 -0.3322 -0.0087  0.0142
15583W        W35863   3.595   8.647   0.408  0.0660  0.1930  0.0107
15584W        W35864   2.339  13.208   4.077 -0.0267 -0.1046 -0.0163
15585W        W35865  12.940  14.932   1.145 -0.2819  0.2405 -0.2723
15586W        W35866  15.400  10.406  14.976 -0.2265 -0.1274  0.0217
15587W        W35867   4.172   5.331   4.681  0.1712  0.1946 -0.5182
15588W        W35868  14.293   8.570  13.311 -0.1953 -0.0494  0.0898
15589W        W35869  15.268  15.982  14.321 -0.2272  0.3280 -0.1445
15590W        W35870   0.418  13.301  16.006 -0.0218 -0.1531 -0.0184
15591W        W35871  13.443  17.333   3.288 -0.0326 -0.1947 -0.2215
15592W        W35872  14.037  14.966  13.440 -0.1126  0.1310 -0.0774
15593W        W35873   0.986   6.853   2.961 -0.0548  0.0379 -0.3193
15594W        W35874  14.145   3.297   2.834 -0.2377 -0.0339  0.0751
15595W        W35875   2.910   0.664  14.431  0.1696  0.1818 -0.3303
15596W        W35876   1.970   8.577  13.279  0.0669  0.0381  0.0856
15597W        W35877  17.596   1.989  14.146  0.0393  0.1549 -0.0754
15598W        W35878   0.164  11.851   2.250 -0.0678 -0.0181  0.0714
15599W        W35879   1.543   4.830   3.272  0.0627  0.0520 -0.0565
15600W        W35880   5.503   2.440   1.663 -0.3153 -0.0320 -0.1104
15601W        W35881   3.719  13.208  14.248 -0.0111 -0.1226 -0.0015
15602W        W35882   5.985  13.073   2.219  0.2088 -0.2077 -0.1650
15603W        W35883   7.006   0.423  16.818  0.0782  0.2255  0.0659
15604W        W35884   2.545  16.303  16.619 -0.1412  0.0133  0.1652
15605W        W35885  14.551  16.647  16.013 -0.2272 -0.1154  0.1999
15606W        W35886   4.213  11.120  16.544  0.3742 -0.3365  0.1131
15607W        W35887   0.638  16.359   4.777 -0.1762  0.1965 -0.1110
15608W        W35888  16.963   9.792   3.177  0.0976  0.0797  0.0888
15609W        W35889  10.046  16.616   3.172  0.0439  0.1171 -0.0778
15610W        W35890   2.276   5.878  14.542  0.0810  0.1023  0.2772
15611W        W35891   9.063  15.492  16.727 -0.4240 -0.2006 -0.1172
15612W        W35892   8.690  14.211   1.611  0.2695 -0.0571 -0.0450
15613W        W35893  13.998   0.860   2.227  0.1688 -0.0003  0.2445
15614W        W35894  14.746  16.241  13.798 -0.0560  0.0228  0.0062
15615W        W35895  11.924  10.961  15.239  0.1395 -0.1963  0.2488
15616W        W35896   8.915  10.216   2.835  0.1630  0.0698  0.1868
15617W        W35897  10.678  17.549   1.950  0.2263 -0.1712  0.0782
15618W        W35898  15.932   8.521   5.188  0.0747 -0.2767  0.1826
15619W        W35899  14.158   8.309  14.196  0.0979 -0.1520 -0.2801
15620W        W35900   8.796   4.242  16.501  0.2150  0.2788 -0.3598
15621W        W35901   8.668  15.399  12.519 -0.5599 -0.1927  0.1245
15622W        W35902   3.135  11.835   4.865  0.1030  0.2478 -0.0363
15623W        W35903   4.281   9.348  13.744  0.0742 -0.2103  0.1775
15624W        W35904  17.048  15.810   2.232  0.0006  0.0894  0.2813
15625W        W35905   4.602   9.751   2.149 -0.0354 -0.0037 -0.1467
15626W        W35906  10.882  16.333   0.798 -0.0228  0.2032  0.0171
15627W        W35907   9.721   5.208  15.748  0.0663  0.1573  0.1275
15628W        W35908  13.115  16.527  12.419 -0.2219 -0.0463  0.0717
15629W        W35909   6.175  17.011  12.425 -0.0809  0.0782 -0.0875
15630W        W35910   9.478  12.282  12.505  0.0429  0.0044  0.0012
15631W        W35911   3.033   3.108  15.856 -0.0148  0.1089  0.1384
15632W        W35912  11.845   7.751   0.295 -0.0574 -0.2320 -0.0057
15633W        W35913  13.181   1.828  15.554  0.0729 -0.2960  0.1886
15634W        W35914  13.469  13.455  13.968  0.2127 -0.1503  0.2589
15635W        W35915   1.131  13.821   3.945 -0.2826 -0.0438  0.1560
15636W        W35916  10.456  15.547  14.798  0.0704 -0.2654  0.1658
15637W        W35917  16.346   3.718   2.577 -0.0852  0.0136 -0.0644
15638W        W35918  10.527   9.764  15.656 -0.2131  0.2251 -0.0334
15639W        W35919  14.129  11.991  15.269 -0.1074  0.0074  0.0401
15640W        W35920   8.480   2.549  12.569 -0.1035 -0.0123 -0.0698
15641W        W35921  11.375   8.640   4.246 -0.2279  0.2822 -0.3325
15642W        W35922  10.029   2.602  14.615  0.3894 -0.0032  0.0443
15643W        W35923   7.732   3.973   4.240 -0.0499 -0.4587  0.1788
15644W        W35924  16.677   7.276   3.372  0.2677  0.2227 -0.0829
15645W        W35925   7.517   8.094   4.648 -0.1668  0.1638  0.0759
15646W        W35926  17.565  10.946   4.324 -0.1664 -0.3107  0.3642
15647W        W35927  16.060  13.646   4.959 -0.3171 -0.0648  0.0094
15648W        W35928  16.274   5.962   1.385 -0.4393  0.1317 -0.2019
15649W        W35929  12.264   8.702  14.404 -0.3777 -0.0116  0.0309
15650W        W35930   5.227  12.423  16.042 -0.0566  0.0707  0.0030
15651W        W35931  13.408  17.427   1.918  0.1115  0.1385 -0.0405
15652W        W35932   1.360  15.272   2.090 -0.0233 -0.0076 -0.1109
15653W        W35933   6.964  10.660   1.969 -0.1900 -0.3241  0.1038
15654W        W35934  15.135   7.105   2.520 -0.0695 -0.1748  0.0577
15655W        W35935  14.639  15.241  12.670 -0.0290  0.1258 -0.2112
15656W        W35936   4.458  14.054  16.196 -0.0856  0.1999  0.0038
15657W        W35937   7.975  14.405  14.802  0.2781 -0.0412  0.2219
15658W        W35938  11.688   0.814  15.286 -0.0100  0.0817 -0.1663
15659W        W35939  12.203  10.377  14.474  0.1825 -0.1173 -0.0156
15660W        W35940   2.743   1.842   0.633 -0.1615 -0.1713 -0.1891
15661W        W35941   2.739  12.837   1.609 -0.1041  0.1222 -0.1872
15662W        W35942   4.557  13.032  13.002 -0.0888  0.0933  0.1161
15663W        W35943   2.889  10.086  14.863  0.1816 -0.0846 -0.0909
15664W        W35944   8.013   8.270   3.860  0.0525 -0.2877 -0.1085
15665W        W35945   0.623   7.190  12.931 -0.1164 -0.1129 -0.0130
15666W        W35946   2.677   3.664  14.234 -0.1231 -0.0540  0.1903
15667W        W35947   1.806  16.092   0.967  0.0746 -0.0143  0.4256
15668W        W35948   5.397   7.849   1.474  0.0780  0.2730 -0.3294
15669W        W35949   9.086  13.845  12.209  0.4061  0.3310 -0.3053
15670W        W35950   2.373   3.176   4.102  0.1559  0.3444 -0.2361
15671W        W35951  17.706   1.383  13.122  0.0663 -0.3226  0.2566
15672W        W35952   0.424  14.841   1.741  0.0085  0.2677  0.1415
15673W        W35953   4.994  14.973   4.287  0.0962 -0.0452  0.1332
15674W        W35954  11.892   1.989   2.040  0.3782  0.0413  0.1207
15675W        W35955   9.348   5.951  12.788  0.1309 -0.1633  0.0784
15676W        W35956  10.374  10.532   2.567  0.0468  0.1719  0.2512
15677W        W35957  12.509  10.299  14.036 -0.0611 -0.2565 -0.0577
15678W        W35958  16.029   9.758   2.226 -0.0363 -0.2567  0.0607
15679W        W35959  11.356   0.536   4.384 -0.2015 -0.1337  0.2791
15680W        W35960   3.797   0.238  13.899 -0.2486  0.1864  0.0159
15681W        W35961   1.348   0.290   2.202 -0.0469  0.1866  0.0535
15682W        W35962   4.005   9.801  16.902 -0.0082 -0.1629 -0.0234
15683W        W35963   1.752   6.971  16.678  0.0571 -0.0530 -0.0366
15684W        W35964   5.421  13.792   0.434  0.2241 -0.1969  0.1618
15685W        W35965   0.305   4.799   4.357  0.2609  0.1626 -0.0067
15686W        W35966   2.944   6.642   4.219 -0.1500  0.2847  0.2414
15687W        W35967   6.978  15.260  15.764  0.1604 -0.2553 -0.0913
15688W        W35968  15.825  17.622   1.627 -0.0234  0.1925 -0.5094
15689W        W35969   6.579  11.506  12.574  0.0516  0.1422 -0.2498
15690W        W35970   3.772  14.063   4.262  0.1191  0.0303 -0.2706
15691W        W35971   4.216   0.094   1.128 -0.0820  0.0312 -0.0099
15692W        W35972  11.012  17.139  13.208 -0.2225  0.0753  0.2222
15693W        W35973   9.679   4.735  16.305  0.1274  0.1211 -0.3066
15694W        W35974   6.550  15.725   3.595  0.0043  0.0762 -0.1313
15695W        W35975  13.401   1.325  16.386  0.0508 -0.1822  0.2607
15696W        W35976   0.861   7.326   1.437  0.1285 -0.2340  0.0310
15697W        W35977   1.044  16.687  16.828 -0.1435 -0.1866 -0.1001
15698W        W35978  10.598  10.642   3.613  0.2159  0.2199  0.0594
15699W        W35979  13.838   4.775   2.936  0.2303 -0.0472 -0.1064
15700W        W35980  11.823   8.913  15.357 -0.0129  0.1421  0.1184
15701W        W35981   2.856   2.925  14.949  0.4451  0.0349 -0.1152
15702W        W35982  13.121  15.909   3.649  0.0765 -0.2169 -0.1399
15703W        W35983  14.398   3.407   3.860 -0.2145 -0.1849 -0.2738
15704W        W35984  14.210   9.501  15.612  0.2420  0.0737  0.4952
15705W        W35985   1.250  15.528  12.754  0.0454 -0.0356  0.0757
15706W        W35986  12.920  17.557  14.545 -0.0007  0.2440  0.1727
15707W        W35987  15.002   8.947  16.540 -0.2323  0.0547 -0.2318
15708W        W35988   0.522   8.754   0.396  0.0516  0.0870 -0.1548
15709W        W35989   0.096   0.591  15.095 -0.0589 -0.2147 -0.0746
15710W        W35990   4.915  15.963   0.655 -0.0301 -0.1926  0.1513
15711W        W35991   3.474  14.537   4.216 -0.4339  0.1824 -0.2179
15712W        W35992  14.028   7.639   4.450  0.0221 -0.0804 -0.1854
15713W        W35993   5.612   0.531   3.802  0.0999  0.0290  0.1481
15714W        W35994   7.055   8.353   4.489 -0.1131  0.0558  0.0988
15715W        W35995  12.780   3.067   0.253  0.0774 -0.1153  0.1460
15716W        W35996  13.188  12.574   2.933 -0.1036 -0.1277  0.2983
15717W        W35997   4.857  17.221  14.505 -0.2574  0.0153 -0.0062
15718W        W35998  14.363  15.479   3.648  0.2604 -0.2169  0.0799
15719W        W35999  14.698   5.259  13.964 -0.0374 -0.1955  0.1131
15720W        W36000   6.083   3.279   5.335  0.0120  0.1663  0.0623
15721W        W36001  17.052  16.191   0.198  0.1644 -0.0217  0.0717
15722W        W36002   3.149   3.247   5.287  0.2731  0.2303 -0.3336
15723W        W36003  14.743  10.185  15.797  0.0208  0.1534  0.1224
15724W        W36004   3.141   1.693   3.047  0.0630  0.0159 -0.0576
15725W        W36005  17.376  12.500   2.575  0.0130 -0.1392 -0.1382
15726W        W36006   4.353  11.791  12.333  0.0878  0.2821 -0.0697
15727W        W36007   9.685  16.267   3.341 -0.0935  0.0279  0.0619
15728W        W36008  14.217  17.180  12.482 -0.4884  0.0594  0.3460
15729W        W36009   7.893   6.739  12.249 -0.0314 -0.0633  0.0592
15730W        W36010  15.417   4.636   2.200 -0.1478  0.2570  0.1991
15731W        W36011  13.682  14.019  14.360  0.3714 -0.0195 -0.0210
15732W        W36012  15.462   7.578  12.418  0.0588 -0.2792 -0.1323
15733W        W36013   7.060  12.994   0.488 -0.3507  0.2247 -0.0626
15734W        W36014   9.569   3.860  16.391  0.1965 -0.1352  0.3692
15735W        W36015   9.986  11.991   2.786  0.1734 -0.0864 -0.2451
15736W        W36016   3.645  11.860   2.525 -0.2516 -0.1448  0.0052
15737W        W36017  14.322   5.932   4.447 -0.1187 -0.0965  0.1421
15738W        W36018  16.440   9.766  15.750 -0.1455 -0.3818  0.2244
15739W        W36019   8.076  13.560   2.266  0.0297 -0.1867  0.1121
15740W        W36020  12.350  16.115   4.064  0.0197  0.1924  0.1723
15741W        W36021  14.442  16.203   2.939  0.1224  0.0993 -0.0827
15742W        W36022   0.514   4.276   0.718  0.3954  0.1718  0.2902
15743W        W36023  10.292  13.600  15.610 -0.1619 -0.1577 -0.1205
15744W        W36024   7.941   7.248   2.697  0.1940 -0.1524 -0.2412
15745W        W36025   7.732  15.407  14.306 -0.0394  0.0201 -0.1926
15746W        W36026  11.531  12.163   0.044 -0.2653  0.1260 -0.0006
15747W        W36027  16.593   5.012   2.512 -0.0320 -0.2246  0.2746
15748W        W36028   3.918  12.938  13.719  0.0391 -0.1168 -0.0102
15749W        W36029   3.433  11.475  14.617  0.2552 -0.2808 -0.3423
15750W        W36030  15.562   3.359  15.053  0.2096  0.1948 -0.0086
15751W        W36031   3.653   2.601   3.454  0.0086 -0.0429  0.3144
15752W        W36032  10.536  10.075   3.340  0.0367 -0.2394 -0.0285
15753W        W36033   4.271   5.532  15.057 -0.0767 -0.2336 -0.0542
15754W        W36034   5.504  12.130   1.631 -0.0327 -0.2171  0.3467
15755W        W36035   1.141  10.365   2.839  0.0471 -0.0118 -0.1317
15756W        W36036   2.114   5.039   6.061 -0.3270  0.1729  0.2639
15757W        W36037   2.259   3.774  15.904 -0.1375  0.3226  0.1270
15758W        W36038   6.532  16.851   1.164  0.0196 -0.1114  0.1833
15759W        W36039   8.616   8.429   0.479  0.0834  0.0143 -0.0626
15760W        W36040  13.694   9.679  15.512 -0.1716  0.0942 -0.0502
15761W        W36041   5.869   6.578  13.558  0.1524 -0.3519  0.1392
15762W        W36042   4.226   1.149   1.568 -0.1541 -0.2076 -0.1538
15763W        W36043   5.835   4.885   2.106  0.2581 -0.1396  0.2439
15764W        W36044   6.725  13.953   1.661 -0.2562  0.2026 -0.3223
15765W        W36045  11.097   9.283   3.521 -0.1253  0.0266  0.0280
15766W        W36046   1.402  16.698  14.790 -0.1751 -0.2709  0.1171
15767W        W36047   6.683   6.916  13.925 -0.1178  0.0756  0.1561
15768W        W36048  12.058   7.621  12.663 -0.1885 -0.1535  0.2619
15769W        W36049   4.134   6.997  13.327 -0.0366 -0.0684  0.0434
15770W        W36050  11.085   2.822   4.158 -0.0716 -0.0955 -0.1356
15771W        W36051  14.156  11.935   0.635 -0.4964  0.1313  0.1279
15772W        W36052   9.460  13.645  13.477  0.4019  0.1262  0.0836
15773W        W36053   6.188   9.614   4.596  0.0122  0.1582  0.2277
15774W        W36054  12.799   8.833  13.881 -0.0179 -0.0044 -0.1910
15775W        W36055   3.749  15.804   1.130 -0.0372 -0.1030 -0.0949
15776W        W36056  16.031  16.733   1.795  0.5013 -0.1077 -0.0326
15777W        W36057  13.820   6.007  15.316 -0.2864 -0.2776 -0.0065
15778W        W36058  16.503  13.336   2.214  0.0181 -0.2217 -0.1539
15779W        W36059   1.426  16.619   0.129  0.0162  0.0996  0.3649
15780W        W36060   0.045  15.786   3.217 -0.0410 -0.1954  0.0278
15781W        W36061   0.102  13.182  14.732  0.3614  0.1805 -0.0644
15782W        W36062  13.382  13.224   4.261 -0.2667 -0.2852 -0.1841
15783W        W36063  16.611  10.950   4.549  0.0766  0.0730  0.0685
15784W        W36064   6.199  11.590   2.670  0.0719 -0.1277  0.0009
15785W        W36065  15.624  15.641   2.378  0.0297 -0.1376 -0.0046
15786W        W36066  10.566   4.597   3.041 -0.3013  0.0407  0.0281
15787W        W36067   5.647   1.722  12.411 -0.0489  0.1021 -0.0262
15788W        W36068  15.341   0.898  14.811  0.0511  0.1564 -0.1420
15789W        W36069   6.607  13.841   2.427 -0.3027  0.3033  0.0338
15790W        W36070   7.098   5.244  13.704 -0.1511 -0.2791  0.2666
15791W        W36071   2.844  12.279  14.668 -0.2105  0.1004 -0.2506
15792W        W36072  11.436  17.409   2.333 -0.1190  0.2217 -0.2572
15793W        W36073  12.697  11.574  16.379 -0.0669 -0.1688  0.1234
15794W        W36074   9.383  15.573   2.404  0.0623 -0.1160 -0.0759
15795W        W36075  12.668  10.864   2.250  0.0097  0.1086 -0.0594
15796W        W36076  16.450   0.350   2.455 -0.3743 -0.2407  0.2882
15797W        W36077   0.251  12.161   1.442  0.2051 -0.0426  0.0460
15798W        W36078  16.367  10.161   4.212 -0.1136  0.0070 -0.2005
15799W        W36079  13.120  10.293   3.806 -0.1132 -0.2328  0.0774
15800W        W36080   5.371  16.733  13.203 -0.0353 -0.0892  0.1408
15801W        W36081   5.132  16.357   3.573 -0.1018 -0.0670 -0.3006
15802W        W36082   5.471  11.302  15.512 -0.1806 -0.2094  0.0692
15803W        W36083   6.648   8.633  15.671  0.2314  0.0314 -0.2926
15804W        W36084  10.460  12.867  16.788 -0.0407  0.3478  0.2274
15805W        W36085   4.225  14.241   3.673  0.0609 -0.1445  0.1048
15806W        W36086  12.821  16.500   1.823  0.2544  0.3960  0.0490
15807W        W36087   9.418   9.080  14.800 -0.1217  0.1190  0.1665
15808W        W36088  11.672  10.374  14.428 -0.0755  0.1553  0.1262
15809W        W36089   9.629   1.531   4.981 -0.2613  0.0828 -0.1753
15810W        W36090  12.855  15.498   1.877  0.4469  0.1351 -0.1873
15811W        W36091   8.277  13.449   1.250 -0.1654  0.3464  0.0059
15812W        W36092   5.852  14.968   1.491  0.1112  0.1841  0.1432
15813W        W36093   1.139   5.028   4.494 -0.1489  0.3064 -0.1983
15814W        W36094  14.703   3.837   3.742  0.5215  0.1077  0.4290
15815W        W36095   1.233   9.475  13.255  0.0742  0.0825 -0.0926
15816W        W36096  17.142   7.296  14.654 -0.0485 -0.0712  0.0115
15817W        W36097   8.742   4.080   2.229  0.0522  0.1663 -0.2551
15818W        W36098  16.405   8.032   3.674 -0.2398  0.0229 -0.1111
15819W        W36099   4.668   1.973  15.359 -0.0986  0.0931 -0.0162
15820W        W36100   4.453  15.120   3.263  0.0849  0.0242 -0.1933
15821W        W36101   6.668  10.872   1.180 -0.1909 -0.3323 -0.0986
15822W        W36102   0.726   2.762   1.657 -0.0905  0.2383 -0.2290
15823W        W36103   6.748  10.031  16.784 -0.1675  0.1981 -0.4091
15824W        W36104   1.123  12.880   3.955 -0.2821  0.1809 -0.2061
15825W        W36105   3.204   2.245  14.470 -0.1561 -0.0512 -0.1804
15826W        W36106   3.368   9.755  15.539 -0.1586  0.2056 -0.2542
15827W        W36107   7.574   1.819  13.048 -0.0756  0.1873  0.5168
15828W        W36108  15.296   2.020   0.747 -0.0290  0.0683  0.0604
15829W        W36109   5.970  14.142   3.804  0.0031 -0.1987 -0.2236
15830W        W36110   7.466   6.962   3.152 -0.2235  0.0867 -0.3231
15831W        W36111   7.589   5.339   2.181 -0.2480  0.0451 -0.1123
15832W        W36112  16.776   8.187  15.458 -0.0993  0.1073 -0.0064
15833W        W36113  11.190   4.262   3.680 -0.0397 -0.0267 -0.1850
15834W        W36114  11.352  10.348  15.800 -0.0409 -0.0050  0.1419
15835W        W36115   6.609   1.900  12.661  0.2285  0.2693 -0.0628
15836W        W36116   5.232   1.805   1.233 -0.0815 -0.1867  0.1841
15837W        W36117   5.988   4.789  13.777  0.2048 -0.1582 -0.0779
15838W        W36118  15.618  15.092   1.723  0.1276 -0.3125 -0.0212
15839W        W36119  12.289   9.113   2.723  0.1000  0.0940  0.1472
15840W        W36120   4.295   8.834  12.515 -0.1084 -0.2603  0.2546
15841W        W36121   1.796  15.248   0.361  0.0437  0.1542 -0.2876
15842W        W36122   2.842   9.358   4.969  0.1450 -0.1034  0.0163
15843W        W36123  15.112   5.576   4.138 -0.1829  0.1440 -0.0066
15844W        W36124   4.106  15.409   4.029 -0.0001  0.2078 -0.0396
15845W        W36125   1.970  12.646  16.988 -0.1889  0.0574 -0.1341
15846W        W36126   7.414   2.450   2.809  0.0098 -0.1302 -0.0009
15847W        W36127  12.321   8.387   4.536 -0.1529 -0.0531 -0.3304
15848W        W36128  17.021  12.901  15.772  0.2997 -0.2210  0.0111
15849W        W36129  11.980   4.815  14.378 -0.0400  0.1744  0.0299
15850W        W36130   7.030   5.356   4.757  0.0121  0.2838  0.0363
15851W        W36131  13.999  12.933  12.775  0.1345  0.0570  0.1492
15852W        W36132   8.650  17.386  14.383  0.1968 -0.3213 -0.1593
15853W        W36133   4.365  12.731  16.370 -0.1493  0.0638 -0.2725
15854W        W36134   6.319   7.628   1.278 -0.4102  0.1353 -0.1494
15855W        W36135  12.129   4.764  16.276 -0.0356 -0.0984  0.0907
15856W        W36136   7.454  10.885   4.980 -0.3312  0.0297 -0.1023
15857W        W36137   1.361   6.830  16.168 -0.1194  0.1699  0.0393
15858W        W36138   7.096   7.990   3.637 -0.1186  0.0007  0.0334
15859W        W36139   9.677   5.129   3.356 -0.1292  0.0266 -0.0036
15860W        W36140   2.828  10.168   2.320  0.0702  0.1350  0.1084
15861W        W36141  14.867  16.260   2.626  0.3137 -0.2067 -0.1293
15862W        W36142   0.782   1.540  15.586 -0.0762 -0.2204  0.1044
15863W        W36143   1.275   5.222  12.675 -0.2599 -0.2068  0.1280
15864W        W36144  11.472   0.240   3.569 -0.0304 -0.1221  0.2013
15865W        W36145  10.446   0.904   5.075  0.2168 -0.5513  0.1005
15866W        W36146   9.738   0.315   1.832  0.2926 -0.0326 -0.2810
15867W        W36147   3.819  10.865  14.907  0.3675  0.1656  0.3215
15868W        W36148   7.535  13.047  14.782  0.0296  0.3348  0.1525
15869W        W36149  13.379  14.919  15.607 -0.0035 -0.1015 -0.1289
15870W        W36150  11.898   3.512   1.810 -0.0100 -0.0019 -0.0994
15871W        W36151   7.363  14.133   2.111 -0.2898  0.0451 -0.1688
15872W        W36152  10.279   1.447  12.419  0.0514 -0.0893  0.1118
15873W        W36153   5.083  10.685  16.082  0.2486 -0.2131 -0.1435
15874W        W36154  16.556  13.294  15.061 -0.2408 -0.0795  0.1352
15875W        W36155  15.042   3.583  15.800  0.2944  0.1319 -0.2160
15876W        W36156   3.289   0.447   2.308 -0.0768 -0.3028 -0.1661
15877W        W36157  12.431  15.883   4.511 -0.2030 -0.4352 -0.0708
15878W        W36158  17.445   4.182   2.901  0.1677  0.2907 -0.1285
15879W        W36159   9.230  14.476  15.722  0.0007 -0.1965 -0.2030
15880W        W36160  12.484   9.409   2.384  0.0845  0.0718 -0.2521
15881W        W36161   8.236   9.449   2.958 -0.0865 -0.2005  0.0742
15882W        W36162  12.888  17.334  12.490 -0.3439 -0.1385 -0.0713
15883W        W36163   0.390   8.499  12.891 -0.2187  0.2506  0.1210
15884W        W36164  13.568  15.726   0.288 -0.0739 -0.1236 -0.3086
15885W        W36165   0.498  15.151  13.787 -0.0237  0.1239 -0.0999
15886W        W36166   6.701   9.857   2.412  0.4456 -0.2468 -0.1085
15887W        W36167  12.010  15.965  12.571  0.3018 -0.0112 -0.1375
15888W        W36168   6.292   8.299  15.785  0.0052  0.1088 -0.0001
15889W        W36169   6.569   2.183   1.687 -0.0313  0.1263  0.0059
15890W        W36170  11.572   1.678   1.841  0.2006  0.0836 -0.1928
15891W        W36171   7.540   3.737  11.682  0.1071  0.1503 -0.1054
15892W        W36172   8.413   3.615   3.968 -0.3650 -0.0727 -0.1386
15893W        W36173  13.869   8.189  13.138 -0.0722 -0.0226 -0.0200
15894W        W36174   1.679   7.526   2.951 -0.1055 -0.1437  0.3134
15895W        W36175   2.345  15.407  14.251 -0.2494  0.3278  0.0592
15896W        W36176   9.756  15.839   2.765 -0.0923  0.0658 -0.2399
15897W        W36177  16.475  11.968   0.000 -0.1426  0.3367 -0.0360
15898W        W36178   7.325  13.352  14.463 -0.0211 -0.0920 -0.1897
15899W        W36179   2.471   6.165   4.971 -0.0561 -0.1924  0.0903
15900W        W36180  10.720  10.494  14.826  0.2731 -0.1568  0.2514
15901W        W36181  12.606   4.634   4.361 -0.0444  0.1723  0.0436
15902W        W36182   5.686   9.649   3.682 -0.1903  0.2561  0.1853
15903W        W36183   9.562   3.119   3.496  0.0664  0.0360  0.2165
15904W        W36184   3.433  17.334  15.200  0.2425 -0.3693 -0.0032
15905W        W36185   6.642  13.415  16.776 -0.1688  0.1939 -0.0228
15906W        W36186   6.144  15.144   3.304 -0.0704  0.2800 -0.1548
15907W        W36187  11.966   5.392  12.487  0.0916 -0.0769 -0.1109
15908W        W36188  12.823   5.158  15.238  0.0876  0.0358  0.1976
15909W        W36189   5.207  17.061   0.443  0.0780  0.3884 -0.1159
15910W        W36190   8.760  17.211  15.815  0.0175 -0.0569  0.1439
15911W        W36191  11.957  15.394  13.121 -0.4817  0.0057 -0.0959
15912W        W36192   7.463   7.136   4.090 -0.1471  0.0990  0.0633
15913W        W36193  14.000   8.695  12.322 -0.2898  0.1836  0.2507
15914W        W36194   8.672   3.634  15.985  0.1099  0.1346 -0.0761
15915W        W36195  14.650  12.174   2.263 -0.0348  0.0255  0.0046
15916W        W36196  15.530   7.110   4.134 -0.0405  0.3160 -0.1667
15917W        W36197   8.938   8.779  11.695 -0.0605  0.0169  0.0902
15918W        W36198  10.249   8.505   3.137 -0.0873 -0.1768  0.1962
15919W        W36199   6.211   3.054   2.245 -0.0874  0.0951 -0.1078
15920W        W36200   8.965  16.940   1.606 -0.0103  0.2622  0.0216
15921W        W36201   7.942  14.570   1.353  0.3294 -0.1550  0.2738
15922W        W36202   4.797   7.787   0.669  0.0866  0.1232  0.0453
15923W        W36203  17.585  11.065  15.044  0.2004  0.0477 -0.0705
15924W        W36204   6.843   2.622  15.520  0.0986  0.1923  0.1639
15925W        W36205   8.350   7.146   5.651  0.0610  0.1336  0.0607
15926W        W36206   3.039   9.050  17.001 -0.0723 -0.2421  0.1582
15927W        W36207   4.333   2.445  16.035  0.0958  0.2118 -0.1293
15928W        W36208   9.216   8.283  16.283  0.3114  0.0010  0.2399
15929W        W36209   2.622  14.594   3.728  0.1298 -0.1694 -0.1194
15930W        W36210   3.364  13.256   4.279  0.0458  0.1050  0.1158
15931W        W36211  13.723   6.619  16.554  0.0896 -0.0122  0.0397
15932W        W36212   3.157  13.716  14.383  0.0192  0.2253 -0.2704
15933W        W36213   8.718   6.974  13.344 -0.1075 -0.0838 -0.1511
15934W        W36214   5.963  15.995  12.258 -0.0094  0.0731  0.1770
15935W        W36215  15.065   8.995   0.740 -0.3802  0.0364 -0.1313
15936W        W36216  10.658  14.084  16.420 -0.4458  0.1782 -0.0188
15937W        W36217  12.800   4.365  16.132 -0.0358 -0.0616 -0.0809
15938W        W36218  14.263   0.924   2.829  0.0562  0.2228 -0.0452
15939W        W36219   1.684   8.500   2.665 -0.0726  0.0365 -0.0877
15940W        W36220  16.497  10.416  13.815 -0.3296 -0.0473  0.2797
15941W        W36221  13.033  16.016   3.086  0.3343  0.3159 -0.1284
15942W        W36222  13.718  12.974  14.524  0.1480 -0.1939 -0.0836
15943W        W36223   8.180  15.684  12.061 -0.1387 -0.0276 -0.0642
15944W        W36224   4.054  16.143   2.060 -0.0785  0.3214  0.0997
15945W        W36225  15.645   0.824  13.529 -0.0500 -0.1752  0.0078
15946W        W36226   4.797   4.863   3.643 -0.0441  0.3606  0.4566
15947W        W36227   0.951   5.493   4.683 -0.2092  0.1019 -0.1961
15948W        W36228   6.399  14.550   2.144 -0.0030 -0.1497  0.3142
15949W        W36229  15.102   3.034   2.584  0.0539  0.2002  0.2459
15950W        W36230   5.209   9.662  12.824  0.2951 -0.0779  0.0879
15951W        W36231   8.340   0.629   2.994 -0.1361 -0.1714 -0.3988
15952W        W36232   5.580   3.859   2.984 -0.0810  0.2358  0.0457
15953W        W36233   3.244   6.461  15.191 -0.0172 -0.1093  0.2277
15954W        W36234  14.378   1.048  12.495  0.1735 -0.1306  0.2899
15955W        W36235  15.112   1.985   0.237 -0.0599 -0.1812 -0.0431
15956W        W36236  11.674   2.126   0.735  0.0088  0.1212 -0.0021
15957W        W36237   5.044  14.158   2.224  0.0487  0.2708  0.1274
15958W        W36238   8.849   1.868   4.774 -0.0949  0.0804  0.2096
15959W        W36239   3.981   4.142  16.449  0.2115 -0.1613 -0.0117
15960W        W36240   9.389   5.921   2.641 -0.0292  0.2508  0.3296
15961W        W36241   6.665   3.279   0.696 -0.2659 -0.3098 -0.1462
15962W        W36242   5.359   3.120  13.538 -0.2880  0.0818  0.0810
15963W        W36243   6.398   8.862   2.426  0.0521  0.1663  0.0563
15964W        W36244   2.280   0.441  14.151 -0.1861 -0.1021 -0.1906
15965W        W36245   6.598   9.149  14.501 -0.4542 -0.0255  0.0344
15966W        W36246  13.348   4.169  11.902  0.2425 -0.0117  0.0194
15967W        W36247  13.634   0.600   0.020 -0.1639  0.2060 -0.1466
15968W        W36248   3.792   9.385  15.912  0.2333 -0.2075  0.2108
15969W        W36249  13.152  15.199  13.212  0.0163 -0.2137 -0.1706
15970W        W36250   1.443   3.857   4.189  0.1031 -0.1935 -0.1341
15971W        W36251  15.288   0.953   2.038  0.0015 -0.1242 -0.1731
15972W        W36252   5.647  14.329   4.654  0.1302  0.2199  0.3525
15973W        W36253   1.064   7.381   2.059 -0.2112 -0.2942  0.2486
15974W        W36254   0.137   4.761   0.459 -0.2980 -0.0883  0.0892
15975W        W36255  13.930  12.605   3.349  0.1509  0.2456  0.2320
15976W        W36256  17.584  14.729  15.793 -0.3757  0.0752  0.0454
15977W        W36257   2.881   0.152   1.812  0.0691  0.1792  0.1423
15978W        W36258  16.862   8.056   0.659 -0.2269 -0.0396  0.1122
15979W        W36259   6.196  11.038  12.587  0.1548 -0.0246  0.1759
15980W        W36260  14.983   2.561   3.113  0.0924 -0.0910 -0.0319
15981W        W36261  15.543  10.212  14.522 -0.0809 -0.0506 -0.1991
15982W        W36262   5.107   8.600   0.313  0.0561 -0.0738 -0.3826
15983W        W36263   8.797   4.696  15.605  0.0198  0.2068 -0.0806
15984W        W36264   3.287   3.757  12.749 -0.2241  0.0000 -0.2076
15985W        W36265  13.369   3.117   1.615 -0.0313 -0.1897  0.0564
15986W        W36266   1.964   7.826  14.569 -0.0526  0.3431 -0.2432
15987W        W36267   7.145  12.543   4.754 -0.0798  0.3330  0.2296
15988W        W36268   0.431   0.177   4.249  0.1929 -0.0512 -0.0920
15989W        W36269  11.167   2.614  14.456 -0.0838 -0.2746 -0.0912
15990W        W36270   6.674   5.914   2.737 -0.3000  0.0794 -0.0497
15991W        W36271  16.117  13.171   3.087 -0.2833 -0.0649 -0.0735
15992W        W36272   2.356  10.993   3.520 -0.0077 -0.0932  0.0080
15993W        W36273  12.830  13.766  12.538  0.1765  0.0678  0.2581
15994W        W36274  10.893   4.999  12.803  0.0382  0.0591 -0.0618
15995W        W36275   5.450  10.951  15.061  0.2226 -0.0293  0.4126
15996W        W36276   3.386   8.179  15.387 -0.0305 -0.1078 -0.2378
15997W        W36277   7.756  13.057   5.471 -0.1919  0.1156 -0.1092
15998W        W36278   5.648  11.174   2.033 -0.0617 -0.3043  0.0288
15999W        W36279   0.135  13.870   3.919 -0.0283 -0.1608 -0.1450
16000W        W36280   1.683  14.627   1.155 -0.0980 -0.0235 -0.0243
16001W        W36281  12.276  10.025   0.471 -0.1437 -0.0655  0.0424
16002W        W36282   3.102   1.235  12.519  0.2129 -0.0303 -0.0041
16003W        W36283  10.551  15.032  14.917  0.0826  0.0267 -0.5010
16004W        W36284  17.616  16.661   4.205 -0.1851  0.2190 -0.1219
16005W        W36285   0.879  13.066  15.892 -0.0977 -0.0262  0.1310
16006W        W36286  14.989   6.544   1.090 -0.3356 -0.3306 -0.1648
16007W        W36287  12.803  15.183   4.664  0.1714 -0.1982  0.1366
16008W        W36288  15.608  10.223  13.843  0.0993 -0.1188  0.0028
16009W        W36289  11.854  10.067   3.604 -0.0050 -0.0747  0.0807
16010W        W36290  14.946  11.687   1.264 -0.1699  0.3369 -0.0289
16011W        W36291   6.559   9.268   1.704  0.3248  0.0486  0.3424
16012W        W36292   8.620   3.457   3.033 -0.0091  0.1710  0.3477
16013W        W36293   7.882  16.161  12.100 -0.2867  0.2487 -0.0113
16014W        W36294  14.521  12.886   3.073 -0.2238 -0.0689  0.0704
16015W        W36295   6.833   4.902  12.878 -0.1098  0.2560  0.0623
16016W        W36296   3.293   9.705   4.904 -0.0641 -0.4316  0.0860
16017W        W36297   1.528   7.799   0.642 -0.2527 -0.0717  0.2755
16018W        W36298   3.824   1.183   1.822  0.2930 -0.2392 -0.2170
16019W        W36299   9.574  10.013  13.817  0.0395  0.0190 -0.0815
16020W        W36300  11.740  13.093   1.538  0.1639 -0.2648 -0.0640
16021W        W36301   5.610   1.027   0.991 -0.1299 -0.0786 -0.0269
16022W        W36302   3.933  10.544   0.466 -0.0923 -0.0079 -0.2142
16023W        W36303  14.220   3.525   1.474  0.0687 -0.2788 -0.1562
16024W        W36304   9.106   1.774  13.026  0.0223  0.2987  0.1912
16025W        W36305  17.444  13.322  16.742 -0.0715 -0.0075 -0.0338
16026W        W36306   8.729  17.686   0.011  0.1962 -0.0117 -0.0115
16027W        W36307  15.650  10.497   1.673  0.1281  0.0930 -0.1922
16028W        W36308   4.932   7.565  16.000  0.0151  0.0233  0.2267
16029W        W36309   2.043   7.823   1.201 -0.0510 -0.0458 -0.0134
16030W        W36310  15.506   9.847   4.421  0.1192 -0.0558  0.5418
16031W        W36311  17.435   1.283   4.106 -0.2010 -0.1814 -0.1700
16032W        W36312   4.843   6.040  12.815 -0.1245  0.0459 -0.2935
16033W        W36313   2.480  10.379   2.636  0.1196 -0.0417 -0.1140
16034W        W36314   8.528   4.308  12.983  0.1548  0.3307 -0.0363
16035W        W36315   0.926  17.551  15.602 -0.1737  0.0617 -0.1422
16036W        W36316   7.983  16.584  13.866  0.0606 -0.3110  0.2633
16037W        W36317   8.203  10.340   3.267  0.0243 -0.0128 -0.0061
16038W        W36318   0.604   8.773  12.228  0.1766  0.0714 -0.1465
16039W        W36319   8.948   7.225   2.453 -0.0747 -0.2096  0.0470
16040W        W36320   1.654  16.901  16.824 -0.1733 -0.0776  0.1096
16041W        W36321   8.743  10.495  13.816  0.1814 -0.2450 -0.0629
16042W        W36322   5.284   5.800   4.438 -0.1084 -0.1101  0.0140
16043W        W36323  14.735   3.943  17.003  0.0520 -0.3325 -0.1152
16044W        W36324  11.721   1.566   2.801  0.6262  0.2577  0.3448
16045W        W36325  10.104   4.939   3.228 -0.0191  0.1294 -0.2634
16046W        W36326  17.444   5.466  15.736 -0.1144 -0.1769  0.0384
16047W        W36327   5.354   8.000  14.219  0.0706 -0.1175 -0.0157
16048W        W36328  11.062  16.713   3.265 -0.0737  0.0569 -0.2470
16049W        W36329   2.593   0.349  13.331 -0.1064 -0.3151 -0.0756
16050W        W36330   0.325  14.339   1.677  0.1843 -0.0918 -0.0031
16051W        W36331   7.900  10.192   5.036 -0.0928 -0.4527 -0.2067
16052W        W36332  14.504  15.282  14.924 -0.2129 -0.0873 -0.2524
16053W        W36333  17.404   0.126   1.594 -0.1864 -0.1287  0.4186
16054W        W36334  11.741  11.444  13.143  0.0045 -0.0641 -0.2102
16055W        W36335   4.479   9.919  14.923 -0.1398 -0.0041  0.0278
16056W        W36336   9.686   2.245  16.725 -0.1226 -0.1020  0.0426
16057W        W36337   2.853   7.047  13.309 -0.0402 -0.2705  0.2645
16058W        W36338   4.962  14.848   3.792  0.0948  0.0837  0.1063
16059W        W36339  14.150  12.876  15.166  0.1556  0.1507  0.0963
16060W        W36340   8.571   2.309   2.453 -0.0572 -0.3445  0.1676
16061W        W36341   8.316  15.855   1.965  0.1587  0.1837  0.0136
16062W        W36342  12.016   5.579  13.545  0.1299 -0.2834  0.0860
16063W        W36343  15.766   0.496   0.838 -0.1982 -0.0390 -0.1513
16064W        W36344   5.454   7.662   0.586 -0.1278 -0.0970 -0.1105
16065W        W36345   6.548   4.576   1.325  0.2405 -0.2304 -0.0910
16066W        W36346   2.246   0.039  15.057 -0.2107 -0.0483  0.4864
16067W        W36347   9.387   1.397  15.421 -0.2859  0.2273 -0.0743
16068W        W36348   0.746   2.311   0.169 -0.3483 -0.0704  0.1254
16069W        W36349  15.398   3.389   2.856 -0.2587  0.0528 -0.0284
16070W        W36350   0.003   6.653  14.383  0.2719  0.1950 -0.1733
16071W        W36351  12.313   4.594  15.829  0.0548  0.0193 -0.3835
16072W        W36352  10.655   1.328   0.019 -0.0316 -0.2735  0.2005
16073W        W36353  15.480  14.758   2.240 -0.1812  0.0114  0.1821
16074W        W36354  15.857  14.699  12.396  0.0587 -0.0492  0.0350
16075W        W36355   2.153  14.580   3.617  0.2435 -0.0060  0.1845
16076W        W36356   2.860   0.626   2.945 -0.0456 -0.1978  0.1929
16077W        W36357  16.587   4.489  14.319 -0.0026  0.1723  0.0774
16078W        W36358  11.404  13.037  13.502  0.2187  0.0433  0.0758
16079W        W36359  10.717   0.042  13.256 -0.1933  0.3444  0.2096
16080W        W36360   7.753  12.501   0.187 -0.4204 -0.1680  0.1206
16081W        W36361  14.856   4.512   4.548 -0.2990  0.1715 -0.1930
16082W        W36362   6.276  11.779  12.831 -0.1446  0.2906  0.1337
16083W        W36363   1.455   5.928   0.495 -0.2245 -0.0297  0.0948
16084W        W36364  14.612  12.293  12.107  0.2853 -0.0894 -0.2173
16085W        W36365  17.723   4.057   2.016 -0.2200 -0.1934 -0.0186
16086W        W36366  16.306  11.508  12.880  0.1261 -0.0713 -0.2214
16087W        W36367   5.367   5.252  14.374  0.0690 -0.0803 -0.2015
16088W        W36368  15.621   7.171  12.198  0.1559 -0.0992  0.0400
16089W        W36369   7.059   3.436   2.351  0.2068  0.0663  0.2679
16090W        W36370  17.704  11.352   1.072  0.0501  0.1048  0.1007
16091W        W36371  10.486   0.129   2.286 -0.2225  0.1019 -0.1132
16092W        W36372   1.480   4.349  13.669 -0.2127 -0.1452  0.0527
16093W        W36373   3.180   5.207   4.368  0.1358  0.1868 -0.0136
16094W        W36374  15.915  16.962   4.658 -0.0134  0.1101  0.1282
16095W        W36375   5.695  15.370   4.856  0.1574 -0.0998 -0.0452
16096W        W36376  17.259   2.862   0.608 -0.1667 -0.1728 -0.0795
16097W        W36377  11.401  14.817   3.540  0.2749 -0.4426 -0.1440
16098W        W36378  16.424   2.226  16.444 -0.0080 -0.0320  0.1588
16099W        W36379  11.664  14.062  13.068  0.1661 -0.1124 -0.0392
16100W        W36380  17.431   4.812  16.242 -0.1455 -0.2026  0.1353
16101W        W36381  16.475  17.712  13.489 -0.1955 -0.3092  0.0753
16102W        W36382  13.498   4.433   2.819 -0.0021 -0.0792 -0.0140
16103W        W36383  16.429   8.608   0.815  0.1059 -0.0631  0.3056
16104W        W36384  13.086   7.608   3.303 -0.2052  0.0172 -0.2410
16105W        W36385   6.243  16.349  13.918  0.0523  0.0468 -0.1225
16106W        W36386   2.951  14.072  14.003  0.0132 -0.1576 -0.0351
16107W        W36387   8.397   5.429   1.185  0.3322  0.3864  0.0494
16108W        W36388  13.958   6.731   1.469  0.0723  0.2357  0.1449
16109W        W36389   1.875   6.631  13.307 -0.2724  0.1980 -0.1389
16110W        W36390   1.988  10.219  12.851 -0.1987 -0.0988  0.3806
16111W        W36391  12.056   1.646  12.097  0.1577 -0.0301 -0.0873
16112W        W36392   8.726  16.900  12.703 -0.0398 -0.0520  0.2551
16113W        W36393  17.627   6.626  16.245  0.1775 -0.1270 -0.3286
16114W        W36394   9.250   6.076   1.688 -0.1550 -0.0083 -0.0753
16115W        W36395   6.676  14.875   4.051 -0.1855 -0.0762  0.2000
16116W        W36396  16.518   2.883  16.623 -0.1729 -0.1269 -0.0631
16117W        W36397  13.322  17.225  14.502 -0.0590  0.2548 -0.1509
16118W        W36398   4.205  11.762  12.855 -0.0165  0.1735 -0.4245
16119W        W36399  13.887   2.358   3.579  0.2142  0.1115 -0.2339
16120W        W36400  12.074  17.575  12.034  0.1182 -0.3548 -0.2399
16121W        W36401  10.571  15.746   3.183  0.0815 -0.0326  0.0828
16122W        W36402   8.879  13.096   4.669 -0.0233 -0.0345  0.1536
16123W        W36403  12.069   1.857   2.564  0.2097  0.2131  0.1099
16124W        W36404   2.575   4.106   2.541 -0.1260 -0.2030 -0.2241
16125W        W36405   4.463   3.350   4.377  0.3832 -0.3400  0.0148
16126W        W36406  10.471   6.591   3.611  0.0920  0.0356 -0.0099
16127W        W36407  10.441   2.508  14.909 -0.2948 -0.3561  0.0254
16128W        W36408   8.843   8.078   0.221  0.2960 -0.0977 -0.1830
16129W        W36409   1.221  14.911   3.846 -0.0648 -0.4783  0.2627
16130W        W36410   6.561   2.069   3.943  0.0342  0.2488  0.1567
16131W        W36411  12.291   1.110  15.818 -0.0836 -0.1175 -0.2726
16132W        W36412  15.143   9.796   0.085 -0.1964  0.0057  0.1224
16133W        W36413   3.391   4.381  12.017  0.0136 -0.0680 -0.0515
16134W        W36414   2.799  16.868  15.901  0.0186 -0.2053  0.1676
16135W        W36415  10.498  11.379   1.153  0.1109  0.1137 -0.2110
16136W        W36416   6.538   0.815   4.406 -0.4264 -0.2096  0.4133
16137W        W36417   6.993   3.139   1.616  0.1796  0.0645 -0.0649
16138W        W36418   3.782   5.613   4.809 -0.2755  0.0247 -0.1461
16139W        W36419  14.932   4.898   0.062 -0.0465  0.0043  0.0827
16140W        W36420   4.586  17.034   2.794 -0.0967 -0.1969 -0.1668
16141W        W36421  16.841  17.536   3.135 -0.1497  0.4203 -0.1615
16142W        W36422  11.056   8.427  15.075 -0.1996  0.0641 -0.2309
16143W        W36423   6.357  12.264   4.433 -0.1695  0.0381  0.2888
16144W        W36424  14.199   5.326   0.829  0.2139  0.0844 -0.3484
16145W        W36425   1.978   1.345  12.442 -0.1619  0.0301 -0.1329
16146W        W36426   3.212  12.988  11.288  0.3767 -0.0782  0.2225
16147W        W36427   0.161   1.566  14.953  0.1265  0.0248 -0.0419
16148W        W36428   3.310  14.209   2.736  0.1847  0.0865  0.4296
16149W        W36429   2.416  13.537   3.637 -0.1820 -0.4739  0.1259
16150W        W36430   8.282  12.562  15.784  0.1976 -0.0338 -0.1627
16151W        W36431   1.664   7.389  15.053  0.3055  0.0726  0.0396
16152W        W36432   9.371  16.433  15.028 -0.4291  0.7426 -0.0812
16153W        W36433   0.122   1.916  12.566 -0.3264  0.0761 -0.2204
16154W        W36434  10.644  13.730   2.677  0.2167  0.2003  0.1202
16155W        W36435   9.982   9.694  16.089  0.1974  0.1597  0.0192
16156W        W36436   8.713   0.661   4.004 -0.3148  0.1634  0.1729
16157W        W36437   2.719  17.320   2.184  0.1269  0.1474 -0.0292
16158W        W36438   1.420   5.662   0.109  0.4036  0.0259  0.1971
16159W        W36439  16.205   9.595  12.691 -0.0724 -0.1756  0.1683
16160W        W36440   0.634   6.949  15.025 -0.0058 -0.0279  0.0661
16161W        W36441  10.506   9.451  16.179 -0.0005 -0.2052 -0.2707
16162W        W36442  16.373   0.335  13.010  0.0675 -0.1437 -0.0233
16163W        W36443   5.562   3.653  15.736 -0.1062 -0.1045 -0.2497
16164W        W36444  15.141   2.619  13.687 -0.2806  0.0662 -0.2091
16165W        W36445  11.690  10.582  12.171 -0.0496 -0.2238 -0.2130
16166W        W36446   3.221  14.981   2.665  0.0948  0.0535 -0.0364
16167W        W36447  11.402  10.922  15.887 -0.1432  0.2565  0.0513
16168W        W36448   8.251  13.813  13.468 -0.0168  0.0116 -0.1390
16169W        W36449   2.458   9.543   0.566  0.1383  0.0238 -0.0145
16170W        W36450  12.855  13.091  15.628 -0.0708 -0.3180  0.1071
16171W        W36451  15.044  13.903  16.362 -0.1578 -0.0631 -0.1722
16172W        W36452  11.755  15.323  12.070 -0.2814 -0.2800  0.4319
16173W        W36453  16.488  12.276  16.621 -0.0384 -0.3256  0.0480
16174W        W36454  12.514  13.661  13.593 -0.1243 -0.2424 -0.1131
16175W        W36455   5.513  16.620   0.597  0.0660 -0.0994  0.0115
16176W        W36456  13.957  14.320   4.073  0.0293 -0.0302  0.0691
16177W        W36457  11.935   4.206   1.188 -0.1163  0.0485 -0.1910
16178W        W36458   9.621  13.613   1.781 -0.0850 -0.1685  0.1523
16179W        W36459  16.034   4.895   2.152  0.3782 -0.5528  0.3268
16180W        W36460  17.708   2.405  14.367  0.0022 -0.0403  0.0832
16181W        W36461   0.206   5.256   4.527 -0.1860 -0.0834 -0.3279
16182W        W36462  11.628   4.753   2.380  0.1609 -0.0778  0.0498
16183W        W36463  14.235  12.124  11.190 -0.1764 -0.0616  0.0378
16184W        W36464  14.510  11.606  15.055  0.4882  0.1833 -0.1062
16185W        W36465   3.820   1.103   1.046 -0.0327 -0.0282 -0.3429
16186W        W36466   5.708   0.862  15.565  0.1360  0.1123 -0.1020
16187W        W36467   3.784  11.034  15.897  0.0198  0.2909  0.1223
16188W        W36468   2.197   4.973  16.631 -0.3502 -0.0454 -0.0414
16189W        W36469   0.326   3.226   4.865 -0.2573  0.1196 -0.0109
16190W        W36470  16.690  16.419  12.537 -0.0064 -0.0356  0.0381
16191W        W36471   0.788  17.667   2.041  0.0230 -0.1220  0.2374
16192W        W36472   6.973   7.731  15.566  0.0659 -0.1371  0.0437
16193W        W36473   9.351  15.985  12.323 -0.0941 -0.0488 -0.0651
16194W        W36474   0.873   4.910   4.908  0.0308 -0.1473 -0.2006
16195W        W36475   9.304   6.149   2.199  0.0808  0.0655  0.0836
16196W        W36476   8.373   9.396  12.138 -0.1183 -0.2962 -0.0743
16197W        W36477   6.728   3.453   3.392  0.2007 -0.0366  0.1657
16198W        W36478  14.695   7.723   3.208 -0.1889  0.0100  0.0556
16199W        W36479   8.620   0.789  13.172 -0.0758  0.0379 -0.2451
16200W        W36480  12.719   6.537  13.089  0.4276 -0.0875  0.0269
16201W        W36481  10.854  16.229  11.777 -0.0367 -0.1077  0.2015
16202W        W36482   8.940  12.095   3.673 -0.0837 -0.1916  0.2239
16203W        W36483   2.299   3.121   1.544 -0.1186 -0.1386  0.0209
16204W        W36484   7.256   6.127  16.953  0.0503 -0.2469  0.0086
16205W        W36485  11.328   9.685  15.138  0.0627  0.3271 -0.0760
16206W        W36486  14.781   7.053  14.329 -0.0779 -0.0731 -0.3117
16207W        W36487  13.198   2.918  12.454 -0.0256 -0.0110  0.1100
16208W        W36488   5.198   0.827   2.576 -0.0685 -0.1015 -0.1049
16209W        W36489   5.232  12.927   2.710 -0.3413 -0.0221  0.2157
16210W        W36490   1.112   1.646  12.720  0.1277  0.0537 -0.3203
16211W        W36491   1.004  10.653  14.695 -0.1050 -0.0260  0.0676
16212W        W36492  12.497  13.801   1.561 -0.0054 -0.1659 -0.0319
16213W        W36493   0.029  15.381   3.545 -0.3234  0.0004  0.0597
16214W        W36494   8.850   8.751   2.579 -0.0493  0.0756 -0.0116
16215W        W36495   7.727   4.670   3.814 -0.2851  0.2099  0.1802
16216W        W36496  12.778   9.485  15.819 -0.0156  0.1167 -0.0428
16217W        W36497   3.397   4.514   3.784  0.0222  0.0499  0.0765
16218W        W36498   0.621  10.386   2.724  0.2708  0.0735  0.0209
16219W        W36499   7.118   8.032  13.872  0.0123 -0.0255 -0.2433
16220W        W36500   3.071  15.305   1.813 -0.0438  0.0084  0.2441
16221W        W36501  16.911   0.192  14.567 -0.1113 -0.2244  0.1626
16222W        W36502   8.349   2.943  12.799  0.2377 -0.1352 -0.0762
16223W        W36503   5.193   0.445  14.815 -0.2706  0.3270 -0.0424
16224W        W36504   0.233   3.902   1.037  0.3634 -0.0048  0.0321
16225W        W36505  17.239   8.460  15.488  0.1328  0.1448  0.1680
16226W        W36506  15.584  12.194   2.429 -0.1547  0.0991  0.1309
16227W        W36507   3.152   7.078   1.005  0.1637 -0.1237  0.2190
16228W        W36508   2.393   0.266   5.195  0.3587 -0.1858  0.0047
16229W        W36509  16.280  14.904  13.382  0.0739 -0.0737 -0.2238
16230W        W36510  12.298  13.239   3.407  0.1773  0.1334 -0.1362
16231W        W36511   5.107  16.672   2.261 -0.1590 -0.0957  0.1180
16232W        W36512  14.778   3.939  13.892 -0.0329 -0.1181  0.3513
16233W        W36513   0.782   8.691  15.720 -0.2006  0.0722  0.0776
16234W        W36514  11.505  16.812   0.317 -0.1598 -0.1796  0.1171
16235W        W36515  13.646   3.011  13.357 -0.1390  0.1156 -0.2043
16236W        W36516   0.969  15.165  12.536 -0.3881 -0.4639  0.1638
16237W        W36517   3.732  16.160  16.040  0.0768  0.1785 -0.3845
16238W        W36518  17.143   2.105   2.518 -0.0350 -0.0668  0.0299
16239W        W36519  13.025  16.473  15.812  0.0275 -0.0288  0.0317
16240W        W36520   5.341  12.074  12.941  0.0310  0.0317  0.3770
16241W        W36521  14.292   4.679   2.221 -0.1923 -0.0445  0.0719
16242W        W36522  10.191  10.789   1.227  0.1141  0.2036 -0.0003
16243W        W36523   4.449   5.190  15.991 -0.0449  0.5228 -0.0617
16244W        W36524  15.029   9.229   3.024  0.2275  0.0293 -0.0461
16245W        W36525  15.097   4.264   1.817  0.2302 -0.1514  0.1310
16246W        W36526   0.203  13.440   3.724  0.0433  0.1527 -0.0491
16247W        W36527   8.978  10.473  14.855  0.0767  0.0342  0.0666
16248W        W36528   8.278   3.631   2.056 -0.1209  0.0998 -0.1978
16249W        W36529   7.988   9.012  14.111  0.0371  0.0903 -0.0724
16250W        W36530   8.120   3.731  16.686  0.0568 -0.1636 -0.0935
16251W        W36531   7.852  13.001   0.222  0.0104 -0.1668 -0.4187
16252W        W36532   4.397  16.037   1.659  0.1375  0.1585  0.5847
16253W        W36533   6.485   7.821  12.479  0.0539 -0.2170  0.2858
16254W        W36534   4.911   5.379  12.501  0.0159 -0.0082 -0.0297
16255W        W36535   5.001  13.882  15.974 -0.1564  0.4926 -0.0935
16256W        W36536  10.585  15.269   1.900 -0.0936  0.2088  0.1022
16257W        W36537   4.472   4.420  13.685 -0.0583 -0.4252  0.1674
16258W        W36538   6.087   4.834   1.091 -0.0863  0.1061  0.3322
16259W        W36539  10.337   1.613  15.717 -0.0576 -0.1786  0.0495
16260W        W36540   6.748  17.735  15.149  0.0023  0.0858 -0.1045
16261W        W36541  10.520   9.307   2.888 -0.0014  0.0685 -0.0727
16262W        W36542  16.787  12.873  14.741 -0.2022 -0.2510 -0.0187
16263W        W36543   8.252  16.663   3.412 -0.0769 -0.1639 -0.2481
16264W        W36544  14.062  11.135  12.242  0.2164 -0.0506  0.1531
16265W        W36545  13.730  17.091   3.648 -0.1882  0.2252 -0.1292
16266W        W36546   1.803  16.989  13.696  0.1098  0.1018  0.0219
16267W        W36547   4.237   1.373   0.160  0.1030  0.1296  0.1308
16268W        W36548   1.078   6.107   4.428 -0.1127 -0.0968  0.1483
16269W        W36549  12.593   7.116  12.249 -0.0754 -0.1464  0.1934
16270W        W36550  14.844   0.826  12.530 -0.1133  0.1172  0.1674
16271W        W36551   8.372  12.640   0.880  0.1471  0.0948 -0.2426
16272W        W36552   2.110  13.985   1.404 -0.1927 -0.1152 -0.0835
16273W        W36553   3.921   9.708  12.422  0.0482  0.3739  0.2399
16274W        W36554   0.557   4.837   0.761 -0.2202  0.1646  0.0438
16275W        W36555  13.196  12.544   0.774 -0.2840 -0.1457 -0.2192
16276W        W36556  11.878  11.495  14.552 -0.2007  0.2272  0.1616
16277W        W36557   3.252   7.349   3.532  0.2251 -0.0702 -0.1741
16278W        W36558  14.653   0.552  16.898 -0.0050 -0.1447  0.0731
16279W        W36559  12.359   7.019   4.376  0.3066  0.1440 -0.0848
16280W        W36560  12.322  11.306  11.816  0.0491 -0.1613  0.1569
16281W        W36561   5.165  14.507   3.495 -0.1413 -0.1026 -0.0072
16282W        W36562  16.719  15.983  16.637 -0.1395 -0.1238  0.0430
16283W        W36563   8.819  16.449   1.525  0.2025  0.3897  0.1489
16284W        W36564   1.361  10.451   0.232  0.0366  0.2204 -0.1355
16285W        W36565   6.076   5.871  16.977  0.1280 -0.1602  0.2713
16286W        W36566  13.656   0.325   1.174 -0.0709  0.1811  0.3066
16287W        W36567   0.392  10.372  16.196  0.0685  0.0488  0.1087
16288W        W36568   7.477  16.891  16.270 -0.0512 -0.1223 -0.0854
16289W        W36569   5.078   8.135   2.445  0.2695  0.1629  0.1890
16290W        W36570   0.320  13.341  13.035 -0.0635  0.1382  0.2383
16291W        W36571  14.977  16.058  12.276 -0.0830  0.2802  0.2611
16292W        W36572   0.366  14.979   3.562 -0.2873 -0.0753  0.2152
16293W        W36573  10.580  12.947  12.176  0.2182  0.1855 -0.0654
16294W        W36574  15.921  11.430   3.808 -0.3908  0.2214  0.0547
16295W        W36575   4.836   8.349  17.007 -0.0587 -0.1475  0.0333
16296W        W36576   8.845   3.674   2.574  0.0555 -0.2525  0.1774
16297W        W36577  16.293  15.671  12.605 -0.4518 -0.2595 -0.2088
16298W        W36578  11.895   7.969   1.279  0.2026  0.4361 -0.0739
16299W        W36579   4.094  10.801   0.018  0.3467  0.1671  0.1799
16300W        W36580  11.364   8.379  12.351  0.1454  0.3488 -0.0695
16301W        W36581   7.835  13.852  15.292  0.1250  0.0859 -0.0085
16302W        W36582   4.382  14.007  16.716  0.2683  0.0503 -0.2857
16303W        W36583   8.190   8.268  12.087  0.1970  0.1258  0.1118
16304W        W36584   3.903   3.239  15.110 -0.1880  0.1116  0.1925
16305W        W36585   6.243  16.550  14.916  0.0367  0.0035 -0.0251
16306W        W36586  15.499   9.138  14.172  0.0926  0.1191  0.0047
16307W        W36587  10.348   9.932   3.783 -0.2471 -0.3727  0.0953
16308W        W36588   2.754  13.208   0.660 -0.0942  0.0463 -0.1176
16309W        W36589  16.330   8.539   0.028  0.1379 -0.1166  0.1079
16310W        W36590  15.952  10.646   0.149  0.2660  0.0169  0.5126
16311W        W36591  10.641  13.704   3.230  0.0275 -0.0089  0.0621
16312W        W36592  16.755  13.327  13.282  0.3612  0.2490 -0.3068
16313W        W36593  11.122   2.272  15.485 -0.0638 -0.1774  0.0517
16314W        W36594  15.004   9.999   1.632 -0.2189 -0.0679 -0.1779
16315W        W36595   4.992  12.875   0.669  0.1666  0.4365  0.2024
16316W        W36596  12.242  13.763  13.963  0.0528 -0.1579 -0.0790
16317W        W36597   1.391  12.281  15.677 -0.3376 -0.1682  0.1432
16318W        W36598   9.319  10.266  15.753 -0.1909  0.2557 -0.0096
16319W        W36599  16.924   2.765   2.029  0.0633  0.2114 -0.0585
16320W        W36600  15.659   0.018  15.707 -0.2307 -0.2983 -0.0202
16321W        W36601   2.245  12.184  16.745  0.0483 -0.1004  0.0037
16322W        W36602   1.695  11.727  14.227 -0.0820 -0.0379 -0.0070
16323W        W36603   7.602   0.655   1.249 -0.0481  0.2200  0.2220
16324W        W36604   8.379   3.419   1.435 -0.0424 -0.0589  0.1092
16325W        W36605   5.990  12.322  16.744  0.0433  0.3089 -0.3923
16326W        W36606  11.883  17.146   3.320  0.0639 -0.3818 -0.0448
16327W        W36607   1.720   8.611   0.730 -0.2696  0.0396  0.2232
16328W        W36608  13.645   0.395   2.017 -0.4114 -0.1777  0.0124
16329W        W36609  11.958   2.188   0.332  0.2961 -0.0445  0.0638
16330W        W36610  12.487   5.784   0.487  0.2607  0.1887 -0.1994
16331W        W36611   0.313   6.047   0.921  0.0509 -0.2216 -0.1116
16332W        W36612   2.554  15.548   4.365  0.0120  0.1225  0.1802
16333W        W36613  11.801   5.238  16.163  0.3907  0.1801 -0.0405
16334W        W36614   5.044  16.230   4.953 -0.0480 -0.2418 -0.0506
16335W        W36615   7.000  16.705  16.169  0.0516  0.2675  0.1393
16336W        W36616  12.024  12.008   4.309 -0.1689  0.3885  0.1922
16337W        W36617   5.619  14.541  14.154 -0.0822 -0.0190 -0.0006
16338W        W36618  17.476   3.691  16.842  0.0940  0.3317  0.0074
16339W        W36619   5.890   7.460   2.419 -0.1319 -0.2274  0.4749
16340W        W36620  16.126   2.618   3.670  0.1073 -0.1013  0.0158
16341W        W36621  14.707   8.508   2.292  0.3359 -0.0304  0.0273
16342W        W36622   9.893  10.992   1.925  0.0368 -0.1661  0.0092
16343W        W36623  17.581   1.041   1.916 -0.2201 -0.0299 -0.0950
16344W        W36624  16.890   5.209   4.194 -0.1609 -0.1402 -0.1511
16345W        W36625   7.077   0.529   0.472 -0.0730 -0.0036  0.0806
16346W        W36626  11.234   3.455  16.353  0.4887  0.0101 -0.1377
16347W        W36627   6.809   3.009  12.048  0.0608  0.0457 -0.0808
16348W        W36628   7.483  16.071  12.533  0.1873  0.1507  0.0208
16349W        W36629   5.904   2.388  14.456  0.1456  0.0354  0.3647
16350W        W36630   7.153   6.068  13.953  0.1203  0.0510  0.1010
16351W        W36631   4.931   1.000  14.729  0.3037 -0.0910  0.0092
16352W        W36632   2.940   7.187  16.878 -0.0688 -0.0585 -0.1145
16353W        W36633  11.448   9.362  15.998  0.0727  0.1944  0.1473
16354W        W36634   5.583  17.093  12.425  0.0206 -0.0638 -0.0966
16355W        W36635  13.034  15.025   3.692  0.0982  0.0230  0.0719
16356W        W36636   6.539  11.418   3.036 -0.2373  0.1743  0.2207
16357W        W36637   6.496   5.780  13.162 -0.2003 -0.2606 -0.0745
16358W        W36638   6.499   8.633   3.686  0.4268  0.1309  0.2494
16359W        W36639   4.181   5.795  12.298  0.2217  0.1572  0.0916
16360W        W36640  17.127   5.122   3.767 -0.2448 -0.0494 -0.0288
16361W        W36641   6.406   4.576  13.984 -0.0457  0.1263 -0.0059
16362W        W36642  13.438  12.984   2.224  0.0796 -0.0777 -0.0606
16363W        W36643  15.276   9.360   1.028 -0.1943  0.4198 -0.0762
16364W        W36644   3.533  17.451  15.660 -0.0440 -0.0598  0.0763
16365W        W36645   3.136   6.581   3.254 -0.0268 -0.1879 -0.1047
16366W        W36646   8.264  11.638  11.962  0.1394 -0.2217 -0.1844
16367W        W36647  10.255   7.702   0.916  0.1431  0.1778  0.0579
16368W        W36648  12.948  16.259  15.330  0.0734 -0.2922  0.1084
16369W        W36649   0.345  14.141  15.025  0.1159 -0.0941  0.1198
16370W        W36650   5.809   9.358   1.129  0.0359 -0.1140  0.4352
16371W        W36651   8.948   4.222  15.115  0.2325 -0.0170  0.1761
16372W        W36652  15.417  11.470  16.294  0.2691 -0.0485  0.1863
16373W        W36653  16.067   7.068  13.877 -0.0914 -0.0404  0.1108
16374W        W36654   7.421  10.709  14.592  0.0017 -0.3738 -0.1397
16375W        W36655   1.581  13.430  15.975  0.1832 -0.1928 -0.0745
16376W        W36656  12.808  16.157   4.701 -0.3351  0.0709 -0.2219
16377W        W36657   4.077  17.256  15.663 -0.1629 -0.0634 -0.2144
16378W        W36658   0.732  17.546   4.652 -0.2224 -0.1912  0.1009
16379W        W36659   2.952   8.610   4.698 -0.1592 -0.1711 -0.0593
16380W        W36660  11.734   8.456  15.146  0.2892 -0.1887 -0.0613
16381W        W36661  11.418  14.375  14.662  0.2810 -0.1341  0.2054
16382W        W36662   8.117   7.087  12.526  0.1055  0.0048  0.2398
16383W        W36663   6.201   3.002   0.918  0.1320  0.0781  0.0112
16384W        W36664   3.699  15.460   0.783 -0.0685  0.1554 -0.0780
16385W        W36665   0.304   1.239  15.462 -0.0301  0.2826 -0.2826
16386W        W36666  10.632   5.133   1.330  0.1500  0.1223 -0.1698
16387W        W36667  15.274  10.020   2.706 -0.0108 -0.1395  0.0852
16388W        W36668   3.929  12.601  15.302 -0.1852 -0.0543 -0.3185
16389W        W36669   1.400  15.522   0.513  0.0839 -0.0489  0.0767
16390W        W36670   3.658   2.109  16.130 -0.2299  0.2532  0.3894
16391W        W36671   4.981  10.112   3.552 -0.0996  0.2533  0.1694
16392W        W36672   6.867  17.229   1.069  0.0131 -0.3642 -0.0845
16393W        W36673  17.668   1.501   5.083  0.4376  0.1466 -0.0763
16394W        W36674  10.852   0.299  16.135 -0.2028  0.2037  0.0938
16395W        W36675   7.405   8.465   2.000  0.2457  0.0708 -0.1394
16396W        W36676   1.828  13.371  14.744  0.1034 -0.0259 -0.1962
16397W        W36677   9.823  13.548  16.891 -0.0052 -0.1099 -0.0426
16398W        W36678   2.784  13.139   2.110 -0.1722  0.0116  0.1209
16399W        W36679   5.258   6.841  16.991 -0.0079 -0.1445 -0.0954
16400W        W36680   8.276   1.969   3.073  0.4249 -0.1867 -0.0074
16401W        W36681  13.438   7.722   2.541  0.0014  0.0438  0.0508
16402W        W36682   3.241   4.163  13.042  0.1098  0.2279  0.1001
16403W        W36683  13.390   8.801   0.319  0.0116  0.1336  0.2104
16404W        W36684  12.581   5.600   3.718  0.0116  0.0969  0.0740
16405W        W36685   1.821   2.432  12.197 -0.1227  0.2975  0.1815
16406W        W36686   4.929   0.503  13.331  0.1461 -0.2710  0.2207
16407W        W36687  12.064   0.966  14.524 -0.0226  0.3810  0.1915
16408W        W36688   0.874   8.721  13.826 -0.0475  0.0603  0.2152
16409W        W36689   5.087   5.010  16.724 -0.2626 -0.1982  0.0949
16410W        W36690   5.039  16.198   3.017 -0.1026 -0.1631  0.0846
16411W        W36691   0.575   3.109  13.211  0.0227  0.0072 -0.0003
16412W        W36692  11.550   1.579  15.599 -0.0412 -0.0458 -0.0842
16413W        W36693   9.539   7.258   4.086  0.3155 -0.0018  0.0540
16414W        W36694   7.109   1.518   1.425 -0.0524  0.1693  0.2175
16415W        W36695  15.674   9.432  15.257 -0.1311  0.0700  0.3759
16416W        W36696   0.543   6.302   4.389  0.0204  0.0759 -0.0355
16417W        W36697  11.928   3.384   2.302 -0.2164  0.0714  0.0842
16418W        W36698  12.757   6.090   3.941 -0.1858 -0.0752  0.1510
16419W        W36699   7.078   1.112  13.035  0.2436 -0.0397 -0.1242
16420W        W36700  16.998  12.060   2.422 -0.0517 -0.2608  0.0001
16421W        W36701   6.179   5.276  13.920 -0.3143 -0.2179  0.0314
16422W        W36702  15.850   0.515  12.607  0.0782  0.1558  0.1306
16423W        W36703   4.219   3.480   1.333  0.2174 -0.2223 -0.3607
16424W        W36704   7.968   8.653   3.013 -0.1771 -0.1004 -0.1219
16425W        W36705  11.737   2.514  16.507 -0.0800 -0.0092  0.4626
16426W        W36706  12.740   3.979  15.084 -0.0513  0.0724  0.3125
16427W        W36707   9.606   8.793   3.817 -0.0712 -0.0901 -0.1029
16428W        W36708  13.160   5.498   2.843  0.0503  0.1544 -0.0178
16429W        W36709   1.259   7.029   1.522  0.1118 -0.2881 -0.0153
16430W        W36710   4.044   8.020  12.901 -0.0320  0.2712  0.1644
16431W        W36711   7.149  12.053   0.595  0.0432 -0.1007 -0.0446
16432W        W36712   9.090   3.328   1.727  0.2123 -0.0155  0.1918
16433W        W36713   1.981  15.637   3.196 -0.0288 -0.0266 -0.1482
16434W        W36714  17.136  17.541  14.125 -0.1348 -0.3079  0.0635
16435W        W36715  10.725  10.798  14.311  0.1072 -0.3319  0.1597
16436W        W36716  13.804  14.601  12.574 -0.1764 -0.5286 -0.0257
16437W        W36717  16.931   5.033  12.318  0.0674  0.1767  0.2456
16438W        W36718   4.878   9.763   0.274 -0.5401 -0.2172  0.1223
16439W        W36719  11.915   6.203   2.175 -0.1156  0.2741 -0.1336
16440W        W36720  17.210  16.345  16.690 -0.0177 -0.1262 -0.3058
16441W        W36721   7.864  11.530   2.579  0.0381 -0.0201  0.1307
16442W        W36722   7.980   2.011   1.319 -0.1205  0.0358 -0.1900
16443W        W36723   1.261   8.708   2.548  0.1675 -0.4215 -0.2289
16444W        W36724   8.204   5.691  12.991 -0.2343  0.1162  0.0951
16445W        W36725  14.728  11.626  13.074 -0.2977  0.0895 -0.0335
16446W        W36726  14.756   3.245   1.442 -0.0919 -0.1592  0.3965
16447W        W36727   5.253   5.091   1.182 -0.1145 -0.0747 -0.0607
16448W        W36728   3.435   7.188  13.290 -0.1119 -0.1424 -0.1527
16449W        W36729   3.558   3.440   3.890  0.2052  0.1763 -0.1831
16450W        W36730   7.337  14.490  14.012 -0.1102  0.3270 -0.2698
16451W        W36731   7.652   4.154   0.680 -0.0542 -0.1860  0.0002
16452W        W36732  11.842  11.867   3.333  0.1241  0.0858 -0.1735
16453W        W36733   3.174   6.800  13.534 -0.2228  0.1541  0.0271
16454W        W36734  16.024   5.409  15.934 -0.0451  0.0183  0.0619
16455W        W36735  11.877  13.658   0.234 -0.2329  0.0292 -0.2729
16456W        W36736   6.475  12.297  16.648 -0.0291 -0.2528 -0.1436
16457W        W36737   5.685   3.731  14.008  0.2459  0.2339  0.2410
16458W        W36738  10.864  14.745   1.767  0.2308 -0.2203  0.1324
16459W        W36739   0.611   6.486  15.618  0.3081  0.0101  0.0800
16460W        W36740   5.155  14.485   1.496  0.0172  0.0817 -0.4608
16461W        W36741  11.811   1.710   4.877 -0.2555 -0.3306 -0.1420
16462W        W36742   5.384   9.049   0.902 -0.1030  0.1201 -0.3681
16463W        W36743  13.170   9.375   3.620 -0.3937  0.0571 -0.2028
16464W        W36744   5.442   9.706   1.983  0.1286 -0.0593 -0.2069
16465W        W36745   1.357   6.046  13.025  0.4163 -0.0275 -0.1537
16466W        W36746   8.920  16.421  12.617  0.1109  0.3042 -0.1837
16467W        W36747   8.761   8.532  14.126 -0.4239 -0.1257 -0.1743
16468W        W36748   7.568   8.737   0.102  0.1585 -0.1489  0.0329
16469W        W36749  10.918   3.156  15.624 -0.0168 -0.2452 -0.0299
16470W        W36750   4.192  10.656   3.715  0.1898  0.1978 -0.0109
16471W        W36751  11.971  11.482   0.586  0.1615 -0.1061  0.0900
16472W        W36752   0.189   1.339  13.644  0.1687 -0.3090  0.1285
16473W        W36753  15.213   7.655   3.811  0.0813 -0.0485  0.1557
16474W        W36754   6.757   3.966   0.196  0.3337 -0.1287  0.1649
16475W        W36755  15.920   1.387   1.541  0.0561  0.2572 -0.2071
16476W        W36756   8.081   7.444   1.285 -0.0351 -0.2427  0.0206
16477W        W36757   5.693  14.617  15.870 -0.3707  0.0681  0.1747
16478W        W36758   5.507  15.194  16.785 -0.3065 -0.2644 -0.1287
16479W        W36759   4.757   1.384  15.209  0.1217 -0.0944  0.0979
16480W        W36760   8.040   6.007   2.642  0.0850  0.2812 -0.2975
16481W        W36761  12.604   0.169   3.263 -0.0380 -0.0216 -0.2051
16482W        W36762  14.402   5.421   2.612 -0.0707  0.1881  0.0240
16483W        W36763  16.498   5.423   2.274 -0.1043 -0.0346  0.1086
16484W        W36764  10.316   4.978  14.082  0.1072  0.0020 -0.0357
16485W        W36765   6.305   7.360  15.538 -0.1370 -0.1829 -0.1270
16486W        W36766  13.315  13.222  13.174 -0.3067  0.0414 -0.3342
16487W        W36767  11.392  11.538  14.602  0.1201  0.1027  0.2408
16488W        W36768  14.492   6.105   0.263  0.1777  0.0591  0.3017
16489W        W36769  12.799   4.691  15.572 -0.0462 -0.0913  0.1283
16490W        W36770   5.570  17.103   4.655 -0.0691  0.1094 -0.0312
16491W        W36771  17.278   2.190  13.149  0.0216  0.2066  0.1925
16492W        W36772  13.022   8.494   4.974  0.2106 -0.2810 -0.0172
16493W        W36773   4.236   1.080   0.616  0.0498 -0.2722 -0.1785
16494W        W36774   8.739  13.807  12.764 -0.0296  0.2093 -0.3248
16495W        W36775  13.542   7.830   1.582  0.2868 -0.0909 -0.1758
16496W        W36776   2.797  15.453   2.773 -0.0773 -0.0781 -0.1076
16497W        W36777   9.847   5.902   3.876 -0.1278 -0.0556  0.0958
16498W        W36778   3.546   3.435  12.334  0.1054 -0.1470 -0.2301
16499W        W36779   3.484  10.883  14.542  0.1115  0.0396  0.1028
16500W        W36780  14.417   0.601  14.268  0.2178 -0.1568 -0.2958
16501W        W36781   9.007  16.273   2.333  0.1485  0.2594 -0.1081
16502W        W36782   3.924  16.907  16.544 -0.2551 -0.2568  0.1055
16503W        W36783  12.742   4.184   3.790 -0.0003 -0.1794  0.1139
16504W        W36784  14.045   9.695   3.870 -0.0245  0.2321 -0.1307
16505W        W36785  14.250   9.852  14.497  0.1269  0.1228  0.1733
16506W        W36786   8.233  11.278  14.039 -0.0406 -0.1100 -0.0846
16507W        W36787   2.009   3.575  13.309  0.2667 -0.0908 -0.1088
16508W        W36788  15.655  12.042   0.560  0.2141 -0.1670 -0.0440
16509W        W36789  11.917  17.656  16.050 -0.0267  0.0304 -0.0961
16510W        W36790   1.119  13.741  16.750  0.0133  0.1267 -0.3326
16511W        W36791   3.603  10.639   3.906  0.2824  0.0587 -0.1105
16512W        W36792  12.208  16.958  14.282  0.1864  0.2041  0.1312
16513W        W36793   8.894  16.914   4.485 -0.0399  0.2853 -0.0008
16514W        W36794   0.571   2.767   3.625  0.3964 -0.3345 -0.1249
16515W        W36795   4.110   9.801  16.231 -0.0920  0.1513 -0.1693
16516W        W36796   5.904   2.453  16.464  0.1368  0.1510  0.1964
16517W        W36797  12.659   3.447  14.093 -0.0287 -0.0176  0.2987
16518W        W36798   6.614  12.606  14.920 -0.0437  0.1446 -0.2379
16519W        W36799   6.507   6.762  16.130 -0.1423 -0.0011 -0.6016
16520W        W36800   0.597   4.910   5.352  0.0084 -0.0520  0.3282
16521W        W36801   0.136  16.977   1.841 -0.0431  0.1635 -0.1268
16522W        W36802  11.073  11.384  13.709 -0.4965  0.1600  0.0869
16523W        W36803   5.697  17.052   0.253 -0.2486 -0.1869  0.2096
16524W        W36804   3.817  11.142  13.516  0.1343  0.0013  0.0634
16525W        W36805   0.424   3.587  15.229  0.0990 -0.1538 -0.1960
16526W        W36806   4.302  12.166  15.919  0.3820 -0.1686 -0.1776
16527W        W36807  11.046  16.839   1.849  0.2071 -0.1506 -0.2340
16528W        W36808  13.256   0.308  15.896  0.1636  0.0009 -0.2131
16529W        W36809  14.084  15.071   1.327 -0.0232  0.3872  0.0778
16530W        W36810   5.612  14.093  15.068 -0.0350 -0.2465  0.0022
16531W        W36811   9.535  10.688   2.843 -0.0406 -0.3937 -0.4931
16532W        W36812   3.528   9.956  16.921 -0.2279 -0.0567  0.1990
16533W        W36813   0.876   9.961   0.503 -0.0730 -0.2250  0.2126
16534W        W36814  16.869  11.261  12.957 -0.3935 -0.2380  0.1202
16535W        W36815  12.891  11.982  12.814  0.1034 -0.0237 -0.1157
16536W        W36816   4.686  15.618   3.553  0.2863 -0.1969  0.0141
16537W        W36817   7.570   7.389  12.310 -0.1014 -0.1069 -0.1707
16538W        W36818   2.438  12.711   0.810 -0.1673 -0.0820  0.2735
16539W        W36819   5.421  10.936   3.673 -0.2216  0.2601 -0.2958
16540W        W36820  13.001   5.777   1.720  0.0702  0.0804 -0.1667
16541W        W36821   6.666  11.811  16.362 -0.0350 -0.2417 -0.2399
16542W        W36822  14.633  13.962  12.102 -0.1342 -0.1199 -0.1280
16543W        W36823   5.352  17.067  14.032  0.0341  0.1728  0.1530
16544W        W36824  13.225   0.809  12.539  0.2540  0.1431  0.2801
16545W        W36825  11.737   8.767  12.447  0.1894  0.5552 -0.1562
16546W        W36826   9.455  14.770  15.407  0.2631 -0.0674  0.0285
16547W        W36827  10.200   1.585   0.512  0.2229 -0.0342  0.1434
16548W        W36828  10.022  16.980  11.393 -0.0228  0.0289  0.2699
16549W        W36829   1.505   0.462  16.380  0.1573  0.0212  0.1845
16550W        W36830   2.371   0.783  13.196  0.2521 -0.2688  0.0064
16551W        W36831   8.771   7.913  12.847  0.2749 -0.1371  0.1799
16552W        W36832   6.360  14.018   2.061  0.1188 -0.0336 -0.2213
16553W        W36833   4.492   6.556  14.105 -0.0100  0.0197  0.0694
16554W        W36834   4.227   0.741  14.574 -0.1573 -0.2840  0.0658
16555W        W36835  11.305   6.093  14.063  0.0453 -0.0609  0.2259
16556W        W36836  13.309  14.420   4.603  0.1112  0.0533  0.1514
16557W        W36837   7.092  17.193   0.008  0.0462  0.2877  0.0633
16558W        W36838   6.817   3.101  15.577  0.1474 -0.0856  0.0005
16559W        W36839  14.433   4.079   3.253 -0.0413  0.0863 -0.1129
16560W        W36840  10.712   9.582  13.358 -0.1278 -0.3084 -0.2698
16561W        W36841  11.122   1.834  13.864 -0.1765  0.0336  0.1534
16562W        W36842   5.086   8.258  13.804 -0.2527 -0.1698  0.0379
16563W        W36843   0.969  13.132  13.658 -0.1765  0.1615  0.0276
16564W        W36844   0.134  17.445   0.979 -0.1495 -0.4318 -0.0766
16565W        W36845  10.786  13.025  16.164  0.1365 -0.2957 -0.3456
16566W        W36846  11.219  14.612   3.923 -0.0637 -0.1366  0.1707
16567W        W36847   0.677  17.010   4.643 -0.0281 -0.0254  0.0778
16568W        W36848  17.093  15.883  14.923  0.1353  0.4126  0.2548
16569W        W36849   5.817   9.970  12.375 -0.2702 -0.0558  0.0460
16570W        W36850   2.192   7.371  15.389 -0.2711 -0.2054  0.1200
16571W        W36851   3.975  11.546   2.794  0.1152  0.3047 -0.0609
16572W        W36852  14.382   4.454  15.835  0.3217 -0.3094 -0.2319
16573W        W36853   2.765   0.137   0.734  0.1671  0.4756  0.2617
16574W        W36854  15.105  12.124   0.359 -0.0018 -0.0150  0.2613
16575W        W36855  13.986   1.955  14.690 -0.2789 -0.0571  0.2545
16576W        W36856   2.107   2.613   1.238  0.1159 -0.2728 -0.0095
16577W        W36857  17.056   3.609  15.859  0.4518  0.2174 -0.0868
16578W        W36858   3.227   8.383   2.503  0.1106  0.2283  0.1481
16579W        W36859   3.159  10.666   1.928  0.1326 -0.1991  0.0553
16580W        W36860   7.067   3.558  15.395  0.0389  0.0821  0.0959
16581W        W36861   6.856   4.600   4.193 -0.1282  0.0970 -0.3780
16582W        W36862  13.009   3.651   1.020  0.4072  0.2314  0.4012
16583W        W36863   0.402  10.314  13.521  0.3740 -0.1495 -0.1532
16584W        W36864  14.948   3.124  12.101  0.0308  0.1926 -0.0039
16585W        W36865   7.922   4.074   2.137  0.3316  0.2412  0.1001
16586W        W36866   5.247  12.948   2.155  0.1811 -0.3804  0.2135
16587W        W36867  11.660   8.494   0.121 -0.0585 -0.1054 -0.2111
16588W        W36868   4.583  11.987  14.980 -0.1274  0.3116  0.0568
16589W        W36869   6.470   2.557   2.982 -0.1146 -0.2161  0.2131
16590W        W36870  16.612   8.543  12.878 -0.2330 -0.1029  0.0224
16591W        W36871  16.559  13.773  15.967  0.1339 -0.1111 -0.2249
16592W        W36872   4.403   5.082   1.258  0.1276 -0.1239  0.1105
16593W        W36873  11.632  16.712  15.155 -0.1853 -0.4658  0.3110
16594W        W36874  13.693  12.743   3.775 -0.2938 -0.0356 -0.0099
16595W        W36875   9.400  15.753   4.541  0.0924 -0.0054 -0.1860
16596W        W36876   7.159  15.827  14.952  0.2704 -0.0654 -0.0683
16597W        W36877   0.697   7.687   0.169 -0.1673  0.1888  0.3426
16598W        W36878   5.170  12.286  12.103  0.0869  0.0016 -0.1647
16599W        W36879   3.915   6.307   0.330  0.0172 -0.0493 -0.0936
16600W        W36880  11.997  11.501  15.296 -0.1350  0.1149  0.0472
16601W        W36881   9.740   1.753  16.618  0.1050  0.2462  0.1559
16602W        W36882   4.636  12.850   0.279  0.0816  0.0312 -0.0988
16603W        W36883  11.298  12.419   2.812 -0.1778 -0.3581  0.2479
16604W        W36884   6.393  16.119   1.585  0.2154  0.1205  0.3607
16605W        W36885   8.236  17.164  16.760 -0.0254 -0.2906 -0.1077
16606W        W36886   4.055   4.296  15.973  0.1469 -0.0782 -0.0891
16607W        W36887   6.828   9.081   2.482  0.4312 -0.3740  0.1208
16608W        W36888   5.945   4.512  12.900 -0.2584  0.2016 -0.0422
16609W        W36889  10.020  10.271  16.357 -0.1289  0.0019  0.0669
16610W        W36890   1.876  12.713  12.698  0.1982  0.3930 -0.0894
16611W        W36891  15.880   8.947   4.950 -0.0459  0.0255 -0.2346
16612W        W36892  11.492   3.796   3.575  0.1153 -0.1502  0.1496
16613W        W36893   0.520   2.231   3.945  0.0677  0.0069  0.0724
16614W        W36894   0.773  10.235  15.834  0.2371 -0.0460  0.3124
16615W        W36895   9.019  15.748   1.000 -0.4147  0.0874  0.0288
16616W        W36896  16.279   2.980  15.740  0.2568 -0.1529 -0.1640
16617W        W36897   0.044  12.923   3.264 -0.1854  0.1889 -0.1632
16618W        W36898   0.833  14.505   1.056  0.2852 -0.0784 -0.0692
16619W        W36899  12.319  15.766  13.965 -0.1202 -0.1442  0.0673
16620W        W36900   7.349   8.939  15.665 -0.1603  0.3447  0.1408
16621W        W36901   2.918   7.655  16.696 -0.2419 -0.0120 -0.1742
16622W        W36902   2.699   7.321  12.877 -0.0308  0.2149  0.1989
16623W        W36903  17.085  14.690  15.903 -0.2701  0.0994  0.0981
16624W        W36904   3.522   2.230   3.753  0.0728 -0.2572 -0.0648
16625W        W36905   1.903  13.357   4.897 -0.2763  0.3513 -0.0147
16626W        W36906   4.748  10.916  15.772  0.0736 -0.2408 -0.2133
16627W        W36907   1.388  11.997  12.946 -0.1145  0.0320 -0.0527
16628W        W36908  12.481  15.706   3.748 -0.2801  0.2154  0.0637
16629W        W36909  12.360   5.654   2.187 -0.1694  0.0980  0.0441
16630W        W36910   7.712   5.583   1.748 -0.1411 -0.1886 -0.0852
16631W        W36911  13.274  15.580  12.572  0.3683  0.1138  0.1442
16632W        W36912   9.713  16.960   2.665  0.1910  0.4386 -0.0012
16633W        W36913   9.409  13.342   2.590  0.1813 -0.2624 -0.2891
16634W        W36914  12.216   2.226   1.692  0.2708 -0.1903  0.3461
16635W        W36915  15.126   9.954  15.595  0.3712 -0.2236 -0.2494
16636W        W36916  16.189  10.146   3.019 -0.2646  0.3283 -0.2660
16637W        W36917   8.293  14.788  16.993 -0.0450  0.2101 -0.1220
16638W        W36918  15.872   1.276   1.006 -0.1068 -0.1819 -0.1635
16639W        W36919  16.064   2.330  15.088 -0.1225  0.2339  0.0380
16640W        W36920   7.611  11.089  12.501  0.0467 -0.1308 -0.0593
16641W        W36921   9.015   8.555   3.051 -0.0891  0.0002  0.2320
16642W        W36922   3.315   4.161   5.142 -0.5712  0.1266 -0.0178
16643W        W36923  15.237  12.441   3.517 -0.0773 -0.0930 -0.0774
16644W        W36924   0.239   4.471   1.128  0.1550 -0.1630 -0.1668
16645W        W36925  14.497   2.439   2.956  0.0368  0.0513  0.2444
16646W        W36926  15.022   6.959   2.965  0.1241 -0.1713  0.1438
16647W        W36927  13.461   2.525   2.058  0.0838 -0.1239  0.1347
16648W        W36928   0.041  14.044   0.877  0.1357  0.0922  0.1334
16649W        W36929  16.428   3.545   0.463 -0.0332 -0.1567  0.1832
16650W        W36930  10.052  17.474  15.004 -0.0476 -0.1664  0.0906
16651W        W36931  14.430  12.436  15.208 -0.2198 -0.0289 -0.0016
16652W        W36932  16.996   1.920   2.086  0.2776 -0.0647  0.1339
16653W        W36933  12.100  15.666  12.031 -0.0976  0.0018 -0.1229
16654W        W36934  16.861   9.146  13.530  0.2720  0.1644 -0.1239
16655W        W36935  15.424   8.347   1.327  0.0030  0.1652  0.1526
16656W        W36936  17.000   1.358  14.339 -0.1211 -0.1322 -0.1897
16657W        W36937  17.207   2.234  14.390  0.1393 -0.3690 -0.0028
16658W        W36938  15.762   8.834  12.250 -0.2806 -0.3615 -0.0033
16659W        W36939  14.089   0.719  14.619  0.0387 -0.0089  0.1233
16660W        W36940  16.046   2.313  13.591  0.0885  0.1492  0.0361
16661W        W36941   3.717  13.356  16.498 -0.1827 -0.0882  0.2211
16662W        W36942  16.608  15.466  14.115  0.0683  0.1311 -0.0707
16663W        W36943  16.623   5.746  13.842  0.3528  0.1106 -0.0354
16664W        W36944  11.545   8.745  13.358 -0.1766  0.2343  0.0498
16665W        W36945   1.892  10.999   0.853 -0.0700 -0.0625  0.1605
16666W        W36946   4.734  13.439  12.065  0.0656 -0.1411 -0.1959
16667W        W36947   2.465   2.671   2.594 -0.0148 -0.0891  0.0823
16668W        W36948   0.143  17.676   1.451 -0.0160  0.2432 -0.0497
16669W        W36949   1.318  14.999   4.822  0.1501  0.1813 -0.0131
16670W        W36950   9.697   6.534   3.704 -0.0861  0.0249 -0.1586
16671W        W36951  12.174   0.739  15.394  0.2288  0.0187 -0.0960
16672W        W36952  16.462   1.293   2.503 -0.0121 -0.1093  0.3727
16673W        W36953  15.231  12.457   4.825 -0.1164 -0.0428 -0.1184
16674W        W36954   3.196   4.907  13.454 -0.1633  0.2162  0.1611
16675W        W36955  13.241  10.144   4.310  0.2551 -0.2412  0.1323
16676W        W36956  14.598  14.864   0.798 -0.0738 -0.3012  0.0133
16677W        W36957   4.409   5.639  14.478  0.5385  0.3941 -0.1239
16678W        W36958   8.194  14.324  13.359 -0.3102 -0.0035  0.0721
16679W        W36959  15.544   6.477   0.307 -0.0251  0.4481  0.1557
16680W        W36960  10.614   4.766   0.214 -0.4248 -0.2661  0.1718
16681W        W36961   2.925  13.282   1.129 -0.1604  0.3134 -0.2197
16682W        W36962  15.556  14.101   4.213  0.1859 -0.3144  0.0398
16683W        W36963   4.470  13.669   4.372  0.2320 -0.2231 -0.1069
16684W        W36964  15.007  17.189  13.784  0.0615  0.1572  0.1223
16685W        W36965  10.364   3.630   1.358  0.0667  0.1169 -0.0971
16686W        W36966   9.650   2.950  14.927 -0.1753 -0.0319 -0.3479
16687W        W36967   1.729  16.295  15.011  0.4167  0.2160 -0.1838
16688W        W36968   0.193   2.128   2.776  0.0970 -0.1727 -0.2866
16689W        W36969   8.802  13.954   2.416  0.1852  0.0990 -0.0546
16690W        W36970  16.860  15.029   2.459 -0.2372  0.4360 -0.1052
16691W        W36971  15.847  16.252   1.779  0.1979 -0.3263 -0.4684
16692W        W36972   5.225  11.376  15.103  0.3677 -0.0480  0.2614
16693W        W36973   8.649  10.152   4.129 -0.1180  0.0127  0.2739
16694W        W36974  17.073   3.301  12.374 -0.1706 -0.0979  0.2225
16695W        W36975   0.140   4.403   1.671  0.0656  0.2663 -0.3352
16696W        W36976   0.668  12.407   0.702 -0.0913  0.0489 -0.0941
16697W        W36977   2.869   2.183   2.819 -0.4677 -0.2759  0.0375
16698W        W36978   9.794   7.960  16.302 -0.0665  0.1208  0.1268
16699W        W36979   2.704   2.141  15.748  0.1926 -0.0610 -0.0107
16700W        W36980   4.221   3.854   4.508 -0.5591  0.3323  0.4442
16701W        W36981   3.692   1.803   5.209  0.2207  0.1635 -0.0571
16702W        W36982   5.419   4.671  15.152  0.0467 -0.2371  0.2568
16703W        W36983   4.735   6.682  14.590  0.1169 -0.1528 -0.1763
16704W        W36984   5.053   2.993   3.992  0.2535 -0.0187 -0.1042
16705W        W36985  13.339   4.920  13.592 -0.1326 -0.3378 -0.3180
16706W        W36986   0.084   8.164  13.624  0.0009 -0.0523 -0.0917
16707W        W36987  10.104   3.537  14.723 -0.0656  0.0643 -0.5838
16708W        W36988   9.902   1.216  12.631 -0.1495  0.0551 -0.0353
16709W        W36989   8.995  13.935  16.731  0.1707 -0.1801 -0.1686
16710W        W36990  14.852  13.443  14.187 -0.4560  0.2134 -0.0278
16711W        W36991   6.264  14.470   0.894 -0.0434 -0.1568 -0.2436
16712W        W36992   5.987   6.113  15.092 -0.0042  0.1936  0.2729
16713W        W36993  14.655  14.951  16.888 -0.1229 -0.1135 -0.1490
16714W        W36994   1.188  14.023   1.577  0.3048 -0.1439  0.0414
16715W        W36995  14.521   9.369   5.108  0.0743 -0.0515 -0.0898
16716W        W36996   2.313  15.985   0.574 -0.0276 -0.2316  0.2776
16717W        W36997   2.156  13.752   2.422  0.0083  0.1491  0.1586
16718W        W36998   5.156  11.684  15.716  0.0954  0.0058 -0.1869
16719W        W36999  11.631   5.640  12.820  0.1689 -0.2502  0.0304
16720W        W37000   3.919   1.857   1.962 -0.0633  0.0686 -0.0393
16721W        W37001   4.936  14.616   2.002  0.0573  0.2890 -0.0033
16722W        W37002   3.731   4.101   0.797  0.2788  0.1110 -0.1159
16723W        W37003  11.090  13.315   3.990  0.1643 -0.2355  0.0171
16724W        W37004  14.891   8.931   2.640  0.1460  0.3125  0.0348
16725W        W37005   8.696  10.174   3.270 -0.0053  0.1540 -0.0874
16726W        W37006   7.539   6.876   1.958  0.0222  0.0940  0.2326
16727W        W37007   6.098  11.185   3.008 -0.0924 -0.0199 -0.2410
16728W        W37008   7.544  17.009   2.681 -0.3075 -0.1041 -0.0395
16729W        W37009  11.648   0.236  12.728  0.1415 -0.0478  0.2937
16730W        W37010   7.926   0.367  15.645 -0.1111 -0.2049 -0.0137
16731W        W37011   5.277  10.478   0.853 -0.1348 -0.1090  0.1768
16732W        W37012  15.036   6.694  12.629 -0.2082 -0.0389  0.1292
16733W        W37013   5.240   1.702   0.221 -0.1548  0.2533  0.2753
16734W        W37014   9.698  16.750  16.562 -0.1124  0.0563  0.2019
16735W        W37015   4.912   1.980   3.229 -0.0639  0.1910  0.3116
16736W        W37016  13.749   5.902  12.501 -0.1021 -0.2512 -0.4939
16737W        W37017   8.512  11.530   3.418 -0.2088  0.0649  0.1649
16738W        W37018  14.211   6.114  14.278  0.3055  0.2217  0.0889
16739W        W37019  11.479   5.348  12.354 -0.1468 -0.0597 -0.1620
16740W        W37020  14.248   4.392   1.729 -0.1229 -0.0961  0.1776
16741W        W37021   6.981   7.928  12.800 -0.3213  0.1179  0.3040
16742W        W37022   7.591   2.298  12.842 -0.3251 -0.0576 -0.1462
16743W        W37023   3.421   0.901  14.467  0.1545 -0.1391 -0.0214
16744W        W37024   3.716   3.547   1.081  0.1413 -0.0750  0.0321
16745W        W37025  10.435  10.571  12.509 -0.0992  0.0934  0.0558
16746W        W37026   3.656   0.109   0.593 -0.0603 -0.2038 -0.1059
16747W        W37027   8.440   2.761  13.477 -0.1472  0.2229  0.1492
16748W        W37028   2.353   4.399   1.283 -0.0126 -0.1903  0.2017
16749W        W37029   7.674   4.129  11.405  0.3625  0.0502  0.0286
16750W        W37030  17.222  17.678   2.019  0.2125 -0.1884  0.1553
16751W        W37031   5.690  12.059  14.380  0.0905 -0.4299 -0.0649
16752W        W37032  11.783   1.389  12.463  0.0439  0.2578  0.4034
16753W        W37033   9.108   8.700   4.457 -0.0374 -0.0523  0.2113
16754W        W37034   3.861   2.962   4.651  0.0531 -0.0948  0.0032
16755W        W37035   9.435   0.781   0.942 -0.1101  0.1091 -0.2913
16756W        W37036   2.322   6.624   4.816  0.0429 -0.0199 -0.0220
16757W        W37037   3.544   6.521   0.058  0.0012  0.0258 -0.0663
16758W        W37038  15.795  15.564   1.123 -0.1515 -0.0098  0.0319
16759W        W37039  11.162   0.317   1.303  0.0731 -0.0953  0.0424
16760W        W37040   7.096  11.189   2.060  0.3099  0.2776 -0.0686
16761W        W37041  10.464   6.248   4.430  0.0760 -0.0559  0.4281
16762W        W37042   3.233  15.480   3.644  0.4393  0.1788  0.2826
16763W        W37043  16.954   1.596  12.662  0.2731 -0.0855  0.1413
16764W        W37044  11.161  12.877   2.954 -0.4080 -0.0807  0.0669
16765W        W37045   1.833   3.883  12.804  0.1128  0.0575 -0.2302
16766W        W37046   2.870   0.547   0.989 -0.3587 -0.1490  0.2130
16767W        W37047  14.761   6.967  15.302 -0.1266 -0.0669 -0.3825
16768W        W37048   0.130   7.220  12.682  0.1828  0.1653 -0.0067
16769W        W37049   0.387   7.658   3.468  0.0013  0.1326  0.1542
16770W        W37050   5.541   0.039  12.969  0.2638 -0.3539 -0.2048
16771W        W37051  13.023   6.418  15.449 -0.1598  0.2395 -0.0296
16772W        W37052   7.163  11.853  13.861  0.2317 -0.1218  0.1961
16773W        W37053   2.268   1.773  13.222  0.0866  0.1195  0.2078
16774W        W37054  13.885   6.220   1.021 -0.1706  0.1313  0.0480
16775W        W37055   0.672  14.916  13.160 -0.0025 -0.0390  0.0698
16776W        W37056   2.257  11.020   5.597 -0.1579  0.1642 -0.0016
16777W        W37057   4.761   0.714  14.292 -0.0222  0.2003  0.3865
16778W        W37058  14.686   0.831   0.823  0.0423 -0.0220  0.2046
16779W        W37059   9.332  12.014   2.892  0.1099 -0.1868 -0.0375
16780W        W37060  15.442  11.794   0.141 -0.2357 -0.1175 -0.1464
16781W        W37061   4.417   6.527  15.050 -0.1023  0.1006 -0.0816
16782W        W37062  13.163   9.611   3.201 -0.0196  0.1139 -0.0758
16783W        W37063   5.220   6.216   2.610  0.0081  0.4735  0.0655
16784W        W37064  11.037   7.069   3.908 -0.0662 -0.0703 -0.1188
16785W        W37065   6.462   0.415   1.982 -0.0519 -0.1609  0.0023
16786W        W37066   5.076   4.929  12.605  0.1597  0.0659 -0.1085
16787W        W37067   4.786  16.566   2.704 -0.0909 -0.1720 -0.0812
16788W        W37068   1.261   2.242   3.602 -0.1971  0.1755 -0.2096
16789W        W37069   4.946  13.175   4.650 -0.0820 -0.1559  0.0085
16790W        W37070  10.563  14.246   2.694 -0.0828 -0.3328 -0.0622
16791W        W37071   5.723   6.707  16.804  0.4591  0.0970 -0.0983
16792W        W37072   5.099   2.993  12.981 -0.0848 -0.1621  0.0655
16793W        W37073  17.047   6.635   0.401  0.0015  0.4282  0.1062
16794W        W37074   7.327  14.266  13.544  0.1266  0.3593 -0.0125
16795W        W37075   1.573  15.579   4.652 -0.0708  0.4704 -0.0264
16796W        W37076  12.045   9.509   1.316  0.0570  0.2897  0.0477
16797W        W37077  12.636  11.804   2.320  0.0746  0.2281 -0.0499
16798W        W37078   2.768   4.558   3.951 -0.0926 -0.3670  0.3614
16799W        W37079   9.325   1.467   3.279 -0.1827  0.2630 -0.0677
16800W        W37080  12.720  15.992   0.365 -0.1692 -0.4045  0.1629
16801W        W37081  12.421  11.474   3.839  0.1681 -0.0928  0.0781
16802W        W37082   2.405   8.258   2.980  0.2872  0.0635  0.1311
16803W        W37083   0.275   0.553   2.678  0.1077 -0.0874  0.0692
16804W        W37084   5.817  16.603  13.428  0.0156  0.1292  0.0488
16805W        W37085   4.585   5.682  16.001 -0.0210  0.2975 -0.2500
16806W        W37086   6.029   8.421  16.606 -0.0871 -0.0460 -0.2431
16807W        W37087   4.923  13.782  13.377 -0.1834 -0.0722 -0.1675
16808W        W37088   4.220   7.908   4.285  0.4439 -0.0983  0.1967
16809W        W37089  15.629  13.225   1.003  0.0569  0.1556  0.0663
16810W        W37090   5.119   8.226  12.744 -0.1006 -0.1137 -0.4023
16811W        W37091  12.726   8.663   0.728 -0.1697  0.0512  0.0009
16812W        W37092   0.095  11.492  13.279 -0.0089  0.1998  0.1756
16813W        W37093  10.873   9.390   4.064 -0.1969 -0.2243  0.0753
16814W        W37094  15.520   9.812   4.909  0.0433  0.0797  0.0627
16815W        W37095  16.314  14.205   2.829  0.0004  0.1728  0.0777
16816W        W37096   6.748  15.524  16.083  0.2439 -0.0199  0.0517
16817W        W37097  13.864  16.233  15.658  0.2611 -0.0175 -0.1537
16818W        W37098  12.325   3.225   4.374 -0.0141  0.5852  0.1091
16819W        W37099  14.708  13.661  12.957 -0.1340  0.0686 -0.0676
16820W        W37100  11.529   2.543   3.205  0.0695  0.2417 -0.0101
16821W        W37101   5.626  12.249   4.738  0.0745  0.0125 -0.0759
16822W        W37102   5.712   2.239  12.367 -0.1754  0.0994  0.0123
16823W        W37103   7.385  14.522  14.708 -0.1620 -0.1090 -0.0060
16824W        W37104  11.141  13.610  15.113 -0.1137 -0.1783 -0.2067
16825W        W37105  12.999  12.074  14.184  0.3044  0.1733 -0.0522
16826W        W37106   0.222   4.586   3.010 -0.1203 -0.2132  0.3113
16827W        W37107   1.162  16.025  16.120  0.1644  0.0523  0.2352
16828W        W37108   0.212   7.613  16.101 -0.0720  0.2532  0.1889
16829W        W37109   8.113   8.065  13.495 -0.0183  0.4831 -0.0141
16830W        W37110   3.209   4.306  15.887  0.2749 -0.1284  0.1471
16831W        W37111   6.334  17.508  12.316  0.3735  0.2679 -0.1657
16832W        W37112  15.069  12.259  12.323 -0.1570  0.1568 -0.0347
16833W        W37113   8.894  11.126  15.803 -0.2611  0.3673 -0.2642
16834W        W37114  15.647   9.781   3.539 -0.0422 -0.0495  0.1175
16835W        W37115  16.530  17.138   4.815  0.2688 -0.1195  0.0019
16836W        W37116  11.715   1.147  13.772 -0.1878  0.4808  0.1459
16837W        W37117   4.147   2.591  13.539 -0.1261 -0.1520 -0.2299
16838W        W37118  10.823   0.402   0.910  0.2597  0.2628  0.2155
16839W        W37119   7.886   5.222  14.684  0.1101 -0.0075 -0.3149
16840W        W37120  12.482  10.004   2.282 -0.1594  0.2262 -0.4838
16841W        W37121   3.744   3.721   3.554  0.1325 -0.1254 -0.0833
16842W        W37122   7.220   1.746  14.625 -0.3819  0.1651 -0.3679
16843W        W37123   6.272   9.021  15.563 -0.1151  0.2986  0.0334
16844W        W37124  12.993   4.820   0.367 -0.2734  0.1756 -0.0081
16845W        W37125   3.779   5.027  16.971 -0.0161 -0.1032 -0.0540
16846W        W37126  17.623   5.890   2.727  0.0166  0.2469  0.4065
16847W        W37127   3.039   5.237  15.696  0.0891  0.0831  0.2207
16848W        W37128   4.150  16.346  15.643  0.0293  0.2192 -0.0138
16849W        W37129  16.617   6.034  15.081 -0.1187  0.1723  0.0792
16850W        W37130  15.616  11.574   4.202  0.0212  0.3122 -0.2717
16851W        W37131   4.422   9.493  15.970  0.1378 -0.0350  0.2386
16852W        W37132  15.189  16.161   4.223 -0.0499  0.2457  0.2422
16853W        W37133   7.713  11.979  16.406 -0.0494 -0.3239 -0.2216
16854W        W37134   9.884   2.767   0.408 -0.1556 -0.2013  0.1159
16855W        W37135   1.016   4.800   1.545 -0.0919 -0.3185  0.3055
16856W        W37136   2.080   7.794   3.286 -0.2992 -0.0759  0.0243
16857W        W37137   9.732   2.638   2.756  0.0502  0.0639 -0.0206
16858W        W37138  13.149   5.780   1.186 -0.3481  0.0984 -0.1029
16859W        W37139   4.927  16.290   1.762  0.0953 -0.0566  0.0045
16860W        W37140  12.706   4.339  13.211  0.3155 -0.1799 -0.1226
16861W        W37141  16.179   7.273  15.737 -0.2308  0.0411 -0.0958
16862W        W37142  12.802  11.204  13.355  0.0827  0.0001  0.1057
16863W        W37143   1.829   5.958   0.097 -0.2871 -0.0171 -0.2685
16864W        W37144   2.167   6.778   3.619 -0.0915  0.0794 -0.4272
16865W        W37145   0.350  16.656  13.025  0.0450  0.0438 -0.0824
16866W        W37146   3.037  15.834   0.322  0.2020  0.0960 -0.0862
16867W        W37147   4.668  14.073  14.038 -0.0959  0.2332 -0.0581
16868W        W37148  11.120   4.892   0.161 -0.1168  0.0275  0.1374
16869W        W37149  13.177   0.862   0.652  0.1594  0.0152  0.2283
16870W        W37150   0.334   0.288  13.842  0.2561  0.2490  0.0153
16871W        W37151  14.265  17.634  15.966 -0.0842  0.2818  0.1640
16872W        W37152   8.968   7.388   1.436 -0.1778  0.1950 -0.0430
16873W        W37153   8.787   5.012   3.793  0.0283  0.1085  0.1401
16874W        W37154  16.716   5.631   1.463 -0.0261 -0.0351  0.0241
16875W        W37155  15.041  17.527   3.185  0.0185  0.0049 -0.2174
16876W        W37156  13.553   9.062  14.681  0.1106 -0.0047 -0.2264
16877W        W37157   2.297  14.051   0.931  0.0240 -0.1787 -0.0104
16878W        W37158   6.839   9.201   4.605 -0.0261  0.1378 -0.1252
16879W        W37159   7.113   7.477  16.973 -0.0435  0.2809  0.0303
16880W        W37160   5.121  15.355   3.499  0.2889 -0.2726 -0.0100
16881W        W37161  16.146   2.828  13.656 -0.1163 -0.1403 -0.3134
16882W        W37162  15.412  15.322   5.050  0.0387  0.2764 -0.1402
16883W        W37163  11.491   2.561   0.463 -0.0963 -0.0800 -0.3544
16884W        W37164   5.802  14.379   2.755 -0.2481  0.0827  0.2608
16885W        W37165   7.478  10.084  13.831 -0.2074 -0.0974  0.0882
16886W        W37166  10.065  10.701  15.299  0.1027  0.0406  0.0990
16887W        W37167   3.954   5.104  12.352 -0.1319  0.2343  0.1792
16888W        W37168  13.402  15.950  14.131  0.1913 -0.0749  0.0097
16889W        W37169  17.335  14.409  17.017 -0.0515 -0.4143  0.1518
16890W        W37170   0.430   7.612   4.886  0.2160  0.0400 -0.0319
16891W        W37171   8.043  13.066   1.002 -0.0678  0.3561 -0.2224
16892W        W37172   9.350  16.808   3.672  0.0408 -0.3425  0.0517
16893W        W37173   6.673   1.678  13.770 -0.3016 -0.1890 -0.0224
16894W        W37174   6.137  17.482  15.218 -0.1066  0.0380  0.3191
16895W        W37175   1.550  16.424   3.872  0.0089 -0.0061  0.1277
16896W        W37176   4.313   1.873   0.947 -0.0381  0.1370  0.0950
16897W        W37177   7.296   9.081  12.658  0.0987 -0.1853 -0.1492
16898W        W37178   1.415  16.505  14.369  0.0452 -0.2409 -0.1462
16899W        W37179  13.461   9.235  15.641 -0.0382 -0.0097 -0.2938
16900W        W37180  10.983   4.410   0.133  0.0958 -0.2640  0.0053
16901W        W37181   9.867  17.647  13.570 -0.2009 -0.0474  0.0583
16902W        W37182  11.538  14.062  15.165 -0.0074  0.0083 -0.2417
16903W        W37183   4.922  14.090   1.758  0.0149 -0.1843 -0.2415
16904W        W37184   2.916   4.444   2.407 -0.0791 -0.1581  0.0429
16905W        W37185  14.370  17.335   1.733  0.0929 -0.0663 -0.0295
16906W        W37186   3.225   2.028   1.534 -0.0742  0.1163  0.1562
16907W        W37187  10.092  11.854  13.272 -0.1982  0.0551  0.1588
16908W        W37188  12.053   0.579   4.152 -0.2507  0.3459 -0.2146
16909W        W37189   9.435   2.313   4.495  0.0999 -0.1051  0.0066
16910W        W37190   8.973   6.892   4.081 -0.1071 -0.2879 -0.0828
16911W        W37191   9.406   1.124   5.213  0.1956 -0.0426  0.0326
16912W        W37192   4.576   0.469   0.991  0.0540 -0.2932 -0.2915
16913W        W37193   8.295   8.458  15.569  0.0871 -0.0350  0.1874
16914W        W37194  11.162   7.151  15.215 -0.3251 -0.2764 -0.1009
16915W        W37195  16.850  15.018  13.318  0.0800  0.1816 -0.1018
16916W        W37196  12.461  16.665   1.552 -0.2740  0.0118 -0.1898
16917W        W37197  11.284   2.801   2.893 -0.1501  0.0103  0.0420
16918W        W37198  10.267  10.247   0.799  0.2110 -0.1020 -0.1680
16919W        W37199   3.230   3.225  16.846 -0.1900 -0.2385 -0.0338
16920W        W37200  15.739  17.373  16.484  0.0558 -0.0513  0.2799
16921W        W37201  12.517  12.415  13.845 -0.1217  0.1681 -0.0899
16922W        W37202   4.124  17.092   2.441  0.2109  0.0933 -0.0152
16923W        W37203  13.920  17.321   2.686 -0.0115  0.1395 -0.1333
16924W        W37204  14.801  14.103  14.316 -0.1680 -0.0849  0.0904
16925W        W37205   6.720  12.760   3.930  0.0400  0.3131  0.0426
16926W        W37206  16.973  14.546  12.064  0.1510  0.1742  0.2061
16927W        W37207  14.320  11.396  13.038 -0.0055  0.0731 -0.2590
16928W        W37208  15.140   5.994   3.868  0.1650 -0.3001 -0.2917
16929W        W37209  16.041  14.415   0.416 -0.0136 -0.3094 -0.0046
16930W        W37210   1.015   6.932  13.302 -0.0202 -0.1804 -0.1823
16931W        W37211  15.447   1.521  13.025 -0.0718 -0.1961  0.0314
16932W        W37212  16.525   9.219   3.473  0.0994 -0.1885 -0.1458
16933W        W37213   8.956  10.661   2.594 -0.1975  0.1789  0.1462
16934W        W37214   6.786   1.858   2.763 -0.1822 -0.0134  0.2858
16935W        W37215  10.855  15.703  15.675 -0.0683  0.0280 -0.0402
16936W        W37216   5.736   3.777  16.716  0.0981  0.0676 -0.0748
16937W        W37217  11.226   5.251   1.338  0.3803  0.1578 -0.3261
16938W        W37218  17.693   0.953  12.865 -0.0315 -0.3353 -0.1158
16939W        W37219   2.810   9.387  16.206 -0.1563  0.0269  0.1048
16940W        W37220  15.327  17.489   1.774 -0.1624 -0.0093 -0.0039
16941W        W37221  14.897  14.317   4.944 -0.1693 -0.2055 -0.0492
16942W        W37222   0.788   5.300   0.704  0.1362 -0.2635 -0.1344
16943W        W37223  12.864  11.817   3.468  0.3517  0.0159 -0.0224
16944W        W37224   2.213   6.742  16.691  0.2159 -0.2920 -0.1243
16945W        W37225  12.282   9.689   3.303  0.2317 -0.2150  0.2010
16946W        W37226  14.752   0.088  14.632  0.0700  0.1160  0.0289
16947W        W37227   2.319   1.287  13.115  0.1814  0.0636 -0.2099
16948W        W37228   0.980  14.309  16.639 -0.1268  0.0012  0.0332
16949W        W37229   7.787   3.915  16.283  0.1556  0.3213  0.1200
16950W        W37230   7.861   5.282  12.114  0.3084  0.1976  0.0235
16951W        W37231   0.305  12.692   0.560  0.3121 -0.3661  0.0337
16952W        W37232   9.543  14.176  15.469  0.0292 -0.1083  0.1391
16953W        W37233   5.775   0.374  12.637  0.0133  0.2858 -0.0366
16954W        W37234   8.625   2.686   1.025 -0.0743 -0.2028 -0.1913
16955W        W37235   0.968   7.036  15.818  0.1928 -0.0736  0.0782
16956W        W37236   5.273   3.580  16.563  0.0343 -0.2828 -0.1949
16957W        W37237  14.404  17.411  14.656  0.2153  0.0739 -0.1096
16958W        W37238  17.501  13.613   1.934  0.1248  0.1548 -0.0590
16959W        W37239   5.768  10.818  15.545 -0.0502 -0.0161 -0.1511
16960W        W37240   8.073  10.216   2.373  0.2023  0.0673 -0.0220
16961W        W37241   0.100   5.220  16.732 -0.1439  0.0731  0.3212
16962W        W37242  15.999  17.528   3.765  0.1430  0.1761  0.1146
16963W        W37243   5.636   8.900  14.876  0.1049 -0.2113  0.3024
16964W        W37244  16.685  12.609  15.292 -0.1735 -0.0488 -0.1540
16965W        W37245  12.232  14.104  13.453  0.3359 -0.1164 -0.4286
16966W        W37246   9.424  12.662  14.355  0.0637  0.0440 -0.0728
16967W        W37247   1.763   1.366  16.271 -0.1992 -0.4051  0.1608
16968W        W37248   0.162  12.415   2.459  0.2104 -0.2496  0.1699
16969W        W37249   7.958   8.467  13.856 -0.1289  0.2123 -0.2963
16970W        W37250   4.981   7.656   2.313 -0.0095 -0.0352 -0.1716
16971W        W37251   7.416   8.696  12.382 -0.1098 -0.1797  0.2601
16972W        W37252   5.531  10.127  12.803  0.1368  0.3275 -0.0898
16973W        W37253  14.137   6.743   4.610 -0.0026 -0.0447 -0.0444
16974W        W37254   3.997   2.622  12.627  0.0757 -0.0093  0.2341
16975W        W37255  13.566  15.022   4.035  0.3271  0.2562  0.0041
16976W        W37256   8.185  13.521   0.340 -0.3032 -0.1325 -0.1348
16977W        W37257   8.266  12.872  13.569  0.2569  0.0736  0.3825
16978W        W37258  12.292  15.830   0.282 -0.0975  0.1422  0.2253
16979W        W37259  13.009  11.098   0.606  0.1171  0.0518 -0.2869
16980W        W37260  11.984   9.217  12.193  0.1228  0.0255  0.3434
16981W        W37261   2.710  12.218  12.273  0.0373  0.0933  0.3842
16982W        W37262   2.450  12.645  14.719 -0.3376 -0.1752  0.2760
16983W        W37263   2.584   6.749   3.904  0.0902 -0.0344  0.2994
16984W        W37264   3.304  11.794  14.225 -0.0479  0.0137  0.2447
16985W        W37265   9.846  10.652  11.786  0.0738 -0.0481 -0.1630
16986W        W37266  10.599   5.621   3.694  0.3591  0.0388  0.1189
16987W        W37267  12.194   2.708   2.384 -0.4088  0.5036 -0.0671
16988W        W37268  12.117  17.337   1.060 -0.1726 -0.0362 -0.0030
16989W        W37269   4.324   2.428   0.408  0.0939 -0.1030 -0.1468
16990W        W37270   7.053   5.309   3.793 -0.3264 -0.0668 -0.0631
16991W        W37271   6.345   7.214  16.064 -0.3280 -0.2035  0.0921
16992W        W37272  12.957   2.357   0.614  0.0587 -0.0423  0.3356
16993W        W37273   5.672   7.342   1.533 -0.0368  0.0678 -0.2372
16994W        W37274   6.616  17.066  13.283 -0.0571 -0.0799 -0.2577
16995W        W37275   7.799   4.005  17.014  0.0017  0.2605 -0.3780
16996W        W37276   1.460  16.003  14.549  0.1826  0.1870  0.0327
16997W        W37277  14.384  16.165   0.361 -0.1302  0.3662 -0.0564
16998W        W37278   2.064  10.158  15.674 -0.1904  0.1572 -0.0510
16999W        W37279   1.657  15.677  14.194  0.1384  0.0799  0.0641
17000W        W37280  12.484   2.791   0.859 -0.1350 -0.0582  0.1349
17001W        W37281   3.491  11.047   2.073 -0.3547 -0.2986  0.1665
17002W        W37282   0.634   8.258  14.822  0.1365  0.1227  0.0453
17003W        W37283  15.656   7.995   0.217 -0.4112 -0.0355 -0.0200
17004W        W37284  14.859   2.063  12.482  0.0328 -0.1622 -0.1410
17005W        W37285   0.367   8.397   2.444  0.0545  0.1555  0.1914
17006W        W37286   7.966  17.646   1.842  0.1081 -0.0023 -0.2052
17007W        W37287   0.497   8.310  16.583  0.1028  0.2506  0.1826
17008W        W37288  11.983   8.940   1.601 -0.3196 -0.1787  0.3241
17009W        W37289  10.166   7.496  17.007 -0.2477  0.2323  0.2260
17010W        W37290   0.375   3.794   0.150 -0.1387 -0.0956  0.1495
17011W        W37291   7.686   0.250   4.497 -0.1296 -0.0819 -0.1861
17012W        W37292  15.490   8.013   1.788 -0.0590  0.0561 -0.1437
17013W        W37293   1.030   8.330   4.840 -0.1535  0.1256  0.0063
17014W        W37294  13.494   3.301  14.666 -0.5204  0.3233 -0.3976
17015W        W37295  17.129   0.355   3.401  0.1576  0.1005  0.0754
17016W        W37296   9.740  16.033  15.724 -0.0364  0.1214  0.1553
17017W        W37297  15.232  17.501   4.554  0.1808  0.2645  0.3156
17018W        W37298  12.971   6.287  12.347  0.0573 -0.1481  0.0199
17019W        W37299   3.400   6.689   2.838  0.3903  0.0809  0.2877
17020W        W37300  13.231   1.377   0.573 -0.0311  0.1461 -0.0625
17021W        W37301  11.286  10.924  16.713  0.0528  0.2303 -0.0570
17022W        W37302  12.484   0.646  12.116 -0.2284  0.1608  0.0725
17023W        W37303   4.821   2.018  14.263 -0.1554  0.1589 -0.0270
17024W        W37304   9.648  11.114  16.333 -0.1453 -0.1432 -0.0556
17025W        W37305  15.256   9.450   4.318  0.0125  0.2083 -0.1340
17026W        W37306  12.998   8.086   3.304  0.2163  0.1084  0.2499
17027W        W37307   2.539   5.612   4.356  0.1474  0.1781 -0.2590
17028W        W37308  17.512  10.995  17.019 -0.0128  0.2811  0.4781
17029W        W37309   0.499   0.334  12.554 -0.2306  0.2346 -0.2673
17030W        W37310   6.582  16.925  15.952 -0.4189  0.1196  0.0077
17031W        W37311   4.810   8.699   3.121 -0.0539  0.0040 -0.0699
17032W        W37312  16.014  15.068  12.063  0.3645 -0.0015 -0.2812
17033W        W37313   2.128  14.298  12.338 -0.1741  0.1181 -0.0195
17034W        W37314   9.075  12.075   0.292  0.2043 -0.0662 -0.1743
17035W        W37315  10.096   4.726  16.680 -0.0232  0.1548 -0.0186
17036W        W37316   5.740   9.628  12.782  0.1846 -0.2726  0.1770
17037W        W37317  10.385  15.894  13.882 -0.3175 -0.1773 -0.0283
17038W        W37318   8.258   7.760  13.014 -0.0590 -0.0815 -0.0967
17039W        W37319   5.033   8.022  14.635 -0.0955  0.1435  0.0960
17040W        W37320   0.530   7.352   0.611 -0.1007  0.1512  0.2319
17041W        W37321  13.413  10.745  16.404 -0.1750 -0.0699  0.0526
17042W        W37322   4.419  12.498   1.312 -0.2455 -0.1854  0.0891
17043W        W37323  13.907   3.374  14.301 -0.4938  0.1913  0.0387
17044W        W37324   5.224   1.277  15.063  0.2207  0.2590  0.0276
17045W        W37325  10.874  12.139   0.028  0.0747 -0.2030 -0.1999
17046W        W37326   4.989  16.641   1.367 -0.0937  0.1756  0.0120
17047W        W37327   2.405   1.151   4.156 -0.1036 -0.1304 -0.1069
17048W        W37328   8.602  10.049  12.041 -0.0411 -0.0686 -0.4179
17049W        W37329  12.910  12.149   1.990 -0.1919  0.1672 -0.0062
17050W        W37330   7.354  14.914  13.751  0.1547 -0.1070 -0.1566
17051W        W37331   1.386  11.224   2.236 -0.1955  0.0627 -0.3569
17052W        W37332   9.905  12.731  15.925 -0.3085  0.1447 -0.0635
17053W        W37333  14.779  15.958  15.953 -0.1858  0.1700 -0.2202
17054W        W37334  11.164   2.784  15.869 -0.1041  0.0313  0.1593
17055W        W37335   7.008   3.192  15.035 -0.1559 -0.3173 -0.0678
17056W        W37336   5.116   0.948  16.833 -0.0098 -0.3035  0.0994
17057W        W37337   9.468   3.481  16.817 -0.0096  0.0207  0.6985
17058W        W37338  17.407  12.642   4.143  0.2873  0.0781  0.2468
17059W        W37339  13.523  17.503   0.014  0.1573  0.0867  0.1693
17060W        W37340   6.333  11.468   4.648 -0.1409  0.0366  0.1985
17061W        W37341   6.362   5.042  16.878 -0.0765 -0.0537 -0.1860
17062W        W37342  11.703   4.816  15.415 -0.2201 -0.0886 -0.0609
17063W        W37343   7.926   7.821   4.691 -0.2054 -0.0817  0.1636
17064W        W37344  11.518   0.492  11.888  0.0133  0.0100  0.1791
17065W        W37345   1.644   3.032   0.128  0.3120 -0.1858 -0.3813
17066W        W37346  15.059  16.960  15.935  0.0105  0.0376 -0.1969
17067W        W37347   7.737   8.713   4.065  0.0175  0.1897 -0.0347
17068W        W37348   8.948   2.304   0.748  0.2495  0.3709  0.1248
17069W        W37349   6.822  10.425   4.747 -0.1826  0.1767 -0.1946
17070W        W37350   6.938  11.505  16.793  0.0953 -0.1832  0.1975
17071W        W37351  14.699  17.142   3.055  0.1047 -0.0951  0.0534
17072W        W37352  10.927  11.745  13.390 -0.0886 -0.5113  0.1519
17073W        W37353  16.184   4.151   3.275  0.0991 -0.0452  0.0837
17074W        W37354  12.728  16.496   0.223  0.0050  0.2253  0.0267
17075W        W37355   4.904   3.258  13.350 -0.1121  0.0288 -0.1168
17076W        W37356  15.490   0.041  12.546  0.0137 -0.0953 -0.2279
17077W        W37357   7.091  15.599  13.842  0.0519 -0.0492  0.0228
17078W        W37358   7.498   1.210   1.426 -0.1221  0.0663 -0.4840
17079W        W37359   1.911   9.024   0.084  0.1340 -0.1148 -0.1147
17080W        W37360   6.192  13.483  13.563 -0.2540 -0.1287 -0.0530
17081W        W37361  12.496  14.938  15.954 -0.5461  0.1349 -0.1514
17082W        W37362  13.730   4.896   1.577 -0.3810 -0.2785 -0.0556
17083W        W37363  15.600   1.680  16.752  0.2777 -0.2545 -0.0171
17084W        W37364  10.169  13.780  12.574  0.2750 -0.1113 -0.3069
17085W        W37365   1.268  10.167  15.782 -0.1291 -0.1584  0.1349
17086W        W37366   5.182  13.652   2.580  0.1740 -0.0107  0.0058
17087W        W37367   6.464  17.717  14.265  0.3172  0.1516 -0.1089
17088W        W37368   3.003  13.442   2.433  0.3709  0.0383  0.1093
17089W        W37369  16.398   4.385   3.638 -0.0020 -0.2540 -0.1501
17090W        W37370  15.920  17.407  15.501 -0.0887 -0.0058 -0.0910
17091W        W37371   1.544   5.521   5.311  0.4578  0.1302  0.1725
17092W        W37372  14.927  10.937   3.884 -0.3335 -0.1713  0.2005
17093W        W37373  14.085  12.057  12.594  0.1814  0.0317  0.1784
17094W        W37374   3.857  17.012   0.859  0.1255  0.0011 -0.1224
17095W        W37375   6.830  11.815  15.544  0.3909 -0.1424  0.0225
17096W        W37376   0.216   9.805   3.619  0.0235 -0.0119 -0.1767
17097W        W37377   9.912   3.970  16.052  0.2160 -0.0501 -0.3542
17098W        W37378   8.170  10.915   5.965  0.1711 -0.1414 -0.0142
17099W        W37379  15.028   9.540   1.865 -0.0153 -0.0791  0.4558
17100W        W37380   0.549  16.211   3.976 -0.0840  0.1479  0.0764
17101W        W37381  12.450   3.128  12.025 -0.1155  0.3282  0.3553
17102W        W37382  10.067  16.404  16.352 -0.2552  0.0510  0.0166
17103W        W37383  10.517  13.520  13.330  0.0844 -0.1350  0.1060
17104W        W37384  12.484  14.463  13.086  0.0693  0.1578 -0.1847
17105W        W37385  16.627   6.874   4.884  0.1779  0.0367 -0.3371
17106W        W37386  16.186  13.555  14.207 -0.0713  0.0474 -0.1223
17107W        W37387   5.221   6.766  12.783  0.0875  0.0060 -0.0956
17108W        W37388  15.534   7.548   3.413 -0.0378 -0.0832 -0.0347
17109W        W37389   3.435  10.282   0.270 -0.0618 -0.0620  0.2374
17110W        W37390   9.370  12.308  11.603  0.0642 -0.1687  0.2077
17111W        W37391  13.838  14.879   1.785 -0.1939 -0.0629 -0.0543
17112W        W37392   5.458  12.655  15.636  0.1250  0.0123  0.1762
17113W        W37393  12.918   2.747  15.031  0.2533  0.4588 -0.1072
17114W        W37394   8.568  10.192  14.690 -0.0149  0.2228 -0.3445
17115W        W37395   8.001  10.860  15.402 -0.2027 -0.2618 -0.0938
17116W        W37396   4.773   0.550  16.678  0.0654 -0.1219 -0.1397
17117W        W37397   3.294   0.982   4.234  0.0267 -0.1045 -0.0153
17118W        W37398   8.449  15.861  15.394  0.0448  0.0678  0.5443
17119W        W37399   5.834  12.430   0.859  0.3392  0.0610 -0.0184
17120W        W37400   5.355   7.608   2.667 -0.0006  0.1766 -0.3846
17121W        W37401   7.085   2.346  15.075  0.0959 -0.0114  0.0433
17122W        W37402  17.020   7.752  15.210  0.2868 -0.0401  0.2757
17123W        W37403   6.407   7.878   3.983 -0.0450  0.1228  0.1786
17124W        W37404  16.656  16.591   4.055 -0.0478 -0.0943  0.0265
17125W        W37405   5.418  12.333  13.341 -0.2917 -0.0204  0.0052
17126W        W37406   9.142   8.579   1.022  0.1274  0.0333  0.0068
17127W        W37407   5.990  16.904   3.655 -0.1243  0.2803 -0.2122
17128W        W37408   4.828   3.550  16.821 -0.1915  0.0082 -0.0739
17129W        W37409   2.423   2.396  15.404 -0.0798  0.1247  0.0201
17130W        W37410   6.491  10.899   3.291  0.1165 -0.0243 -0.0672
17131W        W37411   0.001   8.595  15.395 -0.1674  0.1099 -0.1033
17132W        W37412  13.875   1.122   0.039 -0.1317 -0.0975 -0.0633
17133W        W37413  17.190   7.941  15.591 -0.1979  0.1109 -0.0168
17134W        W37414   1.790   5.227  12.617  0.1853  0.1099 -0.2103
17135W        W37415   3.814  13.671  15.021 -0.0688  0.0009  0.0257
17136W        W37416   8.235   3.017   1.094  0.1274 -0.0358  0.0430
17137W        W37417   4.603  16.112   3.379  0.0237  0.1356 -0.2901
17138W        W37418   3.482   4.702  15.100 -0.0103  0.2299 -0.1255
17139W        W37419   8.673   2.344  14.441 -0.1523 -0.1473 -0.2028
17140W        W37420   9.255  11.700   0.991  0.1044 -0.0434  0.1011
17141W        W37421   6.428   4.256  14.375  0.0945 -0.1391  0.2037
17142W        W37422  14.638   9.739  13.535 -0.1952 -0.0680  0.0692
17143W        W37423   5.312   6.235  12.887 -0.0183 -0.3888 -0.2809
17144W        W37424  16.488  10.722   2.351  0.0972  0.4807  0.2973
17145W        W37425   9.091  15.026   0.011 -0.0910 -0.0546  0.3945
17146W        W37426   8.486   3.126  15.810 -0.0593 -0.0913  0.1083
17147W        W37427   5.833  11.124   2.532  0.0172 -0.0086  0.0002
17148W        W37428   3.167   3.821   3.526 -0.1403  0.1531  0.2382
17149W        W37429   2.101  13.229   3.415  0.0760  0.0672 -0.1896
17150W        W37430  14.334   4.313   3.852 -0.0036 -0.0515 -0.3697
17151W        W37431  10.475  12.670   1.704 -0.3340  0.2741 -0.1532
17152W        W37432   8.531  15.619   0.510 -0.0808 -0.0974 -0.1861
17153W        W37433   4.793  12.008  12.342  0.0485 -0.1845 -0.3251
17154W        W37434  17.280  11.245  15.796 -0.2645 -0.0405 -0.1309
17155W        W37435   4.575  14.155   0.323  0.0116  0.0320  0.0680
17156W        W37436   9.602   1.274  13.644 -0.2835  0.0375  0.0933
17157W        W37437   8.107   9.798   1.745  0.0371  0.0766 -0.2007
17158W        W37438  10.139  13.293  15.975 -0.0858  0.0486  0.0282
17159W        W37439  10.592  11.362  14.362  0.0917  0.2292 -0.0301
17160W        W37440  11.191  16.829   4.129 -0.0871 -0.0765 -0.0911
17161W        W37441   3.449   3.877  13.680  0.4493  0.0359  0.2970
17162W        W37442   6.619  15.471  15.545 -0.0525 -0.1081  0.3985
17163W        W37443   2.636   6.009   4.050  0.1477  0.0473  0.1960
17164W        W37444  17.259  16.370  13.365 -0.0662 -0.0554  0.0113
17165W        W37445   2.586   3.280  15.999  0.1180  0.1531 -0.3156
17166W        W37446   5.257  15.962  12.809  0.0739 -0.0004  0.1619
17167W        W37447  16.819  14.134  13.115  0.1888  0.0502 -0.1672
17168W        W37448  10.598   3.384   1.765 -0.0304  0.2691 -0.1972
17169W        W37449  11.919   7.774  12.060 -0.1358  0.0488  0.2241
17170W        W37450   2.864  15.773   1.761 -0.0499 -0.1078 -0.0751
17171W        W37451   0.508   4.719   3.422  0.0759 -0.2439  0.0381
17172W        W37452   1.712   4.319   5.052  0.3750 -0.2748  0.0199
17173W        W37453   3.504  14.653  14.258 -0.0542 -0.1634 -0.0677
17174W        W37454  15.919  15.831   1.495 -0.1292  0.0017  0.0416
17175W        W37455   4.336   0.892  16.047 -0.0555  0.1297  0.0027
17176W        W37456  11.602   9.673   2.094 -0.0576 -0.0187  0.1869
17177W        W37457  11.298   6.162   1.629 -0.1007 -0.2567  0.2959
17178W        W37458  15.027  10.463  13.763 -0.1369 -0.2002  0.0163
17179W        W37459   1.877  10.429   1.363  0.2733 -0.0259  0.1565
17180W        W37460   1.902  16.320   0.026  0.0616 -0.2479  0.1601
17181W        W37461  16.314  10.668  13.374 -0.2019 -0.3811  0.1872
17182W        W37462  13.632  17.705  13.765  0.2210 -0.1412  0.0671
17183W        W37463  14.468   0.039  16.551 -0.0141 -0.1443 -0.2165
17184W        W37464   0.785  10.397   1.890  0.0628  0.0995  0.1113
17185W        W37465  12.860   9.425  16.350  0.4004  0.0401  0.1947
17186W        W37466  13.990  10.403  12.731  0.2223  0.2487 -0.1745
17187W        W37467   2.489   8.378  15.680  0.2451 -0.0909  0.1208
17188W        W37468  10.915   7.061   1.664 -0.0459  0.2833  0.1002
17189W        W37469   0.889  16.130   2.035 -0.2167 -0.5460 -0.0562
17190W        W37470  16.612  10.612   4.105 -0.2360 -0.3890 -0.0708
17191W        W37471   4.137  14.570   1.680  0.4216 -0.1181 -0.0270
17192W        W37472   0.972  10.487   2.383  0.1617 -0.3150 -0.0740
17193W        W37473  14.323  17.367  13.322  0.1786 -0.1389  0.1869
17194W        W37474  11.564   2.419  12.303 -0.1375 -0.3736 -0.3267
17195W        W37475  11.053  14.514  11.990  0.1043 -0.3406 -0.0500
17196W        W37476  14.859   2.265  14.576  0.1052  0.2219  0.1104
17197W        W37477   7.254   1.160   3.265  0.0023  0.0170  0.1917
17198W        W37478   7.855   7.850   2.647 -0.1760 -0.1233 -0.0357
17199W        W37479  11.151   6.012  15.405  0.0618  0.3927 -0.0621
17200W        W37480   5.904   4.716   0.621  0.1760 -0.0979  0.1992
17201W        W37481  12.697   1.025  14.132 -0.2349 -0.1026  0.1562
17202W        W37482   3.418   6.100  14.820  0.1279  0.0561  0.2484
17203W        W37483   3.636   6.326  16.069 -0.0247 -0.3543 -0.1570
17204W        W37484  13.914  16.062  14.170 -0.1385  0.3184 -0.1449
17205W        W37485  13.305   7.382   2.899 -0.2894  0.2996  0.0535
17206W        W37486   1.379  10.075  16.260 -0.1142 -0.0179  0.0907
17207W        W37487  14.206   2.118   2.669  0.0728  0.1095 -0.0739
17208W        W37488   3.121   6.074  14.204 -0.0201 -0.0663  0.1098
17209W        W37489   1.161   2.058   3.051  0.2774  0.1361 -0.0932
17210W        W37490  15.068  11.396  15.938  0.0057 -0.0232 -0.2069
17211W        W37491   6.575  10.214  15.309 -0.1458 -0.0319  0.0256
17212W        W37492   0.707  16.360   2.833  0.2152 -0.0004 -0.0215
17213W        W37493   8.124   8.573  12.601  0.1705 -0.0276 -0.0652
17214W        W37494   9.447  13.286   4.107 -0.2245  0.0235  0.0607
17215W        W37495   0.879   7.676  13.009  0.2100 -0.0541  0.0058
17216W        W37496  11.140   2.976   4.876  0.0059 -0.0378  0.3438
17217W        W37497   8.476   8.991   3.156  0.1824 -0.2263  0.3121
17218W        W37498   1.296  17.152   2.672  0.1062 -0.0478  0.2501
17219W        W37499   4.352  11.648   3.655 -0.1572 -0.1163  0.0859
17220W        W37500  12.318   8.544  12.936 -0.1423  0.1927 -0.3797
17221W        W37501   7.586   3.196   3.625  0.0040  0.2246 -0.1420
17222W        W37502   7.899  12.698   3.123  0.1096 -0.0744  0.0497
17223W        W37503   4.611   7.020  13.767  0.0519  0.1074 -0.0235
17224W        W37504   5.287   7.534  15.560  0.2359  0.0006  0.0329
17225W        W37505   9.851   2.203  13.555  0.1902 -0.1458 -0.1982
17226W        W37506  10.841   1.589   2.621 -0.1497  0.2990 -0.1375
17227W        W37507  10.826   6.260  15.790  0.3186  0.0399  0.0293
17228W        W37508   2.949   1.531  14.644  0.0721 -0.0423 -0.2226
17229W        W37509   9.593   5.259  14.598  0.1594 -0.0184  0.0784
17230W        W37510  17.362   1.614  16.035  0.2413  0.1796  0.0459
17231W        W37511  16.300   8.188  15.974 -0.1768 -0.1997 -0.0830
17232W        W37512   1.813  17.226   1.881 -0.0191 -0.0064 -0.0323
17233W        W37513   8.210   1.665   4.628 -0.1115  0.2126 -0.0693
17234W        W37514   1.986   7.157   2.054  0.0023  0.2236  0.1142
17235W        W37515  14.652   0.873  13.038 -0.3200  0.0698  0.4163
17236W        W37516  10.886  14.444  15.947  0.0097 -0.1601  0.4458
17237W        W37517   5.924   1.642   2.199  0.2127 -0.0491 -0.0794
17238W        W37518  12.015  11.899  13.112  0.1339  0.2317  0.3628
17239W        W37519  15.696   0.079   0.336  0.4192 -0.0075  0.2179
17240W        W37520   9.884   6.070   4.409  0.2296  0.2631 -0.1958
17241W        W37521   4.190  10.711  15.208  0.0291  0.0888  0.0490
17242W        W37522   4.214   0.680   2.662 -0.0226  0.1337 -0.4996
17243W        W37523   5.332   6.842  16.497 -0.1411 -0.0927 -0.1292
17244W        W37524  10.050   4.119  14.488  0.1052  0.2775  0.3082
17245W        W37525   1.851  13.098   3.876  0.0713  0.2542 -0.0250
17246W        W37526   6.653   9.207  13.698 -0.2068 -0.0216  0.0312
17247W        W37527   8.391   8.498   2.876 -0.1477  0.1857  0.0236
17248W        W37528   3.642  10.628   3.042  0.2289 -0.0023  0.1187
17249W        W37529   2.819  16.335  15.658  0.1061 -0.1873  0.2365
17250W        W37530  15.479  13.021  13.007 -0.0688 -0.1936 -0.2436
17251W        W37531  10.741  15.681  16.124 -0.0024 -0.0919 -0.0127
17252W        W37532   1.199   4.813  14.718  0.2339  0.0547  0.4486
17253W        W37533  12.758   1.078  12.180 -0.1974  0.4423  0.0073
17254W        W37534   2.149  12.320  15.482 -0.2720  0.0697 -0.1746
17255W        W37535   6.737   3.502  12.629  0.0655  0.2485  0.1049
17256W        W37536  16.447   3.650   5.706 -0.1168  0.0808  0.0030
17257W        W37537  14.188   8.046   4.763  0.1103 -0.1240  0.0051
17258W        W37538  13.691  12.473  12.587  0.1289 -0.1635  0.0526
17259W        W37539  15.897   4.205   0.028  0.0921  0.0217 -0.2351
17260W        W37540  15.366  14.562   4.742 -0.0725  0.1219 -0.1030
17261W        W37541   8.417  13.215  14.830 -0.0369  0.1146  0.1009
17262W        W37542  15.837   3.612  11.997  0.1270 -0.1191  0.0415
17263W        W37543   9.396  12.045   2.411 -0.2015 -0.0305  0.0125
17264W        W37544  17.612  14.951  15.283  0.0123  0.1401 -0.1600
17265W        W37545   2.325  13.317   0.875  0.0584 -0.1379 -0.0625
17266W        W37546  14.519  11.316  12.528  0.3064 -0.0331 -0.2792
17267W        W37547   6.000  15.386  12.931 -0.0939  0.1505 -0.3734
17268W        W37548  13.549   6.388  12.595 -0.2200  0.0247  0.0968
17269W        W37549   5.358   7.526   1.059  0.1117  0.3657 -0.1521
17270W        W37550   9.578   5.717  14.325 -0.2136  0.1181  0.1869
17271W        W37551   2.105   0.249   3.123  0.0910 -0.0738  0.1095
17272W        W37552   4.005   4.981   2.632  0.0714  0.1054  0.0676
17273W        W37553   6.893  12.282   3.151  0.2251  0.0890  0.1621
17274W        W37554   6.762   9.128  14.979  0.0197 -0.0578 -0.0622
17275W        W37555   0.969  13.401   3.081 -0.1539 -0.1290  0.0203
17276W        W37556  16.014  11.345   1.940 -0.2441 -0.2084  0.1101
17277W        W37557   2.466   1.473  14.505 -0.0611 -0.0185  0.2207
17278W        W37558  10.600   8.051   4.301  0.3520  0.1743  0.3203
17279W        W37559   2.000  12.506   0.705 -0.0913 -0.0167 -0.1360
17280W        W37560   8.950  16.358  13.496 -0.0027  0.0924 -0.1066
17281W        W37561   1.835  14.746   0.414 -0.1553 -0.0151 -0.0667
17282W        W37562  14.542  12.563  16.073  0.0805  0.0772 -0.0944
17283W        W37563  12.540   4.726  14.559  0.0130 -0.2409  0.4266
17284W        W37564   1.973   6.097  15.324 -0.0852  0.3344  0.1190
17285W        W37565  17.010   3.920   4.116 -0.3018  0.0001  0.3525
17286W        W37566   4.263   0.683  14.029  0.2345  0.2691 -0.2397
17287W        W37567   4.116  13.487   0.490 -0.0655 -0.2435  0.2513
17288W        W37568  17.639   8.433   3.247 -0.2342 -0.0015  0.1578
17289W        W37569  15.583   3.423  13.610 -0.1799  0.0168  0.0988
17290W        W37570   0.954   5.156  16.840 -0.1756  0.0777  0.0131
17291W        W37571   7.034  13.795  14.589  0.3584  0.0279 -0.1593
17292W        W37572  17.438   3.933   4.935 -0.0654 -0.2623 -0.2403
17293W        W37573  14.881  12.866   2.655 -0.3717 -0.1594  0.0475
17294W        W37574  10.540  15.963   0.431  0.0956 -0.0012  0.0862
17295W        W37575  16.139   5.170   2.602 -0.1247 -0.0834 -0.0003
17296W        W37576   6.918   1.968  15.362  0.3088 -0.1164  0.0088
17297W        W37577   6.679   6.127  16.062 -0.4305 -0.1768  0.0599
17298W        W37578   9.225   4.588  13.078  0.0017  0.0536  0.0422
17299W        W37579   0.413  11.115  12.999  0.0831  0.5832 -0.1475
17300W        W37580   8.836   7.737  15.136 -0.0084  0.2209  0.1141
17301W        W37581   8.139   4.435  14.366  0.0550 -0.1573 -0.2445
17302W        W37582  16.744  17.106   2.893  0.2098 -0.0021 -0.3190
17303W        W37583   1.009  12.276   0.284 -0.3109 -0.0752  0.0268
17304W        W37584   9.777   7.542   2.797 -0.0274 -0.0324 -0.2548
17305W        W37585   1.332  13.035  16.342  0.0538 -0.0108  0.2758
17306W        W37586  14.171   7.970  15.018  0.2024  0.0946 -0.0061
17307W        W37587   2.178   8.700   2.732  0.2805 -0.0680  0.1383
17308W        W37588  13.287   0.324  12.425 -0.2451  0.4044 -0.3268
17309W        W37589  15.666   2.700  13.753 -0.0918 -0.0289 -0.3027
17310W        W37590  10.705   5.671  13.981  0.0270 -0.1599 -0.1243
17311W        W37591   0.017  11.054  14.047 -0.1193  0.1917 -0.2123
17312W        W37592  15.148   0.150   2.175  0.2686 -0.0754  0.0548
17313W        W37593   8.506   1.706  15.776  0.0472 -0.2366 -0.0008
17314W        W37594  11.478  12.012  15.949 -0.2418  0.0187  0.1206
17315W        W37595   2.212   7.025  16.292  0.0332 -0.4591 -0.1608
17316W        W37596   6.530  11.646  14.867 -0.1038  0.2595  0.1077
17317W        W37597  15.416   9.370  14.813  0.0572  0.2066 -0.1938
17318W        W37598   2.978  16.243   3.249  0.0550 -0.0116 -0.0551
17319W        W37599   3.716   4.420  14.713  0.1085 -0.0217  0.0122
17320W        W37600  13.621  12.826  14.041 -0.1495 -0.2840 -0.0223
17321W        W37601   4.364   0.751   3.222 -0.1687  0.1534  0.3776
17322W        W37602   2.078   5.267  14.903 -0.0203  0.3222 -0.1140
17323W        W37603   8.132   6.274  12.405  0.1437 -0.0882 -0.0366
17324W        W37604   3.249   1.921   0.742  0.0841  0.1117  0.1323
17325W        W37605   6.300   8.591  16.180 -0.1190  0.1420 -0.1074
17326W        W37606   5.680  11.433  13.317  0.0605  0.0437  0.1795
17327W        W37607   0.414   6.109   3.367 -0.1659  0.1340 -0.2536
17328W        W37608   3.800   8.152   0.523 -0.0767  0.1604 -0.5132
17329W        W37609  10.121  10.946  11.441  0.0520 -0.2626  0.1556
17330W        W37610   7.528   5.052  14.985  0.2153 -0.5486  0.0132
17331W        W37611   5.522  15.722   1.142  0.3588  0.2109 -0.3205
17332W        W37612   5.952  16.366   0.587 -0.1476 -0.2700 -0.0560
17333W        W37613  11.593   6.686   0.053 -0.3339 -0.0697 -0.2718
17334W        W37614  15.007  10.086   1.085  0.0845  0.3755 -0.0988
17335W        W37615  12.272  16.265   0.035 -0.1076 -0.1068 -0.0418
17336W        W37616  10.768  15.302  15.367 -0.0347 -0.1299  0.3351
17337W        W37617   3.054   2.552  15.797 -0.0388 -0.2093  0.2435
17338W        W37618   1.234   0.173  13.977  0.0206 -0.4621  0.0236
17339W        W37619  11.397   2.093   3.249  0.0930 -0.2231  0.2862
17340W        W37620  16.780   1.072   2.789  0.0901 -0.1008  0.2739
17341W        W37621  17.622   2.547   3.131  0.3217  0.2535 -0.0331
17342W        W37622   3.367  13.688   2.688  0.0334  0.0532  0.2867
17343W        W37623   6.754   1.422  13.358 -0.3962  0.0117  0.0632
17344W        W37624   7.773  17.628   2.654  0.0610  0.0408 -0.1337
17345W        W37625  14.157   4.884   1.049  0.1827 -0.0088  0.2150
17346W        W37626   4.046   9.758  13.533  0.0340  0.1310  0.1056
17347W        W37627  15.383   4.581  14.562  0.1558  0.1186  0.1381
17348W        W37628  15.674   4.765  14.961  0.1867 -0.1172 -0.1202
17349W        W37629   1.345   8.827   0.466 -0.1884  0.3600 -0.2395
17350W        W37630  13.055   3.752   0.411 -0.2350 -0.0883 -0.0664
17351W        W37631   3.401  11.788  15.137 -0.1757 -0.0778 -0.1377
17352W        W37632  13.411   8.005   0.244 -0.3865  0.1564 -0.1679
17353W        W37633   9.917   0.853  15.482 -0.0894  0.0444 -0.0430
17354W        W37634   4.574   3.848   0.097 -0.0557  0.1330 -0.1553
17355W        W37635   3.261  15.906  13.018 -0.1258 -0.2036 -0.1724
17356W        W37636  14.893  12.234   1.395 -0.1843  0.2366  0.2085
17357W        W37637   8.957   2.329  14.826 -0.2890  0.0607  0.0812
17358W        W37638   2.714  16.708  13.695  0.1819 -0.2816  0.2804
17359W        W37639   3.859  17.500   0.959  0.1433 -0.0471  0.1449
17360W        W37640  13.356   9.360   4.366 -0.0417  0.0423 -0.3642
17361W        W37641   0.562   8.625   1.355 -0.2204  0.3250 -0.5381
17362W        W37642   8.933  11.495  12.821 -0.1225  0.0343 -0.3880
17363W        W37643  16.862  14.810   0.517  0.0409 -0.0381 -0.0414
17364W        W37644  17.554   8.948  15.720  0.1618  0.1545  0.2456
17365W        W37645   2.301  13.088   1.701 -0.1712  0.3886  0.1302
17366W        W37646   0.817   0.075  13.619  0.2170  0.1812  0.2559
17367W        W37647   2.912  13.993  13.457 -0.1250  0.0061 -0.0027
17368W        W37648  15.831  10.016   0.720  0.0234 -0.1053  0.1531
17369W        W37649   2.057  12.276  13.384  0.0264 -0.1348 -0.1401
17370W        W37650   7.139  11.298   1.564 -0.3023 -0.1437 -0.0281
17371W        W37651  13.533   0.486   3.244  0.1904  0.1238  0.0643
17372W        W37652  12.409  13.211  15.891  0.0097 -0.0947  0.0065
17373W        W37653  12.979   9.369  13.873 -0.2212 -0.0933 -0.1321
17374W        W37654  17.173   1.502   2.713  0.0311  0.0298 -0.0387
17375W        W37655  15.811   3.229  15.765  0.2909  0.2150  0.3602
17376W        W37656   2.888   9.249   4.063 -0.7038  0.2996  0.0340
17377W        W37657  15.015  12.127   3.153 -0.0562 -0.1888 -0.1647
17378W        W37658   8.163  11.123   1.467 -0.2778  0.0377  0.0374
17379W        W37659  14.956  12.960   3.436 -0.0751 -0.3280 -0.1896
17380W        W37660  15.455   5.407  15.370  0.0010 -0.0350 -0.1474
17381W        W37661   8.627  11.858  15.144 -0.3532  0.0674 -0.1648
17382W        W37662  12.935   2.971  14.529  0.1501  0.0640 -0.0232
17383W        W37663  16.219  16.167  12.593 -0.0389 -0.3794 -0.1582
17384W        W37664  15.149   9.293  12.394  0.0047 -0.0211  0.0740
17385W        W37665  14.180   9.698  15.180  0.1619  0.1186 -0.0844
17386W        W37666   4.245   6.701  12.503 -0.1717 -0.3732  0.2458
17387W        W37667  17.175  15.484  15.311 -0.1079  0.1282 -0.1185
17388W        W37668   4.148  12.619  12.180 -0.1741 -0.0972 -0.1491
17389W        W37669   9.909  17.028  16.954  0.0447 -0.0931 -0.0768
17390W        W37670   0.819   5.418   1.657  0.1596  0.1448 -0.0208
17391W        W37671   9.404  14.292  14.156 -0.1279  0.1701 -0.1352
17392W        W37672   6.916  12.435  16.753 -0.0038 -0.1133  0.2453
17393W        W37673  12.952  13.348  16.035 -0.1082 -0.1498  0.0113
17394W        W37674  15.236  12.222  15.423 -0.0010  0.1575  0.3856
17395W        W37675  13.035   8.007   2.412 -0.2264  0.0479 -0.1042
17396W        W37676   9.087   4.725  15.115  0.1862  0.0920 -0.0664
17397W        W37677  12.863   6.923   4.435 -0.1785 -0.0649  0.0554
17398W        W37678  14.217  13.790   4.441  0.1265  0.0981 -0.0662
17399W        W37679   7.596  10.927   0.732 -0.2315 -0.1251 -0.0446
17400W        W37680   2.497   2.110   2.418  0.0461 -0.1919 -0.1005
17401W        W37681   4.544   7.638   3.862  0.3141  0.3545 -0.2885
17402W        W37682   2.671  14.880   0.132 -0.0657 -0.1263 -0.1900
17403W        W37683   2.391   2.305   0.244  0.0275  0.0167  0.1654
17404W        W37684  15.977  11.628  15.179 -0.1900  0.2553  0.2446
17405W        W37685  10.141  11.074   0.007 -0.2960 -0.3039  0.0580
17406W        W37686  15.374   5.172  12.206  0.0447  0.0482  0.0806
17407W        W37687  11.360  12.656   2.172  0.0197 -0.0091 -0.5632
17408W        W37688   0.525   8.707  11.675  0.0530  0.2254 -0.1949
17409W        W37689   1.917  13.254   2.446  0.0105 -0.0250  0.0923
17410W        W37690   8.187   1.511   2.782 -0.0648  0.1006  0.2635
17411W        W37691  13.120  13.151   3.219 -0.2480 -0.2748  0.1808
17412W        W37692   0.180  14.875  16.893  0.3076  0.0718  0.3346
17413W        W37693  12.658  15.478   0.213  0.1585  0.1654  0.0595
17414W        W37694  16.600   0.955   2.189 -0.3139  0.0709 -0.2483
17415W        W37695  12.780   8.613   1.356 -0.1387  0.2716  0.1701
17416W        W37696   0.945   0.396  16.470 -0.0883 -0.0366 -0.2205
17417W        W37697   5.304  12.145  15.648  0.1537  0.1989  0.2408
17418W        W37698   7.500   5.693  12.245 -0.1339 -0.0487  0.1476
17419W        W37699  17.527   7.305   1.563 -0.2159 -0.1098  0.0007
17420W        W37700   6.183  14.834  14.511 -0.2345  0.4310  0.1848
17421W        W37701  13.309  14.671  16.160 -0.0739 -0.1831 -0.3891
17422W        W37702   5.937   9.726  13.205 -0.0632  0.0566 -0.3948
17423W        W37703   2.907  14.576   1.488 -0.0419  0.0383 -0.0717
17424W        W37704   7.012   4.858   0.650 -0.0749  0.0148  0.1490
17425W        W37705   2.227   6.273  16.337 -0.1786 -0.1691 -0.0832
17426W        W37706  12.057   8.751   0.610 -0.0003 -0.0731  0.0981
17427W        W37707   7.188   0.118   0.238  0.0242  0.1071 -0.0446
17428W        W37708   3.553  14.644  16.633  0.2128 -0.0743  0.0609
17429W        W37709  16.459  16.567   0.934 -0.1041  0.2871 -0.0742
17430W        W37710   7.306   2.645   1.454  0.1558  0.2496 -0.2197
17431W        W37711  15.039  10.847   0.278 -0.0558  0.1600 -0.1053
17432W        W37712  10.484  13.008   2.688 -0.0442  0.0337  0.3121
17433W        W37713   5.399   1.448  15.545 -0.1228  0.1375  0.0332
17434W        W37714  11.097   3.585   2.486  0.0688 -0.2552 -0.3384
17435W        W37715  12.897   4.716   3.584  0.0895 -0.0230  0.0528
17436W        W37716   5.893  17.275   2.055  0.0503 -0.2412 -0.3370
17437W        W37717   2.004   6.311   5.014 -0.5266  0.0435 -0.4009
17438W        W37718   6.999  10.289   1.626  0.1723 -0.0049 -0.1047
17439W        W37719   6.037   2.363   1.728  0.0146 -0.3800  0.0018
17440W        W37720   3.781   9.418  15.378  0.1945  0.1449 -0.0344
17441W        W37721   6.085  17.249  14.673 -0.1027  0.2661  0.1692
17442W        W37722   4.805  16.079  14.595 -0.3065 -0.2046 -0.2677
17443W        W37723   6.083   6.833  15.777 -0.1633 -0.0915  0.1791
17444W        W37724  10.661   7.863  14.693  0.2739  0.0186 -0.1577
17445W        W37725   0.239   0.251  15.446  0.0749 -0.4205  0.0461
17446W        W37726  13.872  10.567   0.250 -0.0731  0.2115  0.2148
17447W        W37727   0.197  10.611  14.272 -0.0021 -0.1985  0.4804
17448W        W37728   0.022   9.776  14.491 -0.2621 -0.1532  0.2497
17449W        W37729  17.408  11.888  15.276 -0.1165 -0.1044 -0.0771
17450W        W37730  12.714   8.246  13.934 -0.2148  0.2448  0.1807
17451W        W37731   7.201  16.518  14.340  0.0549  0.0296 -0.0455
17452W        W37732  11.878  16.418  15.994 -0.1591  0.0059 -0.3292
17453W        W37733  15.890   6.955   2.922  0.2017  0.6127  0.1345
17454W        W37734   0.960   1.673  14.099  0.1787  0.3332  0.0614
17455W        W37735  14.198   3.815   3.648 -0.1006  0.1744 -0.4427
17456W        W37736  11.701  17.313   1.306  0.1177 -0.3542  0.0826
17457W        W37737   3.308  13.657  13.240 -0.2734 -0.3353 -0.1401
17458W        W37738   4.772  11.879  16.669 -0.0868  0.0823 -0.0615
17459W        W37739  13.242   7.328  15.331 -0.0844 -0.1754 -0.3687
17460W        W37740  14.444  16.048   1.334 -0.1894 -0.0324 -0.1374
17461W        W37741  14.709  15.439   4.138  0.3380 -0.2784 -0.2228
17462W        W37742   5.888  15.276   1.904  0.0479 -0.3276 -0.0979
17463W        W37743  13.727  13.880   1.823 -0.1081 -0.0520 -0.4139
17464W        W37744   3.327   9.398  14.220  0.2594 -0.2382  0.0622
17465W        W37745  15.504  15.874  13.804 -0.1157 -0.1156 -0.0357
17466W        W37746   5.538   5.849   2.277 -0.1443  0.3086  0.0176
17467W        W37747   8.772   4.619  13.294 -0.1209  0.1071 -0.0817
17468W        W37748  10.103  12.830   4.666 -0.1482  0.0279  0.0114
17469W        W37749   8.293  12.987   0.552  0.0127 -0.3097 -0.1194
17470W        W37750  16.951   1.455  14.911  0.0570  0.0346 -0.2153
17471W        W37751   2.251  16.481  12.953 -0.2016 -0.2699  0.1598
17472W        W37752   4.077  14.784   4.953  0.0639 -0.1307  0.1651
17473W        W37753  17.345  13.521   0.213 -0.1917  0.0943 -0.1171
17474W        W37754  14.521  12.684   4.021  0.2217 -0.1396  0.2215
17475W        W37755   5.191   2.394   3.358  0.1870 -0.1060  0.2827
17476W        W37756  11.406   6.379   2.302  0.0136 -0.3285 -0.1312
17477W        W37757  11.811  12.361   3.136  0.1634 -0.0042 -0.2898
17478W        W37758   8.387   8.066   0.676  0.3320 -0.0182 -0.0806
17479W        W37759  13.019  12.522  14.447 -0.1927  0.0347  0.3421
17480W        W37760  17.330   7.272   3.502 -0.0896 -0.0359 -0.0639
17481W        W37761   9.035  12.317  16.615 -0.3427  0.0837  0.3746
17482W        W37762   5.524  15.490   3.723 -0.0083 -0.0956 -0.1248
17483W        W37763  10.836   6.067   2.902 -0.0092 -0.1223  0.0355
17484W        W37764   4.326  10.356  13.572  0.1475 -0.1865 -0.0396
17485W        W37765   0.970   3.601   0.167  0.1236  0.1657  0.2067
17486W        W37766   6.095   9.459  15.339  0.2394 -0.0266 -0.2885
17487W        W37767   3.057  10.700   0.025  0.0511 -0.0120  0.1679
17488W        W37768   4.271   4.203   4.097  0.0647  0.0686 -0.3691
17489W        W37769   3.913   8.927  12.782  0.1328  0.1918 -0.0244
17490W        W37770   9.094  12.500  14.679 -0.3517  0.0134  0.1117
17491W        W37771  13.729   6.996   3.616 -0.0186  0.1060  0.0399
17492W        W37772   1.061   1.881   2.539 -0.2943 -0.0307  0.0361
17493W        W37773   9.825  10.038   1.562 -0.1127  0.2592  0.3264
17494W        W37774   7.046   3.650   4.221 -0.1333  0.1566 -0.1056
17495W        W37775  13.459   0.403  16.431 -0.0135  0.0036  0.0699
17496W        W37776   1.203   0.079   0.526  0.0958 -0.1408 -0.1085
17497W        W37777  15.912   4.988  12.862  0.1664 -0.2106 -0.0782
17498W        W37778   0.435   2.574   2.586 -0.2005  0.3932  0.0147
17499W        W37779  17.049  14.065   1.773  0.3547  0.2067 -0.3766
17500W        W37780  16.640   6.370  12.528  0.0429 -0.1126 -0.0777
17501W        W37781   4.708  17.674   0.925  0.0943  0.2761 -0.1081
17502W        W37782   1.167  13.272  14.203  0.0261  0.1750 -0.3824
17503W        W37783   7.399  16.010  12.065  0.1102 -0.0135  0.0343
17504W        W37784  12.277   6.461  14.982 -0.1619  0.0201 -0.3624
17505W        W37785   0.373  15.759  13.028 -0.1834 -0.0579  0.1525
17506W        W37786  16.927   8.105   2.541 -0.0142  0.1789  0.1149
17507W        W37787  13.705   8.678  14.931 -0.1043 -0.1918  0.0240
17508W        W37788   2.467   6.911  12.175  0.0061  0.0403 -0.1733
17509W        W37789   1.279   4.742  12.914  0.0047  0.3535  0.1353
17510W        W37790  11.207  15.258   0.101 -0.0686  0.0857 -0.2202
17511W        W37791  17.399  16.765  12.641  0.0716  0.2516 -0.1856
17512W        W37792   6.387   4.929  12.662  0.4449  0.2374  0.2284
17513W        W37793   4.550   1.957  11.499  0.1821  0.1047  0.2401
17514W        W37794  10.222   9.320  14.304  0.1090 -0.1077 -0.0031
17515W        W37795   3.828   0.768   0.637  0.1645 -0.0778  0.0509
17516W        W37796  10.802   4.602  14.816 -0.3147 -0.0667  0.1571
17517W        W37797  17.445   6.997  16.515 -0.4100  0.0770  0.2191
17518W        W37798  14.732  13.850   1.973  0.0111 -0.1265  0.0763
17519W        W37799   7.086   3.037  14.476 -0.1289 -0.1434 -0.0806
17520W        W37800  11.761   9.899  16.171 -0.0335  0.0232  0.1376
17521W        W37801   9.731   1.473  16.194  0.1306 -0.0431 -0.1878
17522W        W37802  13.900  16.478   0.161  0.2010 -0.0082  0.1636
17523W        W37803  14.017   7.244  16.936  0.1270 -0.1096 -0.1667
17524W        W37804   9.612   9.690   1.200  0.1251 -0.1582 -0.0050
17525W        W37805   6.945   6.305   3.958  0.1295 -0.0948  0.0191
17526W        W37806   2.211   6.496   4.137 -0.2016  0.0830 -0.2409
17527W        W37807   0.898   1.954   3.712  0.0368 -0.0672 -0.1777
17528W        W37808  11.924   6.359  14.653 -0.0329  0.0918  0.0049
17529W        W37809  11.186   8.228   3.005 -0.1205 -0.0575  0.1844
17530W        W37810  14.472   1.415  13.989  0.0144  0.0979 -0.1918
17531W        W37811   8.060  15.516   3.830 -0.2476 -0.0488 -0.0277
17532W        W37812   2.215  11.256  16.977 -0.1873  0.3444 -0.0734
17533W        W37813  16.447   4.026   1.317  0.1423  0.2628  0.0270
17534W        W37814  16.057  13.923   4.499  0.3520  0.0179  0.2425
17535W        W37815  14.387   6.859  16.975 -0.2141  0.0400  0.1989
17536W        W37816   2.565  17.209  14.324 -0.0949 -0.0552 -0.1142
17537W        W37817   1.691  15.727  13.015  0.3602  0.0020 -0.3124
17538W        W37818   7.199   4.289   1.433 -0.0547 -0.0346 -0.1829
17539W        W37819  16.040   3.832   4.798 -0.1355  0.4408  0.1507
17540W        W37820  12.597   3.967   2.332 -0.0902 -0.1791 -0.3541
17541W        W37821   7.740   2.036   2.806  0.1612 -0.2464 -0.0392
17542W        W37822   8.364  17.559  12.325 -0.1363 -0.0043  0.1437
17543W        W37823  15.935  17.697  13.505  0.0173  0.0745  0.3737
17544W        W37824   9.113   5.673  15.270 -0.0013  0.3081 -0.0810
17545W        W37825   7.245   7.353  14.450  0.2585 -0.0713  0.1978
17546W        W37826  13.834   4.061   1.584 -0.1592 -0.2526  0.0761
17547W        W37827   9.519  10.318  16.603  0.1869  0.1187  0.2284
17548W        W37828   0.752   1.164  14.784 -0.0559  0.1781 -0.0963
17549W        W37829  12.613  10.161   1.648 -0.1065  0.1371 -0.1500
17550W        W37830   2.207  17.166   4.773 -0.2254  0.0616 -0.2393
17551W        W37831  17.584  12.186   3.710  0.0176  0.1289 -0.1162
17552W        W37832   4.416   9.014   5.843 -0.1461 -0.0693  0.1344
17553W        W37833   5.670   1.600  13.806  0.0344  0.0391  0.1971
17554W        W37834   9.207  15.986  16.573  0.0909  0.2020  0.2179
17555W        W37835   7.298  13.285   2.067 -0.2446  0.0499  0.0379
17556W        W37836   0.586  14.021   3.125 -0.1987 -0.2657  0.2354
17557W        W37837  11.910   8.446  11.578  0.0765 -0.0562 -0.1537
17558W        W37838   8.234   5.791  17.003 -0.1911  0.0889 -0.3122
17559W        W37839   0.567   5.098  13.163 -0.0330 -0.1210 -0.1751
17560W        W37840   3.290  10.761  16.348 -0.4898  0.1518 -0.2184
17561W        W37841   2.576   8.865  16.343  0.3214  0.0758  0.1056
17562W        W37842  15.232   0.699   4.684  0.0756  0.1253 -0.1440
17563W        W37843   3.619   2.457   2.382  0.1809 -0.4172  0.1131
17564W        W37844   6.748  10.173  15.742 -0.0391 -0.0341 -0.1860
17565W        W37845   8.846   1.309   4.591 -0.0841  0.0740 -0.1388
17566W        W37846   6.899  13.049  13.919 -0.0659  0.2964 -0.0058
17567W        W37847   6.316   2.388   3.673 -0.0639  0.0940 -0.0526
17568W        W37848   5.326   4.988  15.539  0.1767 -0.1592 -0.0184
17569W        W37849   7.230   8.512   2.722 -0.0288  0.0905 -0.1286
17570W        W37850  11.284   5.358   2.978 -0.1070 -0.0066  0.2886
17571W        W37851   5.874  15.107   2.377 -0.0015 -0.1211 -0.3248
17572W        W37852   1.739   1.580   1.494 -0.1368 -0.1560  0.1967
17573W        W37853  10.882   3.049   3.792 -0.1181  0.1338  0.1537
17574W        W37854  10.124   9.541  12.466  0.0061 -0.0684 -0.0864
17575W        W37855   7.922   4.415  16.595  0.1127 -0.2827  0.0805
17576W        W37856   6.828  17.403   3.110 -0.1860 -0.0032  0.1677
17577W        W37857   8.351  14.483   0.905 -0.4655  0.2453  0.1272
17578W        W37858  11.731   0.782  15.757  0.5540  0.3012 -0.1963
17579W        W37859  10.870   3.827   3.697 -0.3055 -0.0802 -0.1425
17580W        W37860   2.976   7.119   0.492  0.1405  0.0399  0.0948
17581W        W37861  13.165  10.031   4.809 -0.2265 -0.1437 -0.0562
17582W        W37862   1.832   9.017   3.727 -0.0981 -0.1675  0.1482
17583W        W37863   6.606   1.780  16.816 -0.4912  0.0521  0.1248
17584W        W37864   2.042   8.104   4.869  0.4324  0.4974 -0.1051
17585W        W37865   0.023   4.754   3.375  0.0273 -0.0226 -0.1937
17586W        W37866   4.569  11.221   0.320 -0.1813  0.0585 -0.1030
17587W        W37867  15.420   4.877  15.417  0.2009  0.1607  0.2512
17588W        W37868  16.058   8.973   3.603  0.2368  0.0326 -0.1442
17589W        W37869   8.583  11.827  11.617 -0.0079 -0.1971  0.0771
17590W        W37870   6.855  11.365   1.007  0.1000 -0.1555 -0.1337
17591W        W37871   8.464  15.120  15.905 -0.1888  0.1656  0.0574
17592W        W37872  17.533  16.484   3.314 -0.0979 -0.1908  0.3447
17593W        W37873   9.017   2.639   4.033  0.1873  0.5171  0.1021
17594W        W37874  15.407  13.298  13.903  0.0690  0.1071  0.1430
17595W        W37875   7.083   6.971   4.569  0.0929 -0.3263 -0.2057
17596W        W37876   0.814   0.928  13.120 -0.2079 -0.2221  0.1556
17597W        W37877   8.928  13.377  12.597 -0.2456  0.0086  0.3443
17598W        W37878   5.780   7.087  15.033 -0.0074 -0.1285  0.1672
17599W        W37879  12.048  17.369   2.404  0.1586  0.1391  0.2173
17600W        W37880  17.046  10.813  12.667  0.0930 -0.2604  0.1866
17601W        W37881   0.094   6.675   4.464 -0.0791  0.1730  0.0598
17602W        W37882  15.798   1.210  13.137  0.2118  0.0212  0.0237
17603W        W37883   9.908  13.168  14.662  0.0008  0.0728 -0.0154
17604W        W37884   8.237  13.561  12.945 -0.2866 -0.2253  0.0039
17605W        W37885   7.101  11.355  12.552  0.0400 -0.1511  0.1853
17606W        W37886   9.454   7.849  15.973 -0.1548  0.0292 -0.0484
17607W        W37887  15.101  13.594  12.176  0.3644 -0.0827  0.2163
17608W        W37888  17.112   2.663  14.535 -0.0480 -0.1850  0.3450
17609W        W37889   5.727   8.493  14.558 -0.0075  0.1851 -0.2311
17610W        W37890  16.568   6.945  12.412  0.2571  0.2165 -0.1059
17611W        W37891   9.062  11.245   0.929  0.0458 -0.1934 -0.0604
17612W        W37892   4.097   0.471   3.923 -0.2858  0.0851 -0.1012
17613W        W37893  13.267   6.706  16.766  0.0659  0.1239 -0.2094
17614W        W37894   3.956   4.965   0.991  0.2089 -0.0952  0.1395
17615W        W37895   3.309  16.193   0.734 -0.0296  0.0569  0.4201
17616W        W37896   0.955  12.905   4.445  0.0665  0.1742  0.3532
17617W        W37897   2.107  13.374  12.120 -0.0203  0.1519  0.3297
17618W        W37898  11.486   1.833  17.014 -0.1124  0.0347  0.0221
17619W        W37899  11.414  14.962   3.074 -0.1720 -0.3486 -0.1481
17620W        W37900  10.097  10.256   3.336 -0.3076  0.0833 -0.1764
17621W        W37901  13.796  13.215   3.905  0.0899  0.1624  0.0303
17622W        W37902  13.579   4.611   4.681  0.3065  0.1646 -0.0466
17623W        W37903  12.777   7.111  14.357 -0.2209 -0.1773  0.1076
17624W        W37904  10.418   3.463  14.244  0.2238 -0.1839  0.0729
17625W        W37905   3.799  11.816   0.003  0.0279  0.0514  0.0195
17626W        W37906   4.360  11.980   1.651 -0.1540 -0.1403  0.0366
17627W        W37907  10.709  13.993   2.219  0.1990  0.1173  0.0595
17628W        W37908   1.165   8.518   1.389  0.1489  0.0840 -0.2199
17629W        W37909   1.328   3.490   3.854  0.2130  0.0668 -0.1782
17630W        W37910   2.741  11.644  12.368  0.0661  0.0596 -0.0412
17631W        W37911   2.864   2.525  12.778 -0.0083 -0.1062  0.2227
17632W        W37912   3.351  14.228   3.493 -0.0754 -0.2352 -0.2807
17633W        W37913   5.590  10.954  12.429  0.2460  0.0359 -0.0949
17634W        W37914   5.243  15.125   4.772  0.3649  0.0412  0.0134
17635W        W37915  14.008   2.862   3.573  0.0298  0.2331 -0.1671
17636W        W37916   0.339   5.551  12.280  0.2077 -0.0162  0.1146
17637W        W37917   1.689  15.307  16.109 -0.2875  0.0754 -0.0921
17638W        W37918   7.384   0.784  14.772 -0.1851 -0.1490  0.1012
17639W        W37919   3.032  16.718  14.610  0.1978  0.0994 -0.0905
17640W        W37920  11.030   0.224   1.903 -0.0552 -0.1951  0.3152
17641W        W37921   0.603   0.573   0.347  0.4868 -0.1652 -0.1873
17642W        W37922  15.666   5.717   1.904  0.3598  0.0768  0.2436
17643W        W37923   0.091   0.323   3.049  0.1568 -0.4005  0.2075
17644W        W37924   9.292   7.279   0.136 -0.2519 -0.0344 -0.0710
17645W        W37925   4.399  11.648  15.325 -0.0937 -0.0734  0.0623
17646W        W37926   6.561   5.438  13.600  0.0096 -0.2338 -0.2872
17647W        W37927   3.539  11.522  13.298 -0.1959 -0.0643 -0.1695
17648W        W37928  11.502   6.251  16.098  0.2323  0.2731 -0.1167
17649W        W37929   1.785   9.799  15.423 -0.1497 -0.0976  0.2803
17650W        W37930   1.246  12.233  14.655  0.3258 -0.4412  0.0225
17651W        W37931  10.092   5.170   1.065 -0.0525 -0.5571  0.0201
17652W        W37932   6.156   2.100  16.935  0.0105  0.2401 -0.2950
17653W        W37933  15.048   2.765  14.478 -0.1021 -0.1833  0.0614
17654W        W37934  10.317   6.137   2.744  0.2415 -0.2011 -0.2125
17655W        W37935  10.711  13.948  11.118  0.1037 -0.0624 -0.2216
17656W        W37936   3.004   0.917  16.198  0.1147 -0.0577  0.0078
17657W        W37937   7.982   5.798  12.305 -0.1487 -0.2834  0.1752
17658W        W37938  14.661  17.501   4.561 -0.0758  0.0727 -0.1396
17659W        W37939   2.334   4.333   2.198  0.0181 -0.0643  0.0377
17660W        W37940   0.927   9.513  14.070  0.3374 -0.0121 -0.0670
17661W        W37941   3.162   0.572  14.842 -0.0058 -0.1623  0.1498
17662W        W37942  11.621  15.679  12.799  0.0875 -0.1611 -0.1971
17663W        W37943   0.942   1.413   0.883 -0.1724  0.3246  0.0477
17664W        W37944  12.078  17.010   0.064  0.1887 -0.1896 -0.1196
17665W        W37945   1.246   2.667   4.904 -0.0826 -0.0163  0.0693
17666W        W37946  15.294  14.235  12.748  0.0205  0.0931  0.1071
17667W        W37947   1.617   5.788   1.444  0.1864 -0.2895 -0.2409
17668W        W37948   5.265   0.773  15.225  0.1576 -0.2527 -0.0267
17669W        W37949   0.637   8.956   2.096  0.0929 -0.0983 -0.0925
17670W        W37950  12.379   3.742  14.412  0.1933 -0.0744  0.0484
17671W        W37951   0.181   3.602   4.020 -0.4222 -0.0085 -0.1670
17672W        W37952   1.735   7.311  14.520 -0.3867 -0.0905 -0.0918
17673W        W37953  12.777  10.797  14.974  0.1648 -0.1250  0.0261
17674W        W37954   9.056   1.975   2.679  0.0412  0.0056  0.1032
17675W        W37955  13.482   1.452   1.073  0.2401  0.0180  0.0218
17676W        W37956  10.449   2.646  12.515 -0.1887  0.2161  0.2990
17677W        W37957  10.698   6.946  15.096 -0.0704  0.0097  0.0922
17678W        W37958   8.536  16.067  14.251 -0.1273  0.0762 -0.0024
17679W        W37959   9.526  13.026  16.041  0.0286  0.3358 -0.3150
17680W        W37960   4.841   7.046   1.385  0.1397  0.0536 -0.1656
17681W        W37961  17.113  10.403   4.091 -0.1546  0.2060 -0.0953
17682W        W37962   4.818  10.253  13.924  0.2370 -0.1884  0.1758
17683W        W37963  10.048  17.482   0.237 -0.0619  0.0767  0.1473
17684W        W37964   6.416   9.335  16.480 -0.2482  0.2212  0.3245
17685W        W37965  15.248   3.308  12.758  0.0883 -0.0362  0.2175
17686W        W37966   6.034  17.702   2.958  0.1322 -0.0766  0.1005
17687W        W37967  14.860  15.310   0.976 -0.3210  0.0312 -0.2133
17688W        W37968  14.194  14.762   4.416 -0.1359 -0.2363  0.0154
17689W        W37969   7.494  16.191   2.443  0.0744  0.0956  0.1669
17690W        W37970  11.192  14.042  14.197 -0.0614  0.0207 -0.0668
17691W        W37971   0.977  17.219  16.438  0.3654  0.3772 -0.0833
17692W        W37972  12.830  13.111   3.614  0.0410  0.0489 -0.1351
17693W        W37973   6.485   5.949   3.274 -0.0683  0.0852 -0.1489
17694W        W37974   9.916   3.646  14.289  0.0167  0.0059 -0.1123
17695W        W37975  11.223   3.036   3.326  0.1235 -0.1188  0.0078
17696W        W37976   1.453  17.154   2.216  0.2568  0.1643 -0.2122
17697W        W37977   6.376   8.208  15.226  0.0304 -0.0548  0.0130
17698W        W37978   3.012  14.956   1.258 -0.0168 -0.4407 -0.0022
17699W        W37979  11.113  17.205   0.185 -0.0415  0.0354 -0.4019
17700W        W37980   2.219  12.553   4.889 -0.2276  0.2194  0.2286
17701W        W37981  12.263   5.837  12.493 -0.1136  0.2982  0.0411
17702W        W37982   0.885   9.165  12.371  0.1946 -0.0145  0.0488
17703W        W37983   3.318  12.382   0.674 -0.3906 -0.2483 -0.2997
17704W        W37984   1.440  17.484  12.541  0.0173 -0.2981 -0.0088
17705W        W37985   8.407   5.694   0.455 -0.0795  0.1073 -0.1613
17706W        W37986   5.431  16.537  16.672 -0.2216 -0.3765 -0.2020
17707W        W37987  11.116  13.163   4.485 -0.0107  0.0287 -0.2791
17708W        W37988   1.353  13.956  15.062  0.1570  0.0128 -0.0072
17709W        W37989  16.143   8.613  15.749  0.0776  0.1723  0.0407
17710W        W37990   6.810   7.470   4.826 -0.0792  0.2484  0.2742
17711W        W37991   7.239   4.488  13.563  0.2656  0.1309 -0.0817
17712W        W37992   9.795  10.477  14.410  0.2696 -0.1054 -0.1189
17713W        W37993   6.636  12.427  13.268 -0.1536  0.0503  0.1201
17714W        W37994   8.538   6.655   2.165  0.2281 -0.1104  0.1386
17715W        W37995  10.500   4.108   2.977 -0.0228 -0.0137 -0.0248
17716W        W37996   1.902   2.228   1.035 -0.1400 -0.2700 -0.2503
17717W        W37997  14.569   7.742  16.364 -0.0052 -0.1854  0.0257
17718W        W37998  11.332   7.219  14.717 -0.0115  0.0831  0.1026
17719W        W37999   3.509  17.303  16.555  0.2159 -0.3242  0.1666
17720W        W38000   8.146   1.817  15.478  0.2376  0.1273  0.0326
17721W        W38001   0.999  14.814  12.814 -0.2395  0.5200 -0.0082
17722W        W38002   2.447   8.126   0.874 -0.0696 -0.0046 -0.3124
17723W        W38003   5.672  12.000   3.120  0.1674 -0.0780  0.1722
17724W        W38004  11.827   9.753   0.520 -0.0079  0.0998  0.2620
17725W        W38005  14.069   1.468   3.907 -0.3672 -0.3087 -0.1474
17726W        W38006  11.808  13.664   2.822 -0.2748 -0.1913 -0.0122
17727W        W38007   7.921  14.706   5.379  0.1481  0.1938 -0.0236
17728W        W38008   4.418   4.302   2.785 -0.0116 -0.0701  0.3800
17729W        W38009   2.925   6.588   1.920 -0.0438  0.1492 -0.2097
17730W        W38010  11.323   3.100  14.110 -0.2537  0.1552  0.2283
17731W        W38011   6.897  13.560  14.172  0.3922 -0.0299 -0.1168
17732W        W38012   3.979   6.825  15.268 -0.3663  0.1190 -0.1650
17733W        W38013  16.611   4.818  14.889  0.1022  0.0479  0.0258
17734W        W38014   2.957   1.720   4.865 -0.1123 -0.0412  0.1827
17735W        W38015   4.144   1.550  16.580 -0.0552 -0.0171  0.0952
17736W        W38016  16.691   0.869  12.426  0.1242 -0.0600 -0.2355
17737W        W38017  15.967   6.896  13.034  0.0250 -0.1877  0.2144
17738W        W38018   1.610  13.767   1.284  0.1602 -0.2439  0.2556
17739W        W38019   1.305  11.143  12.746 -0.3466  0.0903 -0.2739
17740W        W38020   5.202  10.074   1.737  0.1529  0.3464  0.0700
17741W        W38021  15.447   1.683  13.854 -0.0531 -0.2356  0.1637
17742W        W38022   7.686   7.613   0.788 -0.2420  0.1824 -0.1069
17743W        W38023   4.980   3.611   4.587  0.1721 -0.0591  0.2235
17744W        W38024  14.304  15.723  14.069  0.0606  0.1747 -0.3654
17745W        W38025   2.359   3.745  14.587  0.1122  0.1423 -0.0814
17746W        W38026  15.800   6.821  13.488 -0.2074  0.3002  0.1487
17747W        W38027  10.212  13.836   1.156 -0.4312 -0.0618 -0.1286
17748W        W38028   0.142   2.913   4.430 -0.0084 -0.2593 -0.0863
17749W        W38029   8.507   8.462   2.337 -0.0589 -0.0730 -0.0975
17750W        W38030   7.372   3.269  15.758  0.0389 -0.2494 -0.0861
17751W        W38031  17.520   6.738   0.552 -0.3523  0.1443  0.1848
17752W        W38032  16.138  16.512   0.041  0.2918 -0.1099  0.1747
17753W        W38033   3.333   4.192  13.996 -0.0097 -0.0597 -0.1619
17754W        W38034   3.428  15.651   1.612 -0.0837 -0.3072 -0.0421
17755W        W38035   1.140   8.956  13.363  0.2370 -0.0950  0.0483
17756W        W38036  11.292   0.785  16.752  0.1847 -0.2696  0.1047
17757W        W38037   6.245  12.805   4.999  0.0550  0.0257 -0.3175
17758W        W38038   8.387   0.774  13.674  0.2869  0.1091 -0.2420
17759W        W38039   9.582  14.901   1.756  0.2312  0.0526 -0.0264
17760W        W38040  15.761  11.158   2.443 -0.3861 -0.0387 -0.1739
17761W        W38041   7.900  10.960  15.878 -0.2408 -0.1378  0.5324
17762W        W38042  11.532  13.424  14.749  0.2287 -0.0811 -0.2013
17763W        W38043  16.560  17.204   3.382 -0.1499  0.1025  0.3646
17764W        W38044   3.728   7.153   2.822  0.1731  0.3252  0.1879
17765W        W38045  12.668  10.875   2.762 -0.1453 -0.0857  0.0532
17766W        W38046  11.900  11.844   3.840 -0.3635  0.1955 -0.1573
17767W        W38047   3.506   1.657   1.680  0.0425 -0.0291 -0.0136
17768W        W38048   3.027  15.089  13.055 -0.3021 -0.1596  0.4849
17769W        W38049   3.509   6.573  15.608 -0.1621  0.3420 -0.1392
17770W        W38050  12.812   7.234   2.802 -0.3249  0.2143 -0.1691
17771W        W38051  12.626   8.244  15.872  0.0293 -0.0899  0.2203
17772W        W38052   4.710  14.276  13.552  0.2029 -0.1818 -0.1642
17773W        W38053   5.962  16.002  16.652 -0.0416  0.3427 -0.0355
17774W        W38054  12.870  14.208   1.643  0.0789  0.0717 -0.0347
17775W        W38055  10.351   9.245   2.413  0.1243  0.0551  0.0864
17776W        W38056   3.931  11.667  14.879 -0.0096 -0.0752  0.0220
17777W        W38057  10.271   7.321   3.434  0.0032 -0.1014  0.0159
17778W        W38058   2.780   1.352  15.169  0.1924  0.2527  0.0626
17779W        W38059  17.399  12.384  16.860 -0.0843  0.0190  0.0906
17780W        W38060   7.535   1.332  12.820 -0.1541  0.2886  0.2207
17781W        W38061  12.160   0.638  12.575 -0.1259 -0.0046 -0.2653
17782W        W38062   2.133   7.368  14.836  0.1376  0.2679  0.0376
17783W        W38063   8.233  17.289  15.586  0.0890 -0.1468 -0.2224
17784W        W38064   4.631   6.535  16.311 -0.1214 -0.0657 -0.1068
17785W        W38065   2.676  16.785  15.365  0.1780  0.1003  0.1182
17786W        W38066   7.081   1.844  12.345  0.0304  0.0323 -0.1115
17787W        W38067   8.122  11.992  13.300  0.0791  0.1383 -0.2450
17788W        W38068  16.162   5.444  12.403 -0.0901 -0.0302 -0.1095
17789W        W38069   0.807  12.794  16.326  0.0024  0.2684  0.2260
17790W        W38070   2.388   3.279  16.625 -0.1737  0.3119 -0.4865
17791W        W38071   0.779  13.829   1.083  0.1628 -0.0098  0.1373
17792W        W38072   4.410   6.461   2.413 -0.0712 -0.1586  0.0718
17793W        W38073  17.215   0.418   4.219 -0.0114  0.0996 -0.1583
17794W        W38074  12.687   2.446  14.674 -0.0073  0.6739  0.0119
17795W        W38075  15.563   1.394   0.182 -0.0423  0.0803  0.0354
17796W        W38076   9.706  10.398   4.512 -0.0244 -0.4140 -0.0391
17797W        W38077  11.675   9.610  16.661  0.0638 -0.2580 -0.1666
17798W        W38078  17.294   5.749  14.358  0.0821  0.2043 -0.3705
17799W        W38079   3.619  14.124  15.083 -0.1748  0.0259  0.3429
17800W        W38080  10.119  14.472   4.499  0.3714 -0.0545  0.0063
17801W        W38081   4.017  16.364  12.433  0.2967 -0.1105 -0.0174
17802W        W38082  15.198   5.605   0.095  0.3333  0.2863 -0.2217
17803W        W38083  14.084   9.262  14.476 -0.1471 -0.0969  0.0017
17804W        W38084  13.268  13.665   4.051  0.0239 -0.0283 -0.0037
17805W        W38085   1.454  15.505   1.653  0.1601 -0.1679  0.4167
17806W        W38086   5.580   5.179  13.238 -0.3083  0.0902  0.1584
17807W        W38087   4.333   8.852  13.743 -0.3132 -0.0903  0.0225
17808W        W38088   3.052   8.814   4.179  0.1437  0.1309  0.1529
17809W        W38089   9.097   6.970  12.783  0.2413 -0.0261 -0.0097
17810W        W38090   3.310   6.853  15.978  0.0111  0.0745 -0.0594
17811W        W38091   9.490   2.401   2.013  0.0731 -0.4845  0.0067
17812W        W38092  10.860   2.847  13.076  0.0244 -0.1419  0.0202
17813W        W38093  17.177  12.215   0.309  0.0265  0.2176  0.0771
17814W        W38094   7.296   3.637   1.962  0.0288 -0.1290  0.0512
17815W        W38095  17.110  12.646   1.281  0.0449 -0.1088 -0.0954
17816W        W38096  13.759  10.249  13.926  0.0311 -0.1099  0.0475
17817W        W38097   8.448  14.208   0.001  0.1969  0.3010  0.2412
17818W        W38098  15.079   9.379  15.644 -0.0863  0.1601  0.1256
17819W        W38099  14.232   5.979  13.711  0.2444  0.0082  0.0183
17820W        W38100   1.279   2.251   4.694  0.0306  0.3060 -0.1117
17821W        W38101   5.651   2.664   3.121 -0.2778  0.0073  0.0060
17822W        W38102  14.731  15.051  15.917 -0.1758 -0.1730 -0.0878
17823W        W38103  11.664  15.253   4.376  0.1793 -0.0555 -0.2969
17824W        W38104   9.304  11.394  14.983  0.0241  0.2331  0.0512
17825W        W38105  17.226  12.144  13.216 -0.0652 -0.0241 -0.2704
17826W        W38106   0.897  12.379  16.836  0.0210 -0.3224  0.0656
17827W        W38107   0.015   6.650  16.986 -0.1254 -0.0222  0.0794
17828W        W38108  11.164  16.143   3.965 -0.1649 -0.1293  0.2284
17829W        W38109   3.966   6.823  16.821  0.2611 -0.0801  0.2355
17830W        W38110  11.712   4.499  15.027 -0.2024  0.3025 -0.1876
17831W        W38111   0.128   6.139  15.116 -0.0029 -0.2091  0.0527
17832W        W38112   4.465  13.022  15.463  0.2186 -0.1040 -0.1377
17833W        W38113   6.188   7.978   4.895  0.0436  0.2868 -0.0659
17834W        W38114  15.420   0.626   4.197 -0.0704 -0.2916 -0.3462
17835W        W38115   2.514  13.671   1.259  0.1518  0.0127  0.1737
17836W        W38116  14.730  11.893  15.864  0.2641  0.1976 -0.3670
17837W        W38117  17.008   7.517   0.704  0.3709  0.3316 -0.3350
17838W        W38118  16.032   1.730   1.899 -0.0279 -0.2097  0.2534
17839W        W38119   6.318  10.825   0.383  0.0946  0.0710 -0.0297
17840W        W38120   2.550   5.308  13.586 -0.0376  0.1876  0.1193
17841W        W38121  12.071   4.391   1.592  0.0483  0.1312 -0.2252
17842W        W38122   7.886   7.293  16.562  0.0817  0.0754 -0.1065
17843W        W38123  15.091   2.739   1.123  0.2737  0.2372  0.0012
17844W        W38124   1.469  11.832  14.846  0.1715  0.1109  0.3261
17845W        W38125   9.411   9.001   3.056 -0.1494  0.1084 -0.1206
17846W        W38126   6.371   2.247  14.719  0.2297 -0.1604 -0.0514
17847W        W38127  13.889   7.255  12.726  0.0612 -0.0677  0.2215
17848W        W38128   7.049  17.461  15.501  0.0461  0.0389 -0.0077
17849W        W38129   9.368  13.880   2.593  0.1041  0.1045 -0.0429
17850W        W38130   3.693   2.713   0.344 -0.0844 -0.0656 -0.3530
17851W        W38131   9.860  11.846   1.733  0.2346  0.2126 -0.0043
17852W        W38132  11.949  12.651   2.140  0.1211 -0.0199 -0.1459
17853W        W38133   8.482   1.366   2.363 -0.0774 -0.1815  0.1407
17854W        W38134   2.636   1.879   1.511  0.1325  0.0969 -0.1820
17855W        W38135   4.205   9.497  15.135 -0.1456  0.1726  0.0230
17856W        W38136  13.582  10.532   4.600 -0.0125 -0.2484  0.1753
17857W        W38137   9.595   9.606   1.750 -0.0375 -0.1549 -0.0131
17858W        W38138   6.231  12.017  15.613  0.0329  0.0173 -0.0828
17859W        W38139   3.831   8.361  13.190  0.0003  0.1616  0.1086
17860W        W38140   3.149   2.558   0.863  0.0407  0.3779 -0.4679
17861W        W38141  13.712   5.948   4.050  0.0963  0.1317 -0.0339
17862W        W38142  12.865  10.429   2.035 -0.1295 -0.2028 -0.1121
17863W        W38143   8.010   8.493  14.679 -0.0703  0.1924  0.0068
17864W        W38144  12.760   0.434  12.468  0.2826 -0.0397 -0.0976
17865W        W38145   4.615   6.989   0.448 -0.0928  0.1751  0.3452
17866W        W38146  16.288   0.595   2.059  0.3074 -0.0706  0.0057
17867W        W38147   0.895   6.191  12.833 -0.2385 -0.2931  0.0413
17868W        W38148  10.181   0.231  13.766  0.2126 -0.0141  0.0059
17869W        W38149   8.100  16.294  14.414 -0.1039 -0.0962 -0.2607
17870W        W38150   9.153  15.564  12.491  0.0926  0.2968  0.1432
17871W        W38151   9.909  12.928  16.381  0.1082  0.1413 -0.1898
17872W        W38152   4.118  10.075   4.894  0.0721  0.0996  0.0691
17873W        W38153   6.847  17.408   4.178  0.0684  0.1362 -0.0012
17874W        W38154   6.446  12.345   2.378  0.3077 -0.1013 -0.1520
17875W        W38155  13.216   8.607   0.917 -0.1997  0.3188  0.1721
17876W        W38156  13.592   8.375   3.151 -0.1288  0.0763  0.2008
17877W        W38157   8.318   1.284  13.227  0.1220 -0.1668  0.2563
17878W        W38158  12.575  15.259   2.214  0.3009 -0.0864 -0.0682
17879W        W38159   3.670  10.541  12.481 -0.3718  0.0884  0.1317
17880W        W38160  12.272   6.525  13.830  0.1828 -0.1219 -0.0040
17881W        W38161  17.096   4.470   1.187  0.2972  0.2718  0.3371
17882W        W38162   0.436   7.092  12.359 -0.2033 -0.1452  0.3647
17883W        W38163  10.954   3.351  12.168  0.0196 -0.2876 -0.3208
17884W        W38164  12.456  16.719  16.861 -0.1676  0.1490 -0.0697
17885W        W38165  15.078   0.203   1.706  0.0528 -0.0073  0.2948
17886W        W38166   1.590  11.156  16.523 -0.1807 -0.0134  0.1083
17887W        W38167  11.158  10.197   1.468 -0.3164 -0.0767 -0.4576
17888W        W38168   9.574   1.896   4.133 -0.3032 -0.2127  0.2688
17889W        W38169  16.231  13.332  15.872 -0.0239 -0.1484  0.0886
17890W        W38170   0.976   3.048   3.750 -0.2217 -0.1105  0.1417
17891W        W38171   9.056   3.834  16.670 -0.2098 -0.1457  0.1829
17892W        W38172   2.072  10.444  13.858  0.0206 -0.1415 -0.1033
17893W        W38173   1.925  16.428   2.646 -0.0252  0.0828  0.2919
17894W        W38174   2.667  10.811  13.368 -0.0621 -0.1633 -0.2016
17895W        W38175   2.713   9.829   0.188 -0.2269  0.1086 -0.0015
17896W        W38176   3.736  15.867  14.897  0.0086 -0.1191 -0.0634
17897W        W38177  16.996   0.614   0.761  0.0395  0.0905 -0.0173
17898W        W38178   7.694   1.688   3.235  0.1313  0.2116  0.2324
17899W        W38179   3.037  14.539   0.999 -0.0331 -0.1115 -0.1181
17900W        W38180   4.772   7.073  12.687  0.1399  0.2236  0.2186
17901W        W38181   4.319   8.446   2.417  0.2555 -0.0592  0.1626
17902W        W38182  10.892   4.418  16.241  0.2142  0.1781  0.1968
17903W        W38183  11.894  14.757   2.025 -0.1128  0.2033  0.0685
17904W        W38184  11.604  15.701   1.009  0.0794 -0.0981 -0.1336
17905W        W38185   1.211  14.952   2.990 -0.1219  0.0593 -0.4372
17906W        W38186  15.215  12.613  16.707 -0.0623 -0.0034 -0.0833
17907W        W38187  13.612   1.187   2.318  0.1058 -0.0024 -0.1007
17908W        W38188   0.337   7.397   1.087 -0.2246  0.0261 -0.0460
17909W        W38189  12.753   8.691  15.167 -0.0346  0.1636  0.2016
17910W        W38190   4.767   6.139   2.171  0.1933  0.2376 -0.3327
17911W        W38191   0.501   8.136   0.166 -0.1269 -0.1038  0.2381
17912W        W38192   4.921   4.911   2.403  0.0093 -0.0245  0.0982
17913W        W38193   8.705  17.442  13.278  0.0868  0.2930  0.4153
17914W        W38194   8.091   3.136   2.156  0.1271 -0.4324 -0.2718
17915W        W38195   3.274  12.328  14.323  0.3023 -0.0478  0.0481
17916W        W38196   6.905  13.853  12.827  0.2815  0.2360  0.3638
17917W        W38197  13.997  17.138  15.213 -0.0125 -0.0656 -0.1366
17918W        W38198  13.574  16.231  12.407  0.2451  0.0059 -0.1860
17919W        W38199  11.741  11.249  15.650 -0.1841 -0.1684  0.1898
17920W        W38200  12.565   1.721  12.899  0.3305 -0.1986 -0.1106
17921W        W38201   3.829   7.159  14.636 -0.2191  0.2616  0.2517
17922W        W38202  11.130   3.284  13.232 -0.0321 -0.0207  0.0414
17923W        W38203  16.123  17.451   5.016  0.0778 -0.1861 -0.0309
17924W        W38204  11.345   8.839   1.571 -0.0347  0.0092 -0.4690
17925W        W38205  11.323  17.583   1.128 -0.2670  0.0380  0.0067
17926W        W38206  13.355   3.501   3.379  0.1438 -0.0631 -0.1008
17927W        W38207  11.290  14.545  15.108 -0.3211 -0.3096 -0.3118
17928W        W38208   8.056   8.847  13.545  0.0442 -0.1286  0.0385
17929W        W38209   0.783   5.324  14.823  0.1829 -0.1515  0.1714
17930W        W38210  13.823   2.995   2.617 -0.0552 -0.0264 -0.1808
17931W        W38211   9.371   0.535   3.980  0.2011  0.0653  0.1405
17932W        W38212  11.068  10.924  14.814  0.2669  0.0442  0.1268
17933W        W38213   1.391  15.482  14.639 -0.1971 -0.1086 -0.0633
17934W        W38214  15.274  13.131  14.355  0.0520  0.0380  0.1325
17935W        W38215   2.494   8.694  13.213 -0.1353  0.1766  0.1332
17936W        W38216   0.522  17.178  13.163  0.0968  0.2392  0.0583
17937W        W38217  15.714   8.359  12.811  0.1159 -0.1212  0.1116
17938W        W38218   9.719  15.410   1.586 -0.0905 -0.1357 -0.3966
17939W        W38219   5.437  11.615   1.860 -0.0188  0.1876  0.0736
17940W        W38220  16.719  10.783   3.580 -0.2523  0.2648  0.1309
17941W        W38221  12.233   4.214  13.136  0.1562 -0.1536  0.0108
17942W        W38222  10.523   7.451   1.756 -0.1941 -0.0087  0.3451
17943W        W38223   2.733   4.857  15.827 -0.0815 -0.0160 -0.1441
17944W        W38224   3.004   8.357  15.598 -0.1541 -0.1660 -0.2006
17945W        W38225   7.836   0.343   5.010 -0.2800 -0.2040  0.1774
17946W        W38226   3.695   4.239  11.374 -0.0474 -0.2012 -0.0204
17947W        W38227   4.059  16.421   1.615  0.0709  0.0195 -0.2381
17948W        W38228   6.709   5.861  13.831 -0.3606 -0.0535 -0.5047
17949W        W38229  11.525  17.247  15.979  0.0527 -0.2514 -0.2760
17950W        W38230  10.379   1.704   5.884  0.0342  0.2775  0.0265
17951W        W38231   2.519   1.907   4.879  0.0352 -0.0333  0.2050
17952W        W38232   2.897   9.307  15.013 -0.2567  0.1224  0.1797
17953W        W38233  16.410  12.729  12.908 -0.1260  0.1617  0.1189
17954W        W38234   6.353   1.508  16.467 -0.0812 -0.1741  0.0173
17955W        W38235   7.888   6.328  16.980 -0.3902 -0.1938  0.1387
17956W        W38236   3.660  11.113   1.422 -0.1159  0.0863  0.1337
17957W        W38237   6.877  16.323  14.861 -0.2354 -0.1638 -0.1638
17958W        W38238   2.130  14.514  15.265 -0.2496  0.2878  0.2255
17959W        W38239   3.235  10.828  12.539  0.1387  0.0867 -0.2138
17960W        W38240  13.452   8.466  14.502  0.3535 -0.0398  0.0917
17961W        W38241  16.465   7.471  13.244 -0.1232  0.2315 -0.0247
17962W        W38242  11.303  10.951  15.357 -0.3509  0.2796 -0.1747
17963W        W38243  11.737  10.933   3.208  0.0680  0.3043  0.0348
17964W        W38244   7.618   8.470   0.561  0.1363  0.0320  0.1815
17965W        W38245   9.290  12.734  13.232 -0.5904  0.2730 -0.2882
17966W        W38246   0.599  17.250   1.144 -0.1866  0.2941 -0.1672
17967W        W38247   1.082   9.342   4.704  0.0481 -0.1436  0.3215
17968W        W38248  12.461  17.482   0.044 -0.1840 -0.3300 -0.4299
17969W        W38249  11.519   1.444   4.114 -0.1462 -0.2315  0.2119
17970W        W38250   0.705  14.923   3.049  0.1607 -0.1352 -0.1712
17971W        W38251  13.554   5.245   2.724 -0.1564  0.0476  0.0811
17972W        W38252   4.218  11.959  14.594  0.1232 -0.1316  0.0154
17973W        W38253   4.384  17.739  15.538  0.2608  0.0472  0.0902
17974W        W38254  12.999  10.770   1.315 -0.0729 -0.1266  0.3229
17975W        W38255   3.271  15.067   3.369 -0.0640 -0.3857 -0.2461
17976W        W38256   9.350   6.976   1.349  0.3655 -0.2495 -0.0522
17977W        W38257   2.463  15.835  16.662 -0.0724  0.2673 -0.1862
17978W        W38258  12.227  12.342  12.931  0.0333 -0.1958 -0.4528
17979W        W38259   8.912   5.856  13.454  0.0101 -0.2487 -0.2354
17980W        W38260  17.208  13.517  14.296 -0.1391 -0.1794  0.0819
17981W        W38261   7.299   8.976   4.699  0.0690 -0.1997  0.1816
17982W        W38262   0.048   7.194   3.745 -0.1401  0.1751  0.1499
17983W        W38263  14.802   9.971   2.560 -0.2459 -0.0582  0.0688
17984W        W38264   6.810   9.037  16.678 -0.1271 -0.1793 -0.0688
17985W        W38265   3.977   1.739  14.720 -0.2199  0.1673  0.1211
17986W        W38266  13.216  11.517   0.717 -0.3769 -0.2121 -0.2220
17987W        W38267   8.208   1.238   0.676  0.0634  0.0472  0.1360
17988W        W38268  15.343  17.370  12.205  0.0418 -0.0275 -0.0098
17989W        W38269   8.053   9.305   0.244  0.0881  0.0187  0.3453
17990W        W38270   0.887   0.835   1.665  0.0116 -0.0092 -0.1150
17991W        W38271  12.042  12.605  15.454 -0.1064 -0.2587 -0.0126
17992W        W38272   5.977   5.275   4.855 -0.0036  0.2695  0.3188
17993W        W38273  13.673  12.010  14.881 -0.3185  0.0891  0.1652
17994W        W38274   6.645   6.920   2.835 -0.0572  0.2197 -0.2195
17995W        W38275   3.080   6.737  14.804 -0.1012 -0.2050  0.1198
17996W        W38276   3.351  12.758  12.296  0.1281 -0.1972  0.0094
17997W        W38277  16.499   4.675   2.126  0.3254 -0.1922  0.0023
17998W        W38278   8.066  10.876  16.992  0.1334  0.2453  0.0537
17999W        W38279   4.421  13.050   4.917  0.0876  0.1442  0.1481
18000W        W38280   8.527   8.685  16.220  0.1632  0.1284 -0.2494
18001W        W38281   1.822  15.238   1.928  0.1172  0.1756  0.1443
18002W        W38282   9.231  12.148   1.789  0.1689  0.4546  0.1940
18003W        W38283   3.984   0.006  15.894 -0.5417  0.1753 -0.0533
18004W        W38284  10.943   4.841   5.891  0.0506  0.1166 -0.2543
18005W        W38285  17.058   5.315  14.242  0.1095  0.0289 -0.1596
18006W        W38286  17.227   9.135  16.729 -0.3431 -0.0131  0.0985
18007W        W38287   7.755   1.647  14.733 -0.1556  0.2687  0.1222
18008W        W38288   5.480   5.910   3.967  0.2017 -0.2158  0.1796
18009W        W38289  17.112  16.304   3.069 -0.0342  0.3640 -0.0370
18010W        W38290   8.806  12.476   1.017 -0.2569 -0.1417  0.1455
18011W        W38291   7.311   7.112   2.387  0.0989  0.3092 -0.0697
18012W        W38292   0.997   6.180  12.265 -0.0833  0.1604 -0.0203
18013W        W38293   6.996  10.920  12.292  0.1017  0.1515  0.2342
18014W        W38294   1.908   0.090   3.516 -0.1437  0.0249  0.0642
18015W        W38295  15.579  13.737   4.642  0.0820 -0.3141 -0.1564
18016W        W38296  15.766   1.228   3.025 -0.0453  0.0192 -0.0308
18017W        W38297  12.657  14.213  12.663  0.4722 -0.2068  0.4049
18018W        W38298   6.586   3.013   3.116 -0.0292 -0.0742 -0.1659
18019W        W38299  16.351  10.781   3.216  0.4184 -0.0839  0.0731
18020W        W38300  15.653  12.323  15.741  0.0669 -0.2685 -0.2592
18021W        W38301  14.048  12.435   4.692 -0.1556  0.2097  0.0749
18022W        W38302   2.325   0.104   1.545 -0.0869  0.0911 -0.0501
18023W        W38303   0.140   3.237  14.997 -0.1498  0.0479 -0.1953
18024W        W38304   2.527   4.273  13.624  0.0915 -0.2581  0.0947
18025W        W38305   2.837   5.202   1.300  0.4352  0.0198  0.0842
18026W        W38306   4.826  15.143  14.764  0.0903 -0.0471 -0.2610
18027W        W38307   0.740   1.195  13.600 -0.2953 -0.1318  0.1328
18028W        W38308   8.021   9.223   1.267  0.0737  0.0515 -0.1276
18029W        W38309  12.566  11.622   1.357  0.1230  0.3929  0.1673
18030W        W38310  11.248   4.639   4.719  0.1877 -0.1794  0.1783
18031W        W38311   7.738   9.205  13.724 -0.2188  0.1039  0.4333
18032W        W38312   5.153   9.086   1.829 -0.1721  0.0740 -0.2286
18033W        W38313   2.557  10.026  15.797 -0.1449  0.1386 -0.0125
18034W        W38314  11.626  10.559  15.273 -0.0086  0.0846  0.3481
18035W        W38315   5.630   4.182  13.126  0.0454  0.0813  0.1305
18036W        W38316   9.201   5.102   3.022 -0.1254  0.3428  0.0200
18037W        W38317   1.336   4.715   0.086  0.1421 -0.0239 -0.1153
18038W        W38318   8.512  15.626  15.892  0.1451 -0.1049 -0.2117
18039W        W38319   4.351  11.235   2.849  0.2258 -0.2633 -0.0238
18040W        W38320   1.538   3.767  13.202 -0.0772 -0.0580 -0.2048
18041W        W38321   4.207  13.283   4.553 -0.0000 -0.0033  0.0542
18042W        W38322  11.319  11.647  14.020 -0.2732 -0.2816  0.0480
18043W        W38323   3.357   6.945   4.134 -0.0448  0.0984 -0.2936
18044W        W38324  14.872   5.494   3.688  0.2457 -0.1779 -0.1162
18045W        W38325  17.719   5.980   3.723  0.2023 -0.1795  0.2363
18046W        W38326   0.249   2.368   3.449  0.0981  0.1761  0.2073
18047W        W38327   4.398   2.190  13.076 -0.0602  0.3938 -0.0390
18048W        W38328  13.529   4.909  14.090 -0.2905 -0.2150  0.2302
18049W        W38329   9.488   6.245   4.088  0.0955  0.0140  0.0045
18050W        W38330  16.198   4.742  13.361  0.0363  0.0973 -0.0656
18051W        W38331   9.456  13.967  17.002 -0.2044  0.2278 -0.0640
18052W        W38332  10.243   5.849   4.619  0.2376  0.2319  0.0335
18053W        W38333   2.633   6.264   3.022  0.3643 -0.3503 -0.0188
18054W        W38334  15.155   4.912   0.884  0.0370  0.0475 -0.1276
18055W        W38335   3.070  15.790  15.969  0.3004 -0.1773 -0.0266
18056W        W38336  12.191  13.941  15.869  0.0074 -0.2596  0.1185
18057W        W38337   7.826  10.124   5.578  0.2872 -0.0633  0.1216
18058W        W38338  16.660  13.697  16.843  0.2126 -0.0501  0.1320
18059W        W38339   8.244   3.056   4.280 -0.0530 -0.5459  0.0992
18060W        W38340   9.486  15.863   1.720  0.0805  0.3276  0.0265
18061W        W38341  16.477   9.596  16.615  0.3630  0.0672  0.1535
18062W        W38342   3.151  14.580  12.415  0.1630 -0.1354  0.1145
18063W        W38343   7.081   3.792  13.588 -0.1760 -0.0801  0.3464
18064W        W38344   2.483   9.669  16.685 -0.2133  0.1111  0.1016
18065W        W38345  14.961  15.620   1.384 -0.1989  0.3045  0.0959
18066W        W38346  13.133  13.635  13.545  0.1711 -0.0787 -0.0277
18067W        W38347   0.606   8.905  13.264  0.2636 -0.1880 -0.1846
18068W        W38348   7.514   4.237  12.861 -0.1672  0.0095  0.0805
18069W        W38349  12.272   1.383   4.850  0.2184  0.0042 -0.3565
18070W        W38350   7.667  12.121   0.560  0.1546 -0.0869 -0.0194
18071W        W38351   0.323  12.938  14.349  0.0203  0.0526 -0.0999
18072W        W38352  17.709  11.430   2.088  0.1454  0.2168 -0.3702
18073W        W38353   6.638   8.443   0.233 -0.1019 -0.4093 -0.3720
18074W        W38354   3.649  10.618  14.189 -0.1739 -0.1833  0.0486
18075W        W38355  11.105  12.198  13.060 -0.0955 -0.0079  0.3803
18076W        W38356  14.435   1.478  15.428  0.3040 -0.0797 -0.0692
18077W        W38357   8.657  14.572  12.099 -0.2922 -0.2152 -0.1730
18078W        W38358  12.926   2.248  11.928  0.0517 -0.0527  0.1276
18079W        W38359   1.232   5.914   2.333  0.0994 -0.0138 -0.1619
18080W        W38360   3.380   1.966  15.304  0.2236  0.1332 -0.0386
18081W        W38361   0.530   5.858  13.613  0.3882 -0.0231  0.1967
18082W        W38362  11.572   5.055   0.373  0.1946 -0.1198  0.0583
18083W        W38363   5.776   8.856  16.585  0.1256 -0.1095 -0.0180
18084W        W38364  16.274   3.011   2.155 -0.0005 -0.0178 -0.3580
18085W        W38365  17.580  15.747   4.750 -0.1789  0.1249 -0.1681
18086W        W38366   2.086   0.727  15.806 -0.0892 -0.2760  0.1585
18087W        W38367  15.692   8.341   2.742  0.0179 -0.2216 -0.0128
18088W        W38368  13.560  15.660  16.804  0.1112  0.1503 -0.2803
18089W        W38369   8.467   1.877   2.621 -0.0886  0.1181  0.3307
18090W        W38370   8.014  10.793   1.065 -0.0929  0.2412 -0.0992
18091W        W38371   9.499   9.295   3.766 -0.1110  0.1171  0.1983
18092W        W38372   4.048   3.147  12.853  0.0063 -0.2790  0.0034
18093W        W38373   0.344   4.886   1.354  0.1719 -0.2440  0.2521
18094W        W38374  13.487  10.539  15.922  0.0742  0.1174 -0.0854
18095W        W38375  14.547  11.898   1.577 -0.0123 -0.0499 -0.4043
18096W        W38376   5.753   0.193   1.108 -0.0683 -0.0520  0.0966
18097W        W38377  14.756  11.714   2.442  0.0663 -0.2724  0.1561
18098W        W38378  15.743   7.727   2.995  0.0504 -0.0726  0.0603
18099W        W38379   5.553   2.343  16.823  0.0728 -0.1264  0.0033
18100W        W38380   1.235  14.952  16.099  0.0574 -0.2892 -0.2046
18101W        W38381  14.668  13.969   1.486 -0.1259 -0.0417  0.2526
18102W        W38382   3.937  15.647  12.736  0.1519  0.0929  0.0432
18103W        W38383   3.784  16.915   0.312  0.0319 -0.0068  0.0860
18104W        W38384  13.631  16.175  13.001  0.0764 -0.0184  0.3298
18105W        W38385  17.303   0.594   5.826 -0.4181  0.2349  0.0421
18106W        W38386  11.591  16.815   1.685  0.0077  0.0440  0.0239
18107W        W38387  16.445   8.911  13.301  0.0762 -0.2634 -0.0663
18108W        W38388   3.659   4.575  16.082 -0.0050 -0.3347  0.1660
18109W        W38389   0.092  15.191   4.870  0.0483 -0.0510 -0.1718
18110W        W38390  15.497   2.867   0.459  0.0833  0.0655 -0.1991
18111W        W38391   0.280  14.780   0.379  0.0443 -0.0165 -0.0418
18112W        W38392   0.872   5.145   2.947 -0.3443  0.0474  0.0532
18113W        W38393  16.376  12.334   4.143  0.1515  0.1839  0.1948
18114W        W38394  12.831  14.447   2.834 -0.0106  0.2753 -0.3248
18115W        W38395   6.140   1.414   0.557  0.1049  0.1873  0.0136
18116W        W38396  11.061   1.823   1.649 -0.1708  0.1834  0.0932
18117W        W38397   6.053  17.453  14.266 -0.1593 -0.0423  0.2963
18118W        W38398   2.207   2.203  12.529 -0.1870 -0.0635  0.0723
18119W        W38399   2.465  17.517  16.970 -0.1038  0.0563 -0.1913
18120W        W38400  10.880   2.314  12.419  0.1929 -0.0290  0.1206
18121W        W38401   4.758   5.620  13.617  0.1587 -0.1448 -0.3231
18122W        W38402  16.651  11.319   0.519  0.1103 -0.0649 -0.1292
18123W        W38403   1.342  16.006  13.904 -0.2903  0.1175  0.1929
18124W        W38404   4.801  10.017   2.629 -0.1054  0.0627  0.1797
18125W        W38405   7.490   4.287   1.900  0.2594  0.1059 -0.1007
18126W        W38406  15.601   2.539   1.513 -0.3958 -0.1588 -0.0601
18127W        W38407  11.404   6.974  13.717  0.3083  0.0696 -0.1654
18128W        W38408  13.081  16.164  14.484 -0.1818 -0.2656  0.0439
18129W        W38409   2.228  16.084  13.282 -0.1113  0.2287 -0.1592
18130W        W38410   1.277   7.273   1.024  0.3730  0.1177  0.0621
18131W        W38411  17.457   9.017   3.096  0.1774  0.2959 -0.4567
18132W        W38412   2.161  11.645   1.481  0.2608  0.0420 -0.2085
18133W        W38413   1.841   6.595  16.347 -0.1796  0.2763 -0.2359
18134W        W38414   9.961  12.424   1.106  0.0210  0.4901 -0.1805
18135W        W38415   7.806  15.065   4.038 -0.0840 -0.2377 -0.0536
18136W        W38416   7.725  13.214   0.627 -0.2737  0.1210 -0.1373
18137W        W38417  13.106   1.308  12.574  0.0468 -0.1039 -0.1216
18138W        W38418   4.202  12.027   0.224  0.1350  0.1625  0.0013
18139W        W38419  10.790  11.982   0.517 -0.0383 -0.3327  0.2258
18140W        W38420   1.212   6.537  12.607 -0.2314 -0.2327  0.2263
18141W        W38421   8.045   3.519   0.447 -0.1082  0.3362 -0.1093
18142W        W38422  16.003  13.549   3.501  0.0491 -0.2172  0.3844
18143W        W38423   1.224   1.781  15.266 -0.0038  0.1890 -0.1967
18144W        W38424   5.998  13.910   5.062 -0.1914 -0.0759 -0.1014
18145W        W38425   8.363  17.028  16.017 -0.0965  0.0141 -0.0244
18146W        W38426  12.432   9.396  11.985 -0.2102  0.0098 -0.5179
18147W        W38427   4.762   3.036  15.167  0.0817  0.1940  0.0102
18148W        W38428   3.491   8.415  14.516 -0.1827 -0.0478  0.2236
18149W        W38429  17.449   5.666   3.327  0.5934 -0.2941 -0.2872
18150W        W38430  16.776  13.610   1.195 -0.0832  0.1385  0.1507
18151W        W38431  12.737   2.310   3.555  0.0707  0.0433 -0.1608
18152W        W38432  16.525  16.492  14.396 -0.2176 -0.1768  0.3150
18153W        W38433   1.510  13.673  15.479 -0.0000  0.0377 -0.1429
18154W        W38434   8.102   4.085   3.495 -0.0454  0.0439  0.3228
18155W        W38435  17.381  11.362  13.536  0.2343  0.0674 -0.1683
18156W        W38436   1.752  12.474   4.390  0.1769 -0.0042 -0.2805
18157W        W38437  11.774   2.664   2.044  0.2264  0.2683  0.1170
18158W        W38438   9.592   9.818   4.376 -0.0607  0.4059 -0.4163
18159W        W38439  12.984  12.117   3.011 -0.1767  0.4029  0.0256
18160W        W38440   5.483   3.798   3.866 -0.1999  0.1517 -0.1778
18161W        W38441   0.021   5.726   4.132  0.0067  0.2008  0.2997
18162W        W38442   9.451   6.028  13.930  0.0695  0.0211 -0.1491
18163W        W38443  10.738   0.263   4.528  0.2727 -0.0667  0.1012
18164W        W38444  12.063   5.098   0.279  0.0795  0.0217  0.0589
18165W        W38445   8.805   2.728   1.964 -0.1838 -0.3048  0.0539
18166W        W38446   8.561  10.526  12.290  0.0655 -0.3083  0.1389
18167W        W38447   1.868  13.703  13.818 -0.2184  0.1308 -0.2471
18168W        W38448   2.557  16.853  14.837 -0.3473  0.0336  0.0283
18169W        W38449  16.101  12.281   1.957 -0.0273 -0.2729 -0.2158
18170W        W38450  15.099   6.782   3.421 -0.0428 -0.3432  0.2214
18171W        W38451  11.188   9.335   1.094 -0.1422  0.1279 -0.1878
18172W        W38452   0.585  12.323  12.128  0.1195 -0.2890  0.2115
18173W        W38453  13.636   0.336   4.207  0.4691 -0.2553  0.0331
18174W        W38454   2.527  10.890  12.525 -0.1251 -0.0316  0.1268
18175W        W38455  14.314  14.788  12.687 -0.1241  0.0627  0.1443
18176W        W38456   9.040   9.087  13.045  0.0940  0.3710 -0.0286
18177W        W38457   2.339   2.074   4.286 -0.0465  0.0506 -0.1951
18178W        W38458   7.541  14.850  15.083  0.1084 -0.1397  0.2149
18179W        W38459  16.496  17.291   0.090 -0.2277  0.0312  0.0547
18180W        W38460  12.829  16.975  13.738  0.1340  0.2334 -0.0069
18181W        W38461  11.400  14.976  12.197 -0.2558 -0.2497 -0.1197
18182W        W38462   6.345  10.495  12.573 -0.2810  0.2011  0.2620
18183W        W38463  16.624  14.557  16.577  0.0048 -0.1639  0.3904
18184W        W38464   0.523   7.152   2.294 -0.1442 -0.0668  0.1251
18185W        W38465  15.048   0.410   1.220  0.3028 -0.4538 -0.1423
18186W        W38466  17.142   9.205  12.597  0.0350  0.0246  0.0480
18187W        W38467   2.040   9.695  16.965 -0.1901 -0.0938 -0.1080
18188W        W38468   9.817   8.084   1.721 -0.0129 -0.0566  0.0131
18189W        W38469   3.636   3.583  14.817  0.2293 -0.0501  0.0611
18190W        W38470   3.921   4.606   3.531 -0.0811 -0.0987  0.0183
18191W        W38471   7.345   2.320   2.298 -0.1549 -0.1263 -0.1930
18192W        W38472  14.471  12.829   4.709  0.2551  0.1242  0.1359
18193W        W38473   7.408  16.653  12.622  0.2641  0.0704  0.0481
18194W        W38474  17.555   0.094  13.923 -0.1573 -0.1015  0.1726
18195W        W38475   5.671   5.229  13.947  0.0396 -0.0629 -0.2270
18196W        W38476  13.301  14.100   0.993  0.0856 -0.0209 -0.2249
18197W        W38477   2.039  14.613  15.724 -0.0568  0.0213 -0.0997
18198W        W38478  12.561  16.454  15.597 -0.0538  0.0490  0.0946
18199W        W38479   8.803   9.147   1.347 -0.2246  0.0117  0.0200
18200W        W38480  13.944   0.727   4.487 -0.0837 -0.0334 -0.1785
18201W        W38481   5.247   8.479   0.904 -0.0699 -0.2767  0.0607
18202W        W38482  12.299  15.039  13.985  0.0671 -0.2248  0.1216
18203W        W38483   4.143   2.662   4.233 -0.2913  0.0160  0.0307
18204W        W38484   7.094  16.042   0.995  0.1217  0.1146 -0.0624
18205W        W38485   8.066  16.769  12.164  0.3293  0.0465  0.1210
18206W        W38486  12.520   3.875  12.895 -0.1625  0.2491 -0.1285
18207W        W38487  12.583  13.821  13.126  0.4095 -0.1681 -0.0783
18208W        W38488  16.217   2.583  15.463  0.3792  0.1395 -0.0313
18209W        W38489   7.676  11.327  15.389 -0.3008  0.2232 -0.2947
18210W        W38490   3.092   2.303   4.708  0.3746  0.0335 -0.1027
18211W        W38491   8.477  11.219  12.111 -0.0185 -0.1585  0.2255
18212W        W38492   3.699  16.481  13.860 -0.1305 -0.0806 -0.0337
18213W        W38493   8.941  16.089   3.194  0.3197  0.1117 -0.3581
18214W        W38494  13.801   3.635  12.589 -0.0924 -0.0454 -0.0423
18215W        W38495  14.658  13.205  15.989 -0.1987  0.0167  0.2537
18216W        W38496  12.126   8.081  12.916 -0.1394 -0.0478 -0.2301
18217W        W38497  15.197   6.622   2.620 -0.0713  0.2119  0.1772
18218W        W38498  14.884   0.652   0.318  0.0276 -0.0184  0.0400
18219W        W38499  16.153   2.255   0.403  0.1896 -0.4382  0.0406
18220W        W38500   1.684   0.652   3.069 -0.0274  0.2231  0.2979
18221W        W38501   5.970  16.483  14.405 -0.1062  0.0628 -0.1011
18222W        W38502  11.004   2.255   1.263 -0.1173 -0.0282  0.0630
18223W        W38503   7.214   0.041  16.437 -0.1019 -0.3584 -0.1126
18224W        W38504   7.654  12.745   4.602 -0.0324 -0.3114  0.0238
18225W        W38505  16.788   2.229   3.424  0.1467 -0.0831 -0.1956
18226W        W38506   0.980  10.640   1.458 -0.1759  0.0408  0.0743
18227W        W38507   6.557   6.007   3.773 -0.0572 -0.1630 -0.0127
18228W        W38508  17.422   8.075   2.789 -0.2766  0.1556  0.0676
18229W        W38509  15.693  13.101  16.151 -0.2134 -0.0734 -0.1179
18230W        W38510   5.298  14.231   2.621 -0.1316  0.1341 -0.3195
18231W        W38511   3.305   6.106   1.174 -0.0822 -0.1198  0.0302
18232W        W38512  12.351  16.341   1.088  0.1049 -0.0396 -0.0679
18233W        W38513   8.438   1.774   1.238 -0.0267 -0.1528  0.2934
18234W        W38514   6.870   7.964   1.837  0.1401  0.2599  0.4254
18235W        W38515   1.287   6.389   0.708 -0.1794  0.0849  0.1163
18236W        W38516  12.966   5.674  15.019  0.0815  0.1359  0.1994
18237W        W38517  12.016  13.321  14.126  0.0680  0.0791  0.1996
18238W        W38518   2.328  17.408  13.816 -0.2191  0.0900  0.3811
18239W        W38519   7.312  11.658  15.457 -0.1656 -0.1893  0.1257
18240W        W38520   5.448   0.775  12.295 -0.0130  0.0051  0.2655
18241W        W38521  10.062  14.749  12.000  0.2866  0.0192 -0.1143
18242W        W38522   6.906   7.403  13.165 -0.1952  0.1240 -0.2216
18243W        W38523   0.949  14.915   2.571  0.2077  0.0009  0.0344
18244W        W38524   8.259   3.899   2.503 -0.0824 -0.1294  0.2325
18245W        W38525   1.927   2.733  15.974 -0.0039  0.0355 -0.1372
18246W        W38526  17.163   8.787   0.059  0.2190 -0.0317 -0.1422
18247W        W38527   7.662  16.874   0.685 -0.3472  0.0528  0.1106
18248W        W38528  17.045  17.479   1.608 -0.0763  0.0642 -0.5397
18249W        W38529   3.143  15.649   2.187  0.1334  0.1568 -0.2316
18250W        W38530   9.138   7.416  15.979  0.0687 -0.1038 -0.0179
18251W        W38531  16.056   0.617  14.280  0.0313  0.2083 -0.1674
18252W        W38532   4.373   5.255   0.799 -0.0168  0.3941 -0.1001
18253W        W38533   7.217  14.933  12.337 -0.1169  0.1868  0.1703
18254W        W38534  11.509   8.447   0.705 -0.0656 -0.1086  0.2188
18255W        W38535   7.048  16.029   2.803  0.1176  0.0829  0.0134
18256W        W38536   7.325  11.711   0.196 -0.1386  0.1638 -0.3095
18257W        W38537   4.077  15.267  16.664 -0.3362 -0.0923 -0.1593
18258W        W38538   6.643  14.343   3.589  0.0740  0.0190 -0.0474
18259W        W38539   7.132   9.847  14.195 -0.0618  0.2136 -0.0925
18260W        W38540   2.191   2.422  16.818 -0.2257  0.0378 -0.2695
18261W        W38541   6.650  11.821   4.501 -0.0903  0.0446  0.0145
18262W        W38542  13.343  10.922  15.634  0.1346 -0.0653 -0.1730
18263W        W38543  15.752   1.958   4.597 -0.0131  0.0253 -0.0330
18264W        W38544   4.452   4.615   4.418 -0.2416  0.0982  0.0286
18265W        W38545   0.057  12.135   0.997 -0.1116 -0.0785 -0.1166
18266W        W38546   5.287   1.228  13.169  0.0831  0.0610  0.1713
18267W        W38547   0.532  15.140   2.105  0.1401 -0.1662  0.0713
18268W        W38548  11.856  13.859  13.606 -0.4621  0.1369  0.2920
18269W        W38549   0.171  10.214   2.573  0.0794  0.0066 -0.4224
18270W        W38550  13.895   5.260  15.210  0.1007 -0.0587 -0.0028
18271W        W38551   7.256  17.224  13.335 -0.0937 -0.0037  0.1163
18272W        W38552   6.371  11.030   2.550  0.6169  0.0804  0.0375
18273W        W38553   3.429  15.133   4.917  0.0519 -0.4570 -0.1738
18274W        W38554   2.157   9.762   2.005 -0.2842  0.0803  0.0462
18275W        W38555   6.790   5.264   0.692  0.2020  0.2570  0.0057
18276W        W38556   7.014   2.206   1.958  0.0233 -0.0596  0.4774
18277W        W38557   8.338  14.157   4.033  0.1765 -0.0615 -0.0716
18278W        W38558  14.182  14.593   0.972 -0.2773 -0.0582  0.2727
18279W        W38559  16.565   5.545  12.915  0.2387  0.1623  0.1041
18280W        W38560   7.028  16.694  16.676 -0.2246 -0.1029  0.2298
18281W        W38561   6.419  15.162  14.725  0.0524  0.0385 -0.2942
18282W        W38562  14.406  10.731   4.525 -0.2708  0.1045 -0.3937
18283W        W38563   7.339   6.195   4.213 -0.3690  0.1546  0.1355
18284W        W38564  14.050   6.701   0.951 -0.2597 -0.2661 -0.1107
18285W        W38565   6.291   6.318  14.788 -0.2679  0.1550  0.1445
18286W        W38566  11.484  11.518   3.685 -0.0277  0.1426  0.1288
18287W        W38567   6.451  12.292   1.516 -0.2152 -0.1223  0.1528
18288W        W38568   6.067   6.049  14.294  0.0410  0.1337  0.2731
18289W        W38569   3.403   5.081   0.362  0.1814  0.2101  0.1605
18290W        W38570   1.523   4.273   4.599  0.3521  0.0809 -0.0577
18291W        W38571  10.272  14.182  13.766  0.0690  0.2672 -0.2920
18292W        W38572   4.144  15.789   0.776  0.0828 -0.0702  0.0335
18293W        W38573   3.278  15.070  12.611 -0.1129  0.1022  0.3347
18294W        W38574  11.947   9.528  13.624 -0.1514 -0.1612 -0.2343
18295W        W38575   9.966   5.101  13.186 -0.1395 -0.0606  0.0567
18296W        W38576   2.567  10.593  14.198  0.0862  0.0079  0.1578
18297W        W38577   1.739  11.346   1.522  0.0722  0.2010 -0.2095
18298W        W38578   4.246   2.638  13.050  0.2215  0.1739  0.1700
18299W        W38579   5.576  16.082  15.065 -0.1630  0.1828 -0.0771
18300W        W38580  17.448   4.305  15.985  0.1454  0.0961  0.2322
18301W        W38581   3.977  14.529  14.212  0.2334  0.4375 -0.0741
18302W        W38582  16.601   6.393   0.287  0.3879  0.0095 -0.0370
18303W        W38583   8.309   2.434  14.749  0.2569  0.3442  0.1099
18304W        W38584  12.530  17.175   1.457  0.0166  0.0834  0.2705
18305W        W38585  11.804   6.612  12.630  0.0630 -0.2129  0.4206
18306W        W38586  16.973   9.660   1.517 -0.2236  0.0792 -0.1452
18307W        W38587   3.222   5.568   0.327  0.1368  0.1132 -0.3136
18308W        W38588  15.359   8.895  15.578  0.2857  0.3491 -0.1892
18309W        W38589  12.521   4.157  16.742  0.3102  0.0043  0.1157
18310W        W38590  12.718   8.117  16.375 -0.2338 -0.1893 -0.1614
18311W        W38591   2.839   6.641  12.418  0.1441  0.0480  0.0981
18312W        W38592   4.429   5.260  13.532 -0.1061  0.1798 -0.5165
18313W        W38593  15.378  11.218  13.571 -0.1525 -0.0145 -0.1862
18314W        W38594   0.065  12.731  13.383 -0.3338  0.3093 -0.0929
18315W        W38595   6.166   0.805   2.204 -0.1647 -0.2158  0.1310
18316W        W38596   5.831  12.901  14.507 -0.0527 -0.1438  0.3084
18317W        W38597   5.405   2.610   1.097 -0.0149 -0.3457 -0.5452
18318W        W38598   5.466   7.040  14.178 -0.2121  0.0799 -0.2610
18319W        W38599   3.111   0.725   3.439 -0.0770 -0.0143  0.1063
18320W        W38600   1.738  15.730  13.663  0.0138  0.0615  0.0039
18321W        W38601   9.284   1.948   5.052 -0.0747 -0.0362 -0.0918
18322W        W38602  10.258   7.716  12.573 -0.4908 -0.1530 -0.3057
18323W        W38603  13.076   2.802   0.623 -0.0374 -0.1477 -0.2445
18324W        W38604  12.196   5.508  14.892 -0.3167  0.0555  0.1154
18325W        W38605   7.207   2.423  13.807  0.1647  0.0262  0.1127
18326W        W38606   2.152   0.879   5.100  0.2204 -0.2932  0.3485
18327W        W38607   0.752  11.740   3.786 -0.0775 -0.2966 -0.1935
18328W        W38608  16.057   0.703   4.209 -0.0838  0.1153  0.2420
18329W        W38609   3.090  16.905   0.984 -0.0598  0.1614 -0.2086
18330W        W38610   3.754   6.639  12.637  0.0463 -0.0773  0.1868
18331W        W38611   8.583  13.861   2.929  0.1706 -0.0663  0.0109
18332W        W38612  12.271  12.464   4.119  0.1181 -0.2223  0.0474
18333W        W38613  12.850   9.944  15.594 -0.2111 -0.2236  0.0947
18334W        W38614  12.422   0.480   3.804  0.1914 -0.0499  0.0548
18335W        W38615   8.228   4.491   2.538  0.4858  0.1193  0.1385
18336W        W38616  10.992  10.516  15.244 -0.1878 -0.0384  0.0884
18337W        W38617   8.443   9.903   2.147 -0.2756  0.5417  0.0603
18338W        W38618   7.435   1.893   1.291 -0.2020  0.1228 -0.0310
18339W        W38619   8.426   7.522   2.527  0.0177 -0.2325  0.1393
18340W        W38620  16.021  16.415   3.069 -0.0582 -0.1766 -0.0612
18341W        W38621  14.318   8.672  15.390  0.1087 -0.0982  0.1519
18342W        W38622  17.166   4.293   4.503 -0.1957 -0.1658 -0.0009
18343W        W38623  10.973   7.874   4.544 -0.2241  0.1302 -0.3199
18344W        W38624  13.942  13.744  11.991  0.0538 -0.1990 -0.2608
18345W        W38625   6.374   5.780  15.498 -0.0493  0.2149  0.0633
18346W        W38626   2.788   0.655   1.942  0.0253  0.1210 -0.1005
18347W        W38627  15.009  10.580  15.357 -0.1751  0.1683  0.1730
18348W        W38628   3.646  12.898   1.786  0.2432  0.0025  0.1517
18349W        W38629  14.211  11.831  16.044 -0.0567 -0.0335  0.0371
18350W        W38630  14.695   4.525  12.277  0.2646  0.1338 -0.3171
18351W        W38631   3.531  17.736   2.379  0.0606  0.2712 -0.0823
18352W        W38632   6.083   3.842  14.391 -0.1666  0.1127 -0.0545
18353W        W38633   0.997  12.085   1.940 -0.0918 -0.1099 -0.4009
18354W        W38634  16.318   3.959   2.114  0.0552  0.2009 -0.2899
18355W        W38635   8.945  14.793  16.501  0.1081 -0.2424  0.0399
18356W        W38636   0.780   9.641   0.811  0.2423  0.0218 -0.2377
18357W        W38637   9.002   5.556   2.847 -0.4205  0.0200  0.1622
18358W        W38638   5.978  13.281   3.190  0.2648  0.1522  0.0974
18359W        W38639  16.082   3.843  15.854 -0.1116 -0.2475 -0.0577
18360W        W38640   7.271  11.700   2.529 -0.0717  0.1125  0.1771
18361W        W38641  14.017  16.667  12.570  0.2297 -0.4264  0.1859
18362W        W38642  14.421   2.244   4.294  0.1694 -0.0448 -0.0652
18363W        W38643   5.451  15.130  15.894  0.1308  0.2496 -0.0934
18364W        W38644  14.737   9.124   1.694 -0.2286  0.3373 -0.2958
18365W        W38645   5.677   6.575  13.020  0.1319  0.0148 -0.2767
18366W        W38646  12.155   4.927  12.721 -0.0054  0.0892  0.0580
18367W        W38647   3.831  12.012  16.093  0.2930 -0.3439 -0.0319
18368W        W38648   0.270   6.252  14.579 -0.2088  0.1739 -0.0721
18369W        W38649   6.431   6.585   1.228 -0.0801 -0.0275 -0.0802
18370W        W38650   0.327   6.691   4.961  0.5277  0.0223 -0.0218
18371W        W38651  17.702   0.998   2.507  0.1884  0.4542 -0.1581
18372W        W38652  10.753  12.509  16.129  0.1535  0.1075  0.3668
18373W        W38653  12.049  13.210  12.862  0.0882 -0.3303  0.2774
18374W        W38654   1.481  11.181   3.968 -0.0821 -0.1254  0.1853
18375W        W38655  10.448  11.901  15.565 -0.1058  0.0698  0.0812
18376W        W38656  11.925   8.335  14.678 -0.1144  0.0423  0.2038
18377W        W38657   6.573  13.567   1.926 -0.1163 -0.0290 -0.0188
18378W        W38658   1.588  10.446  14.558 -0.4232  0.2127 -0.0109
18379W        W38659  16.189  17.036  15.791 -0.2341  0.1933  0.0246
18380W        W38660  16.482  17.526  15.725  0.1296 -0.1498 -0.1462
18381W        W38661  10.152   7.203   4.480  0.3547  0.0363 -0.1402
18382W        W38662   2.365   5.628   4.897 -0.3085 -0.4379  0.1410
18383W        W38663  17.518  13.760   3.025  0.2086 -0.3997  0.1353
18384W        W38664   8.729   3.675  14.616  0.4607  0.0081 -0.0219
18385W        W38665  13.090   4.321   0.350  0.2305 -0.2331  0.0520
18386W        W38666  14.957  10.810   2.111  0.1446 -0.0843  0.1575
18387W        W38667  16.192   6.771   4.389  0.0452  0.3955  0.1516
18388W        W38668  10.183   4.962   3.767  0.0261 -0.0885 -0.2863
18389W        W38669   4.773   1.850  13.818  0.0844  0.0565 -0.0324
18390W        W38670   3.355   9.215  15.171  0.0679  0.0742  0.0507
18391W        W38671   9.536  12.850   2.526  0.0725  0.2845 -0.1868
18392W        W38672   8.896   8.230  13.730 -0.1814  0.1054  0.4808
18393W        W38673  15.133   0.796   3.280  0.0113 -0.0180 -0.1294
18394W        W38674   8.745  13.256  15.219  0.1495  0.1613  0.1130
18395W        W38675  15.281   8.718   3.054 -0.4038 -0.1510 -0.0514
18396W        W38676   7.762  14.576  13.791 -0.3376  0.4064 -0.2378
18397W        W38677  12.755  16.407  12.082 -0.1891 -0.0065 -0.2727
18398W        W38678  14.809  17.553   0.578  0.0910  0.3842 -0.0981
18399W        W38679   2.076  10.215   3.640 -0.1047  0.1360 -0.2069
18400W        W38680   5.384   2.139   4.805 -0.1031  0.0516  0.1744
18401W        W38681  12.372  15.694   1.905 -0.0755  0.0569  0.1010
18402W        W38682  13.751  13.080   3.413 -0.0267 -0.1386 -0.0396
18403W        W38683   0.021  14.836  13.860 -0.1107 -0.0246  0.0529
18404W        W38684  13.993   8.974  12.752 -0.2463  0.0779 -0.3441
18405W        W38685   6.284   4.912   4.723  0.0971 -0.0461 -0.1550
18406W        W38686   7.688  13.705   3.349  0.0171  0.0163 -0.2657
18407W        W38687  12.030  11.529   3.047  0.0615  0.0082  0.1256
18408W        W38688  10.021   0.221  16.563  0.2089  0.0452 -0.1380
18409W        W38689   5.087  12.116   0.029 -0.1370 -0.2422  0.0034
18410W        W38690   4.839  12.180  13.031  0.0724 -0.2119 -0.0544
18411W        W38691   6.313  13.218   1.014  0.2992 -0.0258 -0.2047
18412W        W38692  16.343  10.136   4.720 -0.0943  0.0370  0.4206
18413W        W38693   9.106   7.741  12.462 -0.4355  0.2159  0.1155
18414W        W38694  16.976  14.268  14.783 -0.0640 -0.3543 -0.2316
18415W        W38695   6.142   5.634   3.929  0.3265  0.0335 -0.0449
18416W        W38696  12.421  11.363   2.163 -0.0478  0.0609  0.1624
18417W        W38697  13.899  13.220  15.599 -0.2251 -0.3324 -0.0084
18418W        W38698  12.684  16.285  13.711  0.1521 -0.1588 -0.2137
18419W        W38699   5.405   9.509  15.842  0.1778  0.0659  0.0275
18420W        W38700  17.522   7.988  15.060  0.1300  0.3003 -0.0717
18421W        W38701  12.881  11.223   3.635  0.3568 -0.0768 -0.0765
18422W        W38702   2.985  10.596   2.657  0.0616 -0.1328 -0.0428
18423W        W38703  16.038  12.536  13.654 -0.0138  0.0378  0.1590
18424W        W38704  16.253  14.781  15.300 -0.0888 -0.1218  0.1133
18425W        W38705  10.929   9.015  13.773 -0.3551  0.1410 -0.2239
18426W        W38706  17.501   2.932  14.206  0.1640  0.2124 -0.2221
18427W        W38707   3.657  13.583   0.727 -0.1124 -0.0876 -0.0312
18428W        W38708   9.000   6.202  15.679 -0.2098  0.2602 -0.0337
18429W        W38709  16.980  10.756  16.331 -0.0433  0.0710  0.1175
18430W        W38710  11.758  12.224  15.600  0.0987  0.1061 -0.1996
18431W        W38711   9.169   6.437  13.659 -0.0002  0.1057 -0.0960
18432W        W38712  12.863   5.816  13.569  0.0678  0.1174  0.0279
18433W        W38713  13.327   7.027   0.782 -0.0493 -0.2225  0.0142
18434W        W38714  16.764   9.471  15.539  0.0163 -0.2527 -0.0344
18435W        W38715  12.146   6.392  13.323  0.2844 -0.3536 -0.1703
18436W        W38716  16.641   5.829   0.757  0.2883 -0.0558 -0.2122
18437W        W38717   6.188  11.871   4.169 -0.2942  0.0236  0.1758
18438W        W38718   4.074   7.649  14.796 -0.1009 -0.1552 -0.0140
18439W        W38719   2.308   7.071  15.791  0.1588 -0.1954  0.0743
18440W        W38720   0.208   0.803   0.517 -0.0360 -0.2761  0.2782
18441W        W38721   1.402   8.800   3.942 -0.2850  0.1025 -0.0332
18442W        W38722  11.868   2.318   2.456 -0.2835 -0.1424 -0.1237
18443W        W38723   1.579  12.623  14.756 -0.1360 -0.2213 -0.1073
18444W        W38724   2.471  15.297  15.182  0.0606 -0.2438 -0.0382
18445W        W38725   2.490   8.958   0.426 -0.1164  0.2352 -0.0472
18446W        W38726  17.279   5.491  14.756  0.4502 -0.0450  0.0805
18447W        W38727   8.350  17.719   0.570 -0.0806 -0.1904  0.0280
18448W        W38728   6.641  15.300   2.020 -0.2411  0.0700 -0.0018
18449W        W38729  17.643   3.370  12.293  0.1087  0.1852  0.2447
18450W        W38730   2.717   3.466   0.922 -0.2131  0.2262  0.0639
18451W        W38731  14.799   7.387   2.769 -0.0428 -0.2670  0.1539
18452W        W38732   6.888   9.144   0.542 -0.3198 -0.0775 -0.4418
18453W        W38733  13.892   5.893   5.012 -0.2202 -0.2046  0.2378
18454W        W38734   1.141  12.727  13.359  0.0961  0.3311  0.1518
18455W        W38735   1.615  15.541  16.620  0.0244 -0.0832 -0.1719
18456W        W38736   3.117   3.093  13.959 -0.1631  0.0387  0.1754
18457W        W38737   5.565   2.696  12.353  0.2105  0.0967  0.1022
18458W        W38738   9.973   5.364   3.009  0.0461  0.0398 -0.1316
18459W        W38739   0.390  16.771  12.107 -0.3299  0.0797 -0.3508
18460W        W38740  12.234  13.949  11.746 -0.2101 -0.1282 -0.1751
18461W        W38741  10.629  13.260   0.675  0.0945  0.0160 -0.0597
18462W        W38742   5.758   1.271  13.342 -0.0588 -0.1887 -0.0784
18463W        W38743   9.050   7.568   2.100 -0.0699 -0.2894  0.4173
18464W        W38744   2.688  13.627  16.674 -0.0566 -0.2028 -0.2974
18465W        W38745   8.535   1.240  13.725 -0.0343 -0.0718 -0.1174
18466W        W38746  11.388  16.502  15.962  0.2131 -0.1014  0.2561
18467W        W38747  10.998   1.695  16.348 -0.0553 -0.2401  0.3385
18468W        W38748  17.407  10.525  12.694  0.0748  0.1356 -0.0794
18469W        W38749   2.082   9.702  12.905  0.1599 -0.2816  0.1887
18470W        W38750   9.987  10.534   2.080  0.2714  0.0835  0.2151
18471W        W38751  15.387   2.546   0.075 -0.1221  0.2332  0.0027
18472W        W38752  14.459   3.377   4.354  0.1131  0.2512  0.2585
18473W        W38753  12.577  16.965   3.030 -0.0874 -0.1093  0.2176
18474W        W38754  10.125   9.920  12.123  0.0359  0.0593 -0.3186
18475W        W38755   7.427   3.919  15.375  0.0383  0.1303 -0.1478
18476W        W38756   1.124  13.880  16.298  0.1413  0.1159  0.1651
18477W        W38757   1.452   4.130   2.074 -0.0863  0.0534 -0.4156
18478W        W38758   2.697   3.246   0.425  0.6148 -0.3536 -0.0689
18479W        W38759  11.187   0.904   2.452  0.1323 -0.2484  0.0205
18480W        W38760   7.727   8.300   3.399  0.1630 -0.2872  0.0507
18481W        W38761  10.536  17.394   2.493  0.0459 -0.0995  0.2986
18482W        W38762   9.350  13.159  12.796 -0.2075 -0.0793 -0.0660
18483W        W38763  17.646  11.437  16.628  0.4111  0.1181 -0.0608
18484W        W38764   0.468   3.464  12.361 -0.1333  0.0056 -0.0677
18485W        W38765   2.400  10.992   0.757  0.2087 -0.2111 -0.0482
18486W        W38766  14.326  10.735  14.218  0.0299 -0.1811  0.1520
18487W        W38767   0.316   6.862   4.049  0.1395  0.0179  0.1619
18488W        W38768   3.628  15.036  13.054 -0.0796 -0.0827  0.0915
18489W        W38769  12.020  15.212  16.684 -0.2922  0.2028  0.0150
18490W        W38770   5.265   5.404   0.473  0.1305 -0.0486  0.2574
18491W        W38771  15.832   0.394  15.343  0.2324  0.2344  0.1771
18492W        W38772  16.138  16.139  13.953  0.0586  0.0295 -0.0265
18493W        W38773  14.447   0.560  16.478  0.1802  0.0356 -0.0498
18494W        W38774  10.037   5.413  12.580 -0.1061  0.1388 -0.0374
18495W        W38775   2.862   2.848  16.267  0.1809  0.3942  0.3897
18496W        W38776  10.827   7.838   3.280 -0.0075 -0.1454  0.0909
18497W        W38777   3.336   5.301   3.061  0.1832 -0.0971 -0.0969
18498W        W38778  13.092   9.501   2.166  0.2423  0.1421 -0.3317
18499W        W38779  13.439  10.456  12.859 -0.0149 -0.1464 -0.1481
18500W        W38780   1.295  17.471   4.676 -0.1412 -0.3323  0.0033
18501W        W38781   4.702   0.714   2.828 -0.1103 -0.0424 -0.2816
18502W        W38782   4.552   3.211   0.262  0.2613  0.0630 -0.2609
18503W        W38783   3.338   8.103   4.493 -0.0985 -0.0713  0.1268
18504W        W38784  11.480   7.249  12.983  0.1272 -0.1134 -0.2536
18505W        W38785  16.683   7.740  15.630 -0.3773  0.0017  0.1597
18506W        W38786   3.540   4.026  16.666  0.2449  0.1956  0.2364
18507W        W38787   1.969  11.777   4.062 -0.0436 -0.2546  0.1582
18508W        W38788   8.335   9.089   1.639  0.0604  0.0174  0.1704
18509W        W38789   5.688  10.359  14.310 -0.0109 -0.1077  0.1364
18510W        W38790  16.589   7.704   2.587  0.1046  0.2741 -0.1863
18511W        W38791  11.381   8.153   4.516  0.0029  0.3140  0.3056
18512W        W38792  10.158  11.285  14.679  0.0610 -0.0439  0.2130
18513W        W38793  12.661  13.233   2.785 -0.0797 -0.2172  0.0465
18514W        W38794   7.935   4.670  13.051  0.1090  0.1625 -0.2103
18515W        W38795  17.362   8.956   0.581 -0.0101 -0.1240 -0.2221
18516W        W38796  12.335   6.066   3.616 -0.0385  0.1384 -0.2858
18517W        W38797   1.684   6.670   3.394 -0.0066 -0.0105  0.0456
18518W        W38798   1.920   5.779  14.904 -0.3855 -0.0349  0.5036
18519W        W38799  13.877   1.142  12.932 -0.3786  0.1569 -0.1677
18520W        W38800  10.381  16.403   4.526 -0.1469 -0.0720  0.0935
18521W        W38801  17.202  16.197   2.503  0.0230 -0.0403  0.2192
18522W        W38802  16.197  16.688   0.487  0.4086 -0.0254 -0.3955
18523W        W38803  11.131   7.654   2.424  0.3395 -0.1660  0.1503
18524W        W38804  11.580  17.447   3.709 -0.2697  0.0317 -0.0469
18525W        W38805  15.960   4.598  16.303  0.1211 -0.1032 -0.0146
18526W        W38806  16.456  15.256  16.336 -0.0111  0.0308 -0.0316
18527W        W38807   1.564  16.835   3.547  0.1521  0.0832  0.2884
18528W        W38808   5.087  16.720   4.907 -0.0641 -0.0987  0.0576
18529W        W38809  14.567   6.171  12.772 -0.0377  0.0293 -0.0012
18530W        W38810   9.755   7.581   5.712  0.0380  0.2538 -0.0794
18531W        W38811  10.410   6.849  12.659 -0.0217  0.1391 -0.0123
18532W        W38812   1.271   1.632   0.404 -0.3188 -0.2058  0.1889
18533W        W38813  16.118  10.690  14.736  0.2399  0.1253  0.2263
18534W        W38814   1.751  13.945  14.618 -0.0160  0.1983  0.1609
18535W        W38815  16.472  10.074   2.036 -0.1004  0.1581  0.1389
18536W        W38816  10.358   6.887  13.714 -0.0638  0.1009 -0.0310
18537W        W38817   7.038   1.110   4.233 -0.1550  0.1464  0.1922
18538W        W38818   5.077   7.096  15.669 -0.2281 -0.0616 -0.0260
18539W        W38819   7.482  14.976   3.592 -0.0884 -0.1065 -0.1634
18540W        W38820   4.063   7.841  13.911  0.0680 -0.0525 -0.1192
18541W        W38821   2.390   2.681   4.995 -0.0232  0.2897 -0.2264
18542W        W38822   9.015  11.492   1.901 -0.1854 -0.1021 -0.2832
18543W        W38823   2.799   2.359  16.193  0.1831  0.2480  0.1574
18544W        W38824  16.600   8.005  16.838  0.0880  0.3635  0.1043
18545W        W38825   3.137   2.495   1.740  0.0536  0.1373 -0.3968
18546W        W38826  11.847   4.694   1.155 -0.2535 -0.0415 -0.0951
18547W        W38827   7.291  17.571   3.871  0.1220  0.3794 -0.0437
18548W        W38828  11.670   7.425  16.802 -0.1566 -0.1669 -0.3289
18549W        W38829   8.165  12.846   4.476  0.2702 -0.0100  0.1819
18550W        W38830  14.942   3.017   1.847 -0.1207  0.2996  0.0806
18551W        W38831  10.368  11.661   4.312 -0.2412 -0.1947  0.0660
18552W        W38832   0.804   2.524   4.930  0.4610  0.2061  0.1472
18553W        W38833  13.087  17.474   0.819  0.1150 -0.1408  0.0721
18554W        W38834   9.490   4.509   2.425  0.1871  0.3814  0.0133
18555W        W38835  10.043   3.770   2.296  0.0019 -0.0557  0.0476
18556W        W38836   0.357  12.024   3.752 -0.0971  0.0469 -0.0500
18557W        W38837  16.133   4.881  15.824  0.1301  0.0101 -0.0579
18558W        W38838   8.805  10.317   0.735 -0.2126 -0.1069  0.0401
18559W        W38839  14.279   4.799  14.667  0.1096 -0.2451 -0.1578
18560W        W38840   2.499   2.648  15.882 -0.0219  0.1208  0.0459
18561W        W38841   3.716  14.484   0.994 -0.4207  0.4634  0.0123
18562W        W38842   2.992  13.404  14.780 -0.0253  0.0244 -0.2235
18563W        W38843  16.762  13.306  15.830  0.1520 -0.0106  0.2371
18564W        W38844  17.147   3.721   0.195  0.0008 -0.2062  0.1808
18565W        W38845   9.479   3.385   4.825  0.0654 -0.1225 -0.2790
18566W        W38846  11.540   0.337   3.080 -0.4367  0.0717  0.0006
18567W        W38847  13.944   4.272   2.982 -0.1837 -0.1940 -0.2581
18568W        W38848  14.247   4.090   2.264  0.0300  0.0315  0.1655
18569W        W38849  15.227  10.719   4.289  0.1423 -0.1001 -0.4351
18570W        W38850   4.614   1.185   3.053  0.2006 -0.3517 -0.1055
18571W        W38851   9.924  13.773  15.861 -0.1671 -0.2816  0.0106
18572W        W38852   0.211  15.244   0.276  0.2504  0.1665  0.1980
18573W        W38853  12.129   0.695  16.132  0.0098 -0.3301 -0.2364
18574W        W38854   4.451   1.781   1.922 -0.1206 -0.1532  0.0931
18575W        W38855   8.314   5.409   4.959 -0.1829  0.0760  0.0997
18576W        W38856   0.767   6.658  12.869  0.1895 -0.1954  0.2670
18577W        W38857   5.058  10.595   3.752 -0.0733 -0.1155 -0.0821
18578W        W38858   2.966  14.616  14.785 -0.0425 -0.0506 -0.1248
18579W        W38859   2.329  12.937   2.209  0.1945  0.2906  0.3255
18580W        W38860   5.892   7.363   0.375  0.1555 -0.3341  0.1648
18581W        W38861   2.238  13.648   4.439 -0.3801  0.1634 -0.0952
18582W        W38862  12.291  10.416   1.922 -0.2062 -0.2394 -0.3371
18583W        W38863  15.345   0.204   4.467 -0.2023  0.1252  0.2902
18584W        W38864   2.171  16.445  12.445  0.1023  0.0385 -0.3092
18585W        W38865   4.996   1.782  13.337  0.0698  0.0167  0.0146
18586W        W38866   5.959   3.827  13.548  0.1166  0.0721  0.0939
18587W        W38867   2.766   8.776   2.883 -0.1576 -0.0427 -0.1146
18588W        W38868   0.385   3.353  12.835  0.2366 -0.1548 -0.1317
18589W        W38869   2.331   1.430  13.977 -0.1979  0.0994  0.2291
18590W        W38870   4.288  14.402   0.773 -0.2221  0.1081  0.0354
18591W        W38871   7.333   2.317  16.989  0.1678  0.2938 -0.3012
18592W        W38872   8.906   4.522  13.838 -0.1443 -0.1649 -0.0703
18593W        W38873  11.092   5.593   4.900 -0.2118 -0.0339 -0.3536
18594W        W38874   5.410  12.993   4.441  0.3022  0.0700 -0.2067
18595W        W38875  10.885  10.746  16.959  0.1153 -0.1070  0.1988
18596W        W38876  14.620   0.242   1.519  0.1254 -0.2236  0.3035
18597W        W38877   6.098   5.421  14.458 -0.1255 -0.1451 -0.0688
18598W        W38878   8.769  15.656   4.746  0.0969 -0.1559  0.1509
18599W        W38879   1.163  17.134  16.928  0.0118 -0.0905  0.2474
18600W        W38880   6.083   1.630  13.519 -0.0318  0.2070  0.3264
18601W        W38881  15.012   1.315   5.272  0.0270 -0.0252 -0.3843
18602W        W38882  14.024   0.579   1.532  0.0982 -0.2032 -0.0046
18603W        W38883  14.186   3.371  12.487  0.0168  0.1800  0.0920
18604W        W38884   5.719   7.502  13.075 -0.0170 -0.0104 -0.2013
18605W        W38885  15.461   3.787   0.721 -0.0748 -0.1323 -0.0387
18606W        W38886   3.788  10.857   3.467  0.3104  0.0174 -0.1129
18607W        W38887   0.953  13.375   4.240 -0.2889  0.1611 -0.1803
18608W        W38888   6.517  12.480   3.475  0.1438  0.1772  0.2393
18609W        W38889  10.953  12.236   3.791  0.1872 -0.2182 -0.0441
18610W        W38890   8.062   4.373  14.887  0.3428 -0.0803  0.3132
18611W        W38891  13.836  10.708  12.158  0.2352  0.2024 -0.1886
18612W        W38892   0.901   9.894   4.558  0.1033  0.0340  0.1835
18613W        W38893  14.648   9.985  16.322  0.1149  0.1184 -0.2273
18614W        W38894  12.634  10.368  16.291  0.1660 -0.1204 -0.1615
18615W        W38895   8.007   3.519   4.309 -0.0556 -0.1699 -0.1149
18616W        W38896   9.168   7.190  13.250  0.0632  0.0224  0.3879
18617W        W38897  16.425   8.406  13.344  0.3820 -0.1881  0.1110
18618W        W38898  12.692   4.075   0.349 -0.0378 -0.1535  0.3416
18619W        W38899   0.279  13.356   4.177  0.1874  0.2194  0.2197
18620W        W38900  10.428  10.640  16.776  0.3345 -0.0739 -0.1441
18621W        W38901   2.288  17.197   1.665  0.0211 -0.2206  0.0393
18622W        W38902  16.813  10.029  14.586  0.2737  0.2084  0.0875
18623W        W38903  14.351  16.394   3.409 -0.1176  0.3588 -0.0341
18624W        W38904   9.318   7.706   4.058 -0.2133  0.0579  0.1084
18625W        W38905  10.397   8.260  12.748  0.1125  0.2118  0.0560
18626W        W38906   6.747  17.562  16.396 -0.2298 -0.2815  0.0175
18627W        W38907   8.838   2.873  12.692  0.0026 -0.1190 -0.2368
18628W        W38908   9.432   6.962  15.893  0.3841 -0.0168  0.2256
18629W        W38909  17.493   7.730  16.940  0.0376  0.1595  0.0294
18630W        W38910   5.772  16.435   0.126 -0.0083  0.2073 -0.0381
18631W        W38911  15.210  11.555  14.522  0.1593  0.2342  0.0314
18632W        W38912  11.956  11.054  13.790 -0.0599  0.2920 -0.1098
18633W        W38913  11.787  10.396   3.201  0.1551  0.1090  0.1964
18634W        W38914  17.498  12.269  15.680 -0.2241 -0.4094 -0.1442
18635W        W38915  13.103   3.849   4.149  0.0729 -0.1705 -0.0542
18636W        W38916   1.690  13.925   4.752  0.2359 -0.0341  0.1350
18637W        W38917   3.583  16.763  15.009  0.1411  0.0218 -0.4607
18638W        W38918   0.834   7.092   3.992  0.4811 -0.2642  0.3685
18639W        W38919   6.347  13.595  16.255 -0.4597 -0.0366 -0.1770
18640W        W38920   7.673   8.273  15.794 -0.0810 -0.0273 -0.0003
18641W        W38921  10.841   3.476  14.595 -0.1003  0.3850 -0.0338
18642W        W38922   4.121   1.692   4.316  0.0187 -0.0871  0.1053
18643W        W38923   1.523   0.884   3.500  0.2033 -0.6779 -0.2161
18644W        W38924   7.628   4.765  12.682  0.1081  0.0555  0.2800
18645W        W38925  11.315   3.931   3.996  0.0218  0.0360 -0.0476
18646W        W38926   3.006  14.697  15.872 -0.1932  0.1810  0.1335
18647W        W38927   6.343   3.496  13.981  0.3717  0.5297  0.2275
18648W        W38928   0.920   2.956   0.878  0.1685 -0.0754 -0.1206
18649W        W38929  11.675   2.369   1.669 -0.3057  0.0490 -0.5013
18650W        W38930   9.951   5.565   0.192  0.2345  0.2548 -0.1665
18651W        W38931   0.908  11.479   3.370  0.0589 -0.0966  0.0087
18652W        W38932   8.788   9.582   3.208  0.2305 -0.2368 -0.4372
18653W        W38933   6.212   6.548  13.057 -0.1882  0.0718 -0.3127
18654W        W38934   9.232  16.081   2.787  0.0205  0.1066  0.0118
18655W        W38935   9.103  17.192   1.212  0.1367 -0.0743 -0.1531
18656W        W38936   0.113  14.125  14.595 -0.0597 -0.0397 -0.0929
18657W        W38937  10.206  11.653   3.015  0.0920 -0.1101 -0.2349
18658W        W38938   0.962  16.090  12.459  0.1592 -0.1917 -0.1518
18659W        W38939  15.162  15.062  12.682 -0.1778 -0.1541  0.0931
18660W        W38940   9.847   1.001   4.341 -0.0203  0.1074 -0.1609
18661W        W38941   3.267  12.351   2.276 -0.1787 -0.2292  0.0623
18662W        W38942  12.608   6.892   1.957 -0.2984 -0.0095 -0.1014
18663W        W38943   1.077   8.016  14.931  0.2761  0.2610  0.0097
18664W        W38944  10.580   2.374  12.897 -0.1254 -0.1758  0.1471
18665W        W38945  15.656  14.944   3.056 -0.0279  0.1918 -0.1799
18666W        W38946   0.318  16.705  15.369  0.0511  0.1390 -0.1809
18667W        W38947   5.558  13.296  12.216 -0.0607  0.2915  0.1999
18668W        W38948   7.451  10.534   1.670  0.1603 -0.0537  0.1141
18669W        W38949   1.291  10.284   1.895 -0.1075  0.1072 -0.2160
18670W        W38950   9.576  13.064   3.577 -0.1649  0.3158  0.0661
18671W        W38951   1.969  13.328  12.667 -0.2775 -0.1102  0.0192
18672W        W38952  13.794  17.067   4.983 -0.3739 -0.2691  0.0241
18673W        W38953   7.694  15.250   0.779 -0.0483  0.2277 -0.2455
18674W        W38954  16.889   1.706   1.606 -0.1792 -0.0361 -0.0085
18675W        W38955  12.588  16.977  15.681  0.2342  0.1533 -0.3500
18676W        W38956   0.483   7.357  16.888  0.0243 -0.1890  0.1755
18677W        W38957  14.137   4.459   4.783  0.1470  0.2016  0.1767
18678W        W38958  11.783   3.915   0.789 -0.0645 -0.0567 -0.0241
18679W        W38959  13.053   7.991   3.885  0.1425  0.0974  0.1517
18680W        W38960   3.797   9.862   1.669  0.0773  0.0125  0.0569
18681W        W38961  11.323  12.456   4.885 -0.0317 -0.0392 -0.0937
18682W        W38962   6.929   5.327  13.230 -0.1615  0.1483 -0.3180
18683W        W38963   0.079  10.492  13.219  0.0197 -0.0834  0.1133
18684W        W38964   9.389   2.258  15.780 -0.0606  0.0642 -0.0568
18685W        W38965   5.335   2.478  16.218 -0.3628  0.1466 -0.0776
18686W        W38966  13.639   0.106   1.624  0.1112 -0.3930 -0.1607
18687W        W38967   8.690  14.815   4.060 -0.1320  0.2222  0.2114
18688W        W38968  10.794  14.747  13.620 -0.0254 -0.2238 -0.2983
18689W        W38969   9.347  10.927  12.005  0.1164 -0.0401 -0.0026
18690W        W38970  14.523  12.103   3.453  0.1422  0.0147 -0.0881
18691W        W38971  15.693   2.632  14.872  0.0532  0.1527  0.3760
18692W        W38972  10.621   8.077  13.698 -0.0045 -0.1395 -0.3143
18693W        W38973   6.451   9.563  14.011 -0.1470  0.1208  0.1426
18694W        W38974   7.886   8.718   1.485 -0.1520 -0.1032  0.0189
18695W        W38975   9.547   2.733  15.706  0.0950 -0.2175 -0.2494
18696W        W38976  17.512  16.535   1.816  0.0491  0.3971 -0.3186
18697W        W38977   7.543  10.865   2.763 -0.3134  0.1992 -0.0015
18698W        W38978  15.323  12.618   2.148  0.3529 -0.1224  0.0230
18699W        W38979  16.221   4.944  15.165  0.2911 -0.1000  0.2915
18700W        W38980  14.587   0.151   3.219 -0.1514  0.2339 -0.0733
18701W        W38981   9.103   4.633   2.789 -0.0277 -0.2562  0.2420
18702W        W38982  12.509   3.942  16.008 -0.2879 -0.0653  0.3047
18703W        W38983   9.785  14.279   4.918 -0.1195 -0.2429  0.0191
18704W        W38984   0.120   0.981   3.009  0.1782  0.1899 -0.2899
18705W        W38985   0.436  12.572  13.015  0.2787  0.1645  0.0292
18706W        W38986   7.419  15.275  12.055  0.0580  0.2012  0.0941
18707W        W38987   4.360   7.414   0.838 -0.0978 -0.1291 -0.0267
18708W        W38988   5.111   5.720  16.094  0.2003 -0.1947  0.0975
18709W        W38989  12.569  12.064  11.208 -0.0521  0.0950  0.1547
18710W        W38990  12.624   3.802   0.744  0.0263 -0.2722 -0.1614
18711W        W38991  17.134   2.999   4.645  0.0059  0.1696  0.0661
18712W        W38992   0.883   3.691  13.928 -0.1316  0.3693  0.0128
18713W        W38993  14.483   4.990  12.235 -0.3231  0.0772 -0.0095
18714W        W38994  10.632  11.658   2.763 -0.0167 -0.2802 -0.0793
18715W        W38995  17.288   3.801  12.205 -0.2008  0.1815  0.1834
18716W        W38996  10.735   7.344   3.235  0.2890  0.1303  0.1676
18717W        W38997  10.176   9.873   1.110 -0.0962  0.0158  0.2097
18718W        W38998   9.322  14.803   3.539  0.1981  0.0023  0.1165
18719W        W38999   7.171   9.381  15.419 -0.1482 -0.0309 -0.1319
18720W        W39000   0.940   0.793  16.156  0.0546 -0.5844  0.0619
18721W        W39001  15.919   0.992  13.967 -0.2690 -0.0291  0.2825
18722W        W39002   3.258   3.246  14.846  0.1347  0.0751 -0.2471
18723W        W39003   4.263   1.895   0.032 -0.2665  0.2164  0.0711
18724W        W39004   8.759   7.528  16.238  0.0043 -0.1403 -0.2238
18725W        W39005  13.883   0.335   4.773 -0.3002  0.0794  0.0088
18726W        W39006  12.757   6.734   2.662  0.0935 -0.1466  0.2308
18727W        W39007   6.066   4.326   5.202  0.3786 -0.0310 -0.1447
18728W        W39008  13.047   0.696  16.917 -0.0113  0.1023 -0.0776
18729W        W39009  14.216   0.856   0.789 -0.2209  0.0192  0.1598
18730W        W39010  11.281  11.449   0.429  0.1048  0.0947 -0.0342
18731W        W39011   2.826   0.268  15.074 -0.3102 -0.0289  0.2536
18732W        W39012  15.162  14.132   3.442  0.0192 -0.4441  0.0358
18733W        W39013   4.816  10.835   1.035  0.0434 -0.1445  0.1751
18734W        W39014  16.699  16.247  13.441 -0.1537 -0.1071  0.1379
18735W        W39015   0.251  17.377   2.633 -0.2029 -0.0061 -0.0816
18736W        W39016  17.057   1.247   3.177 -0.0077 -0.0645 -0.1163
18737W        W39017   5.985  13.193  14.165  0.0828 -0.1988  0.0994
18738W        W39018   0.901  15.953  13.673 -0.1512 -0.2770 -0.1561
18739W        W39019   4.153   4.506  12.444  0.1740  0.1687 -0.0969
18740W        W39020   3.426  12.449  16.701 -0.0289  0.0488  0.3888
18741W        W39021   9.197  16.772  12.804 -0.0802  0.1221  0.2144
18742W        W39022   3.507   7.773   3.582  0.2250 -0.0120 -0.1171
18743W        W39023   4.159  15.944   2.693  0.0370  0.1869  0.2998
18744W        W39024   5.610  13.295   0.487  0.0207  0.2055  0.0649
18745W        W39025   8.548  10.884   3.580  0.0485  0.0522  0.0680
18746W        W39026   2.992  12.987  12.524 -0.2609  0.0684 -0.0563
18747W        W39027  14.372  17.173   2.597 -0.0161 -0.0274 -0.1432
18748W        W39028   0.876   8.857  16.252  0.0447  0.0401 -0.1374
18749W        W39029  10.103   3.912  15.016 -0.2147  0.1095 -0.3562
18750W        W39030  17.280   0.898  13.977 -0.3631  0.0467 -0.0851
18751W        W39031   6.881  12.390  12.806 -0.0588 -0.1147  0.3713
18752W        W39032   1.903   0.241  15.925 -0.0372 -0.1680 -0.0649
18753W        W39033   8.014   6.231  14.190  0.1501  0.2449  0.1871
18754W        W39034   0.073   8.621  13.377 -0.0162  0.0579  0.4735
18755W        W39035   1.408   2.159   4.165  0.2596 -0.0320 -0.1511
18756W        W39036  14.386   9.342  14.895  0.0425  0.0891 -0.1778
18757W        W39037   4.203   9.844   2.466 -0.0250 -0.0026 -0.2450
18758W        W39038   8.872  14.138  14.876 -0.0759 -0.0993  0.1149
18759W        W39039  17.176   3.192   1.979 -0.0277 -0.1600  0.0094
18760W        W39040   5.924  12.604  15.970  0.1655  0.2943  0.1565
18761W        W39041  17.320  14.449   3.843  0.0128  0.2420  0.0589
18762W        W39042   9.383  10.510  12.685 -0.1820  0.2776 -0.0806
18763W        W39043  10.027   0.559   0.455 -0.1564 -0.0688 -0.0510
18764W        W39044   7.116  13.414   3.239  0.0797 -0.3035  0.3162
18765W        W39045   5.178  14.526  14.368  0.0938 -0.0765  0.0763
18766W        W39046   1.647  12.302   2.697 -0.1427  0.0234 -0.1748
18767W        W39047  15.258  13.051  13.448  0.0454 -0.2803 -0.1302
18768W        W39048  14.628   3.023  16.607 -0.1906 -0.0573  0.2070
18769W        W39049   0.511  12.192   3.123 -0.3045  0.3507 -0.0847
18770W        W39050   7.874  13.278  12.745  0.0166 -0.3256  0.2710
18771W        W39051  14.447  12.069  13.828  0.0962 -0.0499  0.2833
18772W        W39052  17.239   3.487   3.423 -0.2331  0.1308 -0.2592
18773W        W39053   6.583   5.592   1.067  0.0609 -0.1403 -0.0823
18774W        W39054   6.103  15.163  13.878  0.1129  0.0406 -0.2449
18775W        W39055   7.381  15.222  14.740  0.2371 -0.0766 -0.0718
18776W        W39056   4.751  15.046   2.359  0.1836 -0.0425  0.0083
18777W        W39057  16.848  13.145   1.947 -0.1668  0.1125  0.0128
18778W        W39058   1.984   4.021   1.420 -0.2754 -0.0804 -0.1001
18779W        W39059  13.437  12.126  16.222 -0.3948  0.0761  0.0544
18780W        W39060  15.954  10.989  13.601  0.1555  0.0942 -0.1855
18781W        W39061   5.578   8.661   1.715 -0.2195 -0.1014  0.2444
18782W        W39062   1.719   0.137  12.746 -0.3439  0.0538 -0.2230
18783W        W39063   1.455   7.711  14.620 -0.0014 -0.2290 -0.2718
18784W        W39064  10.416   2.422   1.447 -0.0210 -0.1258  0.2689
18785W        W39065   0.231   3.568  15.843 -0.1237 -0.2252  0.0015
18786W        W39066  12.116   5.986   1.327  0.0418 -0.0943 -0.1147
18787W        W39067  14.458  11.583  16.380  0.0462 -0.2208 -0.2559
18788W        W39068  16.748   7.578  14.272  0.0812 -0.1016  0.0318
18789W        W39069  16.827   3.099   1.205  0.2806 -0.2356 -0.0812
18790W        W39070  12.816   3.211   2.732 -0.1267 -0.1258 -0.2328
18791W        W39071   2.630   4.674   4.818  0.2784  0.1643 -0.0258
18792W        W39072   8.199   0.274   3.380 -0.1170 -0.2349 -0.3501
18793W        W39073   2.995  16.544   0.650 -0.2690  0.1481  0.0705
18794W        W39074  12.549  11.997  13.231 -0.0113  0.1131 -0.0129
18795W        W39075   4.626  12.004   4.163 -0.2288 -0.1070 -0.3547
18796W        W39076  14.138   7.171   4.291  0.2904 -0.1964  0.3294
18797W        W39077   4.587   3.693   0.609 -0.5033  0.3380  0.0501
18798W        W39078   6.308   1.229  13.512 -0.1131 -0.1173  0.1503
18799W        W39079  10.454  16.641  12.551 -0.1401 -0.1263  0.0783
18800W        W39080  16.271  13.710   4.089  0.1766 -0.0094 -0.1183
18801W        W39081  13.109   4.361  16.643  0.1372 -0.0420 -0.0287
18802W        W39082   8.982  12.563   0.578 -0.1132  0.0747 -0.1406
18803W        W39083   5.711   9.980   4.698  0.0705  0.3676  0.1644
18804W        W39084   9.888   9.657   3.875 -0.4003  0.0542  0.1724
18805W        W39085  11.539   8.888  16.262 -0.2225 -0.0245 -0.1685
18806W        W39086  15.577   9.717  16.719 -0.1263 -0.3004  0.0905
18807W        W39087  15.488  14.771  16.539 -0.2265  0.2789  0.0205
18808W        W39088  12.226   8.607  15.298 -0.0777  0.0136  0.0474
18809W        W39089  12.412   1.232   1.727 -0.0355 -0.0001 -0.1334
18810W        W39090  15.503  14.388   0.923 -0.3879  0.0681  0.1455
18811W        W39091  16.528  14.674   2.726  0.2001 -0.1637  0.0796
18812W        W39092   9.244   9.813  15.759  0.0812 -0.2279 -0.1607
18813W        W39093  10.221  11.175   1.649 -0.2259  0.0470 -0.1782
18814W        W39094  13.299   4.214   3.462 -0.1357  0.0775 -0.2123
18815W        W39095  14.795  16.073   3.248 -0.0904  0.2324 -0.1030
18816W        W39096   4.541   5.771  16.837 -0.4318  0.1165 -0.0652
18817W        W39097   1.635   1.027   2.270 -0.2039  0.0470  0.1594
18818W        W39098   0.861  12.348   2.398 -0.0405  0.1525  0.0258
18819W        W39099   1.734  14.836  12.052  0.1733  0.0485 -0.1509
18820W        W39100   1.545   3.092   3.744  0.1542 -0.0651 -0.1440
18821W        W39101   2.233  10.495   0.709  0.0448 -0.0428  0.2582
18822W        W39102  16.172  15.129   3.083 -0.1281  0.0840 -0.0203
18823W        W39103  15.434   1.217  15.798 -0.2183  0.3761 -0.0704
18824W        W39104   3.308   4.021   0.480  0.1164  0.2727 -0.0212
18825W        W39105   2.116   8.669  13.945  0.2651 -0.2321 -0.0434
18826W        W39106   8.927   9.515  15.452 -0.2060 -0.1090  0.0593
18827W        W39107  11.746  12.348  13.184 -0.0181 -0.1232  0.0655
18828W        W39108   4.909   0.512   3.241  0.0418  0.1806 -0.0993
18829W        W39109   8.545   4.665  16.029  0.0475  0.0363  0.1079
18830W        W39110  16.054  17.434   4.265 -0.3253 -0.2412  0.1372
18831W        W39111   1.618   8.047   4.502 -0.0383 -0.1443 -0.3129
18832W        W39112   0.769  16.756  16.366  0.0928  0.4374  0.2476
18833W        W39113  14.790  10.659  13.359 -0.3073  0.3625  0.2263
18834W        W39114   5.490   3.184  12.691 -0.1695 -0.0380  0.0523
18835W        W39115  10.914  10.559  13.404 -0.1407 -0.1783  0.3567
18836W        W39116  12.871   8.971  15.963 -0.0728  0.2361  0.2814
18837W        W39117   7.186  15.757  15.861 -0.0920  0.1637  0.1083
18838W        W39118   7.998   7.903   1.099 -0.0792  0.4350  0.1272
18839W        W39119   3.169  14.943   0.242  0.0926 -0.1524  0.1938
18840W        W39120  14.014  14.487   2.131  0.0642  0.0785 -0.0384
18841W        W39121  15.191  12.332  15.996  0.0696 -0.1004 -0.0748
18842W        W39122  16.139  17.259   1.396 -0.1647 -0.1909 -0.0055
18843W        W39123  10.487  17.124   1.026  0.2914  0.0493  0.1008
18844W        W39124   7.415  12.303  13.594  0.1792  0.0240  0.2175
18845W        W39125   9.890   6.316  16.872 -0.3078 -0.0718 -0.1298
18846W        W39126   4.442   3.808  16.636 -0.0681  0.1567  0.1033
18847W        W39127   7.790   3.497  17.020 -0.0177  0.1172  0.2632
18848W        W39128   0.802   7.578   0.999 -0.1263 -0.0500 -0.0323
18849W        W39129   2.714  13.503   4.590  0.2988 -0.1225  0.0181
18850W        W39130  10.860  12.172   2.609  0.1201  0.2776 -0.0292
18851W        W39131  15.373  16.394  13.067 -0.0819  0.1805 -0.1075
18852W        W39132  13.097   1.823   2.643 -0.1567 -0.0003 -0.1337
18853W        W39133  15.201  11.605  16.762 -0.1847  0.1493 -0.0300
18854W        W39134  17.220  17.438  14.604 -0.1757 -0.0626  0.0816
18855W        W39135   6.109   0.458   4.034  0.3194 -0.1898 -0.0130
18856W        W39136  13.020  13.823   0.689 -0.0193 -0.0261 -0.1127
18857W        W39137  16.047   9.595   1.780  0.0829  0.3210 -0.0467
18858W        W39138   8.211  14.547   0.450 -0.0517  0.1026  0.2830
18859W        W39139   8.390   6.143  12.894  0.1358 -0.0874  0.1085
18860W        W39140   2.095  15.992  12.262 -0.0664 -0.1025 -0.0046
18861W        W39141   9.179   6.952  14.485  0.0193  0.0924 -0.2463
18862W        W39142  11.104  15.349   1.783 -0.0660  0.0997  0.1026
18863W        W39143   1.906  10.423   0.026 -0.2566 -0.1004  0.2972
18864W        W39144   8.722   2.163   1.331  0.0779 -0.1124 -0.0974
18865W        W39145   1.764  12.380   1.566  0.0194 -0.1603  0.2542
18866W        W39146   1.602  12.627   3.946 -0.1755  0.1188 -0.0257
18867W        W39147   3.977  15.860  12.146  0.1214 -0.2918  0.2965
18868W        W39148   4.946   2.767   4.758  0.1462 -0.2677  0.0115
18869W        W39149   8.357  15.074   3.835 -0.2432 -0.2159  0.1903
18870W        W39150   4.319   8.353  13.318 -0.0292  0.1281 -0.0798
18871W        W39151   1.077   9.761  13.637  0.2319 -0.0124  0.0181
18872W        W39152   8.280  16.931  15.192  0.0109  0.0402 -0.0631
18873W        W39153   4.406  13.922  14.512  0.1575  0.0404 -0.3097
18874W        W39154   2.437   8.021   5.168 -0.3184  0.1236  0.0910
18875W        W39155   4.938  10.058  16.211  0.2532 -0.0362  0.2495
18876W        W39156   9.561   9.421  16.581 -0.2683 -0.1370 -0.1518
18877W        W39157  14.459  15.493   4.992 -0.2937 -0.0384 -0.2078
18878W        W39158   1.941   0.405  15.023  0.4388 -0.1877  0.0852
18879W        W39159  15.062  14.886   0.977 -0.2155  0.1603  0.1324
18880W        W39160   7.868  14.103   2.239 -0.0422  0.0170  0.0106
18881W        W39161  17.534   1.101  13.524  0.3635  0.0895 -0.1331
18882W        W39162  11.185  14.793  12.695  0.0926 -0.1765  0.1360
18883W        W39163  15.477  13.341   3.189  0.2453 -0.0392 -0.1099
18884W        W39164  10.928  15.875  16.552  0.0678  0.3799  0.0653
18885W        W39165   4.106  14.512  15.247  0.0019  0.1246  0.1754
18886W        W39166   3.271   5.674   4.536 -0.0050 -0.1728  0.1010
18887W        W39167  11.287  11.008   3.012 -0.1271 -0.0233 -0.0878
18888W        W39168  17.182   3.687  12.714  0.0169  0.0077 -0.1544
18889W        W39169  11.030  13.798   0.658  0.1382  0.5351  0.0699
18890W        W39170   9.893   2.367   4.355 -0.2373  0.1603  0.1913
18891W        W39171  17.691   7.774   1.805  0.1303 -0.4519  0.0611
18892W        W39172   3.311   3.033   2.587 -0.0153 -0.2755  0.1073
18893W        W39173   3.355   8.538   0.991 -0.2904 -0.2947 -0.2094
18894W        W39174  15.753   6.577   1.651 -0.0481  0.4786 -0.2609
18895W        W39175  12.935   4.946  14.388  0.0547  0.3226 -0.1228
18896W        W39176   0.818  13.195  14.623 -0.0821  0.2248  0.1060
18897W        W39177   8.305  10.898   3.113 -0.1252 -0.0174 -0.0578
18898W        W39178   2.226   6.621  15.949  0.1891  0.1350 -0.2218
18899W        W39179   2.387  10.222   2.088 -0.2236  0.0598 -0.0458
18900W        W39180   4.900  15.919   2.666 -0.3717  0.3269  0.3777
18901W        W39181   4.481  15.134   3.764  0.0619 -0.1084  0.0870
18902W        W39182  14.201   8.784   0.082 -0.2505 -0.0874  0.1557
18903W        W39183   5.262  14.285  15.824  0.1950 -0.4098  0.4475
18904W        W39184  13.516  15.735   3.286 -0.0378 -0.0183  0.2985
18905W        W39185   1.219   0.804  16.548 -0.0967  0.1703  0.1309
18906W        W39186   4.285   4.111   2.013 -0.1790 -0.3742  0.1363
18907W        W39187   6.819   3.618  12.166 -0.2134 -0.2110 -0.1700
18908W        W39188   6.632  10.485   0.685  0.1773 -0.0295  0.4513
18909W        W39189  16.198   9.554   3.637 -0.1394 -0.0044  0.1257
18910W        W39190   5.199   4.206   0.820  0.0389 -0.0623  0.3260
18911W        W39191   6.154   3.060  15.001  0.0143 -0.1046 -0.1355
18912W        W39192   1.593  14.859  13.369  0.0124  0.0779  0.0455
18913W        W39193   5.395  16.544  15.311  0.1806  0.1359  0.0865
18914W        W39194  16.399   0.436  12.389 -0.0319  0.2487 -0.2464
18915W        W39195  17.472  16.543   2.817  0.0233  0.1791 -0.1331
18916W        W39196  13.939   7.234   4.722  0.1644  0.3741  0.0159
18917W        W39197   7.984   7.982  16.957  0.0383 -0.0309 -0.1594
18918W        W39198   9.347  15.119  13.486 -0.0017  0.0292  0.2129
18919W        W39199   0.389   2.385  12.639  0.1537 -0.2961 -0.0534
18920W        W39200   5.681  15.525  15.767 -0.0792  0.0216 -0.4154
18921W        W39201  11.403  12.685  13.981  0.0245 -0.0292 -0.1171
18922W        W39202  13.780  12.417  12.008 -0.1425  0.1144 -0.1338
18923W        W39203  13.547   8.595   4.306  0.0057  0.2589  0.0357
18924W        W39204   9.532   7.501   1.862  0.4404  0.0511 -0.4330
18925W        W39205   8.747   7.350   0.079  0.0663 -0.2721  0.0801
18926W        W39206  15.306   6.572   3.934 -0.0117 -0.0880  0.0440
18927W        W39207  11.273  11.864   3.386  0.1510  0.1276  0.2038
18928W        W39208   9.434  16.230  14.217  0.0264 -0.2262 -0.0870
18929W        W39209   9.028  10.469  13.030  0.0559  0.1977  0.0340
18930W        W39210   7.981   6.597  12.767  0.1612 -0.0997  0.1974
18931W        W39211  11.707   3.536   3.940 -0.2262 -0.0043  0.2589
18932W        W39212   9.155  15.782   0.037  0.1764 -0.0324 -0.2935
18933W        W39213   4.724   1.713  16.273  0.0655  0.2423  0.0493
18934W        W39214   7.513  14.207  12.786  0.0820 -0.3067 -0.2569
18935W        W39215   0.890  12.208  15.601  0.1764 -0.1702 -0.2285
18936W        W39216   8.147   9.453  12.572 -0.2126  0.1773 -0.0207
18937W        W39217   5.862   4.356  14.892  0.0494  0.1226  0.1011
18938W        W39218  11.927   5.304  14.523  0.1361 -0.1133  0.1432
18939W        W39219   8.059   4.790  15.230 -0.0023 -0.1454  0.0921
18940W        W39220  15.861   5.797  16.817 -0.0001  0.0152 -0.1330
18941W        W39221  10.535   7.326   4.180  0.0174  0.0698 -0.1847
18942W        W39222  11.707  15.874   0.499 -0.1067 -0.4623  0.0717
18943W        W39223  12.248   1.422   2.580  0.1504 -0.0979 -0.0679
18944W        W39224   4.840  13.102  13.379 -0.0991 -0.0449  0.1726
18945W        W39225  11.206  13.696   4.540 -0.4104 -0.1483 -0.1129
18946W        W39226  10.840   8.946  14.275 -0.0028 -0.1080 -0.1788
18947W        W39227   8.260   8.950   3.751 -0.1390 -0.2988  0.2909
18948W        W39228   8.121  17.373  15.053  0.1501  0.0323  0.0059
18949W        W39229  12.473   8.570   0.242 -0.1475 -0.1872 -0.0733
18950W        W39230   9.414  16.040  13.710 -0.1857 -0.0606 -0.1680
18951W        W39231   7.239  17.453  13.792 -0.1746 -0.1770  0.0308
18952W        W39232   5.409   4.886   4.578  0.1288  0.2355 -0.1865
18953W        W39233   9.344  11.571   0.090  0.0184  0.0358 -0.1877
18954W        W39234   9.025  11.638  14.216 -0.1661 -0.1992  0.0006
18955W        W39235   7.178   1.372  12.456 -0.1309 -0.0823 -0.0797
18956W        W39236   8.452   1.136   1.499 -0.0658  0.0546 -0.1647
18957W        W39237   1.983  16.966   2.562 -0.1330 -0.0461 -0.2263
18958W        W39238   7.268   6.015  14.438 -0.0920  0.0771 -0.0225
18959W        W39239  16.789   2.010  13.192  0.0118  0.1446 -0.2521
18960W        W39240   6.395  10.625   4.585  0.0389  0.0447 -0.0441
18961W        W39241  11.544   8.822   3.818 -0.3765 -0.0945 -0.2112
18962W        W39242  10.431   9.306   4.426  0.0305  0.0381 -0.4261
18963W        W39243  12.112  12.427  12.005 -0.1329 -0.1476 -0.2822
18964W        W39244   0.921   8.877   4.761 -0.0776 -0.3008 -0.0952
18965W        W39245   2.157   6.482  12.772 -0.1874  0.3677 -0.1456
18966W        W39246   4.536  13.673  12.546 -0.1322 -0.1349  0.1958
18967W        W39247   4.584   0.879  12.714  0.1616  0.3998 -0.1932
18968W        W39248   0.058  11.440   4.279  0.1196  0.0961  0.1051
18969W        W39249  13.175  10.349   2.425  0.0714 -0.0320 -0.0041
18970W        W39250   5.741  10.764   1.095 -0.2665  0.1201 -0.1111
18971W        W39251   0.076   5.016   0.955  0.2165 -0.1160  0.2772
18972W        W39252   0.681   2.291   1.509 -0.2840  0.0456 -0.0313
18973W        W39253  11.827   6.960   3.354  0.0466 -0.0101  0.0531
18974W        W39254  17.053  11.727   5.007 -0.0489  0.0012 -0.0009
18975W        W39255  14.464   6.962   2.248  0.1226  0.1039 -0.1466
18976W        W39256  11.907  10.970  13.266 -0.1856  0.0924 -0.0019
18977W        W39257  15.390   0.686   2.861  0.0210  0.2793  0.1041
18978W        W39258   3.895  12.152   1.644  0.0544 -0.3741  0.1941
18979W        W39259   8.337   5.356  12.187  0.1416 -0.0470 -0.0109
18980W        W39260  10.341   2.074  12.455  0.0844 -0.2375  0.2193
18981W        W39261  15.774  15.168   4.383 -0.0858 -0.1687  0.0720
18982W        W39262   8.641  12.234   0.129  0.1779  0.1496  0.2274
18983W        W39263  14.760  13.100   4.413 -0.3680 -0.5688 -0.1688
18984W        W39264   4.594   3.533  15.116  0.0204  0.0958 -0.1618
18985W        W39265  14.777   3.693  12.962  0.3549 -0.2906  0.1586
18986W        W39266  13.665   6.993   1.747 -0.1075  0.1061 -0.1048
18987W        W39267   1.937  10.014   1.648  0.1291 -0.0910  0.0476
18988W        W39268  16.497  13.675   4.601 -0.0714  0.1751 -0.0066
18989W        W39269  14.274   3.920  14.662  0.0755  0.3010  0.0821
18990W        W39270   5.405   9.692   0.458  0.0500  0.1045  0.0890
18991W        W39271  15.700  13.625  14.647  0.2974  0.1868 -0.1083
18992W        W39272  13.574  14.903  15.134  0.0850  0.0485  0.1589
18993W        W39273   1.813  12.951   2.874 -0.2874 -0.0855 -0.0706
18994W        W39274  14.724   5.617   4.562 -0.3115  0.4243 -0.1600
18995W        W39275   2.703   4.181  13.047 -0.0744  0.0490  0.0844
18996W        W39276  11.426  11.107  12.211 -0.0599 -0.1978 -0.0301
18997W        W39277   2.244   8.169   2.432 -0.1179  0.4429 -0.0086
18998W        W39278   3.742   2.812  15.464 -0.0054 -0.0412  0.1828
18999W        W39279  15.653  11.675   2.448  0.0689 -0.0585 -0.0104
19000W        W39280   6.358   8.798  16.641 -0.1754  0.0802 -0.0869
19001W        W39281  16.695   3.978   5.342 -0.1201  0.1845  0.0512
19002W        W39282   3.120   6.642   2.398 -0.0591  0.1982 -0.0901
19003W        W39283   4.719   3.280  16.209  0.0283  0.2135 -0.2134
19004W        W39284  11.110  11.351   3.366  0.1571 -0.0474  0.1042
19005W        W39285  16.949   7.057   2.038 -0.1097 -0.2154 -0.1268
19006W        W39286   6.359   2.193  14.194  0.0640  0.1624 -0.2559
19007W        W39287   2.059   8.734  12.298 -0.0785  0.1008 -0.0767
19008W        W39288  12.692  15.357  14.074  0.0772  0.0080  0.0967
19009W        W39289   5.203  10.414  13.065  0.1845 -0.0135  0.0737
19010W        W39290   4.287  10.468  14.045  0.0363  0.0474 -0.2137
19011W        W39291  16.683  11.292  14.108  0.0473  0.1894 -0.1712
19012W        W39292  14.731   6.140   4.860 -0.1396  0.1745  0.0706
19013W        W39293   4.038  16.711   2.114  0.2845  0.1344  0.1359
19014W        W39294  11.544   1.234   3.090  0.1648  0.4432 -0.2272
19015W        W39295  15.516   4.097   2.058  0.2069 -0.1724  0.0024
19016W        W39296   8.172   6.354   3.334 -0.0535  0.1104 -0.0575
19017W        W39297   4.641   6.979   3.482 -0.1325  0.1077 -0.2267
19018W        W39298  14.473   1.438   1.898 -0.1595 -0.1320 -0.0801
19019W        W39299   2.345  13.609  12.963  0.1982  0.2823  0.1623
19020W        W39300  13.978  10.454  11.792 -0.0512 -0.3328  0.1678
19021W        W39301  15.005  13.529  15.852 -0.1445 -0.2413  0.0763
19022W        W39302  15.978   7.366   1.897 -0.0117  0.0627  0.0283
19023W        W39303   8.274  17.663  13.059 -0.2752 -0.3577 -0.1146
19024W        W39304  12.168   5.119   1.067 -0.1949  0.0858  0.1295
19025W        W39305   2.756  10.522   0.728 -0.0696 -0.2225 -0.1053
19026W        W39306  16.745  15.421  12.731  0.0283  0.2824 -0.1177
19027W        W39307   1.639  11.550  13.737 -0.2992  0.1441  0.0665
19028W        W39308  13.423   0.386   0.728  0.3581  0.1232 -0.0126
19029W        W39309  12.848  13.254  13.426 -0.1829 -0.1323 -0.3042
19030W        W39310  11.246  10.669  14.299 -0.0300 -0.0793  0.0054
19031W        W39311  12.947   2.250  16.353  0.1913  0.4151  0.3320
19032W        W39312   2.636   9.186  16.677 -0.0987 -0.1130  0.0126
19033W        W39313   2.588   0.067  15.459 -0.1203  0.2762 -0.1783
19034W        W39314  13.334   2.205   2.440 -0.1726 -0.0388 -0.1462
19035W        W39315   1.013  13.389   0.165  0.4737  0.0940  0.1667
19036W        W39316  10.665   3.693  15.713  0.0870  0.0305  0.1713
19037W        W39317  13.643   1.843   0.819 -0.0069 -0.0621 -0.3154
19038W        W39318   4.326   7.188   1.281 -0.5008 -0.2418 -0.0169
19039W        W39319  12.397   4.715   1.922  0.1037 -0.2967  0.2136
19040W        W39320  10.765  11.845   1.955 -0.0166  0.1899  0.0062
19041W        W39321   3.833  13.401   2.027  0.0931  0.1505 -0.0478
19042W        W39322  16.800   7.145   1.159 -0.1926 -0.0162  0.0215
19043W        W39323  10.331   5.867   4.118  0.0588  0.1016  0.0440
19044W        W39324  13.098  16.413   3.535  0.1458 -0.2003  0.0249
19045W        W39325   9.042   2.141  13.839  0.0342  0.1306 -0.0788
19046W        W39326   9.524  15.125   4.821 -0.0023  0.0761  0.1271
19047W        W39327   4.293  16.549  16.703 -0.1389  0.0539 -0.3482
19048W        W39328  14.206  12.243   1.454  0.0246  0.1303  0.0936
19049W        W39329  16.275  12.773   1.933 -0.2219 -0.2989 -0.0729
19050W        W39330  11.981  17.639   3.327  0.0108  0.0177  0.0359
19051W        W39331   1.005   8.081   0.009  0.2608 -0.1827 -0.0379
19052W        W39332  15.466  13.846   3.717  0.0520 -0.2066  0.0881
19053W        W39333   6.180  16.291  15.674  0.0589  0.1569  0.1639
19054W        W39334  15.233   6.963   5.866 -0.0944  0.1301  0.1313
19055W        W39335  16.414   9.416  15.096 -0.1107 -0.3246 -0.0935
19056W        W39336  17.585   7.517  15.411 -0.0664  0.1225  0.0595
19057W        W39337   4.327   6.152  16.622  0.1524  0.0125 -0.1793
19058W        W39338  12.224  16.248  13.871  0.0290  0.1997 -0.0467
19059W        W39339  14.898   7.429   4.779  0.0621 -0.1182 -0.4197
19060W        W39340  13.636  13.941   3.244  0.0135 -0.2328  0.0660
19061W        W39341   0.316   2.660   4.834 -0.1206 -0.2219 -0.3860
19062W        W39342  15.165   2.374  12.761  0.0168 -0.1210  0.0849
19063W        W39343  12.326  14.021   3.121  0.0123 -0.2840 -0.3437
19064W        W39344   3.429   9.251   1.507 -0.1269  0.4386 -0.1553
19065W        W39345  11.404   7.152   1.516 -0.2337  0.3278 -0.0093
19066W        W39346   0.596   3.269   0.972  0.1644  0.1649 -0.0821
19067W        W39347  13.107  16.088   1.128 -0.0788  0.1912  0.3478
19068W        W39348   5.450   1.762   2.262 -0.1559 -0.1764 -0.3460
19069W        W39349  13.231   5.972  12.657 -0.0426 -0.2816  0.2393
19070W        W39350   9.989   2.103   1.476  0.0661 -0.2309 -0.0624
19071W        W39351   0.028   1.757   0.760 -0.1824 -0.0265  0.0137
19072W        W39352  16.098  10.955  16.804  0.3730  0.2170 -0.2555
19073W        W39353  17.285   5.059   1.807  0.0492 -0.3765  0.0886
19074W        W39354  10.117  12.941  12.413 -0.1044 -0.1342  0.1317
19075W        W39355  13.735   2.428  12.975 -0.1833 -0.2926 -0.1719
19076W        W39356  12.031  10.215  13.078 -0.0485  0.0131 -0.0488
19077W        W39357  17.112   1.320   1.922 -0.3726  0.0299 -0.3602
19078W        W39358  15.542  17.611   3.013  0.3493 -0.0566 -0.1095
19079W        W39359   2.902   5.450   2.645 -0.1481  0.0458 -0.0757
19080W        W39360   0.887  15.627  15.882  0.0111 -0.2774 -0.3071
19081W        W39361   3.923  16.355   4.374 -0.2610 -0.1057 -0.1088
19082W        W39362   9.936   8.321  12.505  0.1508 -0.3050  0.0126
19083W        W39363   0.068   4.651  15.242  0.0122  0.2414  0.1445
19084W        W39364  17.145   4.009  13.713  0.0706  0.1008  0.2594
19085W        W39365   3.723   0.984  13.276  0.0203  0.0930 -0.0326
19086W        W39366   1.071   5.019   0.340  0.1945  0.0995 -0.0317
19087W        W39367   4.854   2.226   4.663  0.0964 -0.2634 -0.0202
19088W        W39368   2.894   1.246  16.946 -0.0837 -0.0590 -0.3418
19089W        W39369   1.566  14.733   2.742  0.1594  0.0911  0.0140
19090W        W39370   8.191  10.301  12.493  0.0828 -0.1913 -0.2543
19091W        W39371   5.392   5.273  12.736  0.1928 -0.1623 -0.1470
19092W        W39372  11.352  10.930   0.190  0.1999 -0.2636 -0.2268
19093W        W39373  10.679   4.211   3.923  0.4209 -0.2445  0.0683
19094W        W39374   7.180   1.059  11.988 -0.1002 -0.2806 -0.0575
19095W        W39375  11.788   2.818  12.126 -0.1279 -0.1771  0.0580
19096W        W39376   6.448  10.469  13.543  0.0457 -0.1716 -0.1571
19097W        W39377  10.650   8.607  13.853 -0.1287  0.2474  0.2128
19098W        W39378  10.304   0.296  16.062 -0.0173 -0.0005 -0.1578
19099W        W39379   0.809  14.090   5.030 -0.3733 -0.1116 -0.0276
19100W        W39380   7.363   2.791   0.112 -0.4074 -0.2611  0.0423
19101W        W39381  13.670   5.086  16.990  0.2094  0.0183 -0.2798
19102W        W39382   0.939   8.168  15.687  0.0861 -0.1450 -0.2333
19103W        W39383   5.303   3.813  17.006 -0.2301 -0.0248  0.0848
19104W        W39384   5.277   2.519  12.786  0.1517  0.1659 -0.2224
19105W        W39385   8.584  17.228   1.381  0.2701  0.1044  0.1921
19106W        W39386   1.046  16.762   3.423  0.0189 -0.0896 -0.2277
19107W        W39387   6.049   6.116   4.042  0.1239  0.1827 -0.0256
19108W        W39388   2.278   3.365  14.214  0.1421 -0.1597 -0.0768
19109W        W39389   7.191  15.213  14.128  0.2381  0.0515 -0.1665
19110W        W39390  17.444  10.036  14.850  0.4678  0.3118 -0.1196
19111W        W39391   6.482  15.489   2.639  0.0896  0.0467  0.2676
19112W        W39392  10.218   0.487  12.517  0.0368  0.1279 -0.1210
19113W        W39393   8.222   7.700  14.584  0.3063  0.1375 -0.1763
19114W        W39394  16.172  12.720   3.883 -0.0591  0.1088  0.1912
19115W        W39395  16.167  15.978   4.081  0.1144 -0.1298  0.6184
19116W        W39396   3.752   3.991   4.330 -0.0995 -0.2915 -0.1644
19117W        W39397   0.301  15.563  16.598 -0.0396  0.1268  0.0855
19118W        W39398  12.337   8.045   3.001 -0.1397  0.0705  0.0413
19119W        W39399   5.599   1.272   3.160  0.1419  0.2500  0.0744
19120W        W39400  12.558  12.160   0.169  0.0065  0.2529  0.1396
19121W        W39401   0.858  10.976  13.818 -0.2066  0.2674  0.2814
19122W        W39402  12.202   7.944   4.130  0.2251  0.0918  0.4212
19123W        W39403   3.621   0.786  13.738  0.1808 -0.2013 -0.2345
19124W        W39404   4.156  11.230  15.110 -0.1559 -0.2784 -0.2909
19125W        W39405  16.362   1.487   0.838 -0.1293 -0.2810 -0.3794
19126W        W39406  16.539   2.682  13.370  0.1809  0.1625  0.0402
19127W        W39407   3.618  15.006   0.453  0.0166 -0.1723  0.0556
19128W        W39408  13.187  14.994  13.766  0.0379  0.0596  0.1900
19129W        W39409  13.509   2.108  16.382  0.0517  0.1572  0.1462
19130W        W39410  12.078   0.496   2.212  0.1769  0.1072  0.1228
19131W        W39411  13.419   9.918  16.857 -0.1352 -0.1564 -0.0215
19132W        W39412   1.749  15.108  16.529 -0.0089  0.2274  0.0711
19133W        W39413  15.102  13.538  16.884  0.0806  0.2516 -0.2196
19134W        W39414   1.806   7.386  16.356  0.0596 -0.0207 -0.1931
19135W        W39415   9.973  12.776  15.361  0.0178  0.1066 -0.1016
19136W        W39416   7.453   4.460  14.005 -0.0676  0.0307 -0.1380
19137W        W39417   4.122  12.046  15.186  0.3708  0.3397  0.2650
19138W        W39418   0.818  10.918   1.853  0.2594  0.1314  0.1735
19139W        W39419   2.731   6.561  15.135  0.0896  0.1020  0.0053
19140W        W39420  15.842  14.799   2.596  0.0081 -0.1912  0.0433
19141W        W39421  16.835  15.565   4.214 -0.2984 -0.1557 -0.1766
19142W        W39422   4.548  14.633   3.302  0.0885  0.0633  0.2123
19143W        W39423  13.157  16.436  13.006 -0.0583  0.2011 -0.3192
19144W        W39424   5.815  13.155   3.723  0.2793  0.3000 -0.0383
19145W        W39425   0.906   2.125  14.430  0.2442  0.2540 -0.1352
19146W        W39426   4.441  15.136   4.260 -0.3165  0.1425 -0.1941
19147W        W39427   3.555  16.035   4.568  0.1188  0.3396  0.1138
19148W        W39428   3.613   7.485   2.514  0.1443  0.0341  0.1075
19149W        W39429  11.667   0.875   2.200 -0.1710  0.0990 -0.3622
19150W        W39430  16.466   9.168   2.750 -0.0913  0.1473 -0.0323
19151W        W39431  16.385  14.300  14.725 -0.1836  0.0378  0.3967
19152W        W39432   6.852   1.575   0.500 -0.0601  0.0352  0.0861
19153W        W39433  11.775  14.751   1.322 -0.0317 -0.1071 -0.1490
19154W        W39434  15.059   1.799  12.894  0.2234  0.1120  0.1050
19155W        W39435  13.511  14.421   3.302 -0.0523  0.0089  0.0241
19156W        W39436   5.841   4.197  11.664 -0.0291 -0.1554 -0.1111
19157W        W39437   9.317   0.692  16.003 -0.1503  0.2236  0.0684
19158W        W39438   7.339   6.495   3.062  0.0587  0.2052 -0.2584
19159W        W39439  10.381  14.318  14.771 -0.2966 -0.0633  0.0432
19160W        W39440  14.759  10.535   1.104 -0.0493 -0.0369 -0.1115
19161W        W39441   2.631  13.505   1.705  0.0109 -0.2397 -0.0139
19162W        W39442   5.291  13.543   4.544 -0.0114  0.0535 -0.2226
19163W        W39443   3.130  12.283   3.761  0.2616 -0.0966 -0.0969
19164W        W39444   7.733   9.018  11.697  0.1141 -0.0776  0.1713
19165W        W39445   9.360   1.255   4.648  0.0732 -0.2810  0.1309
19166W        W39446  14.950   5.313   2.556 -0.0150  0.0653  0.2120
19167W        W39447   0.433  12.157  13.973  0.3409  0.2156 -0.0602
19168W        W39448  17.400   1.666   3.165  0.1156  0.1362  0.0295
19169W        W39449   9.337   4.713   1.644  0.1218 -0.0389 -0.0041
19170W        W39450   8.879  10.561  14.305  0.0972  0.1967  0.0620
19171W        W39451  14.972  15.394   0.051  0.1136  0.1420 -0.2391
19172W        W39452  10.222  16.967   1.681  0.0498 -0.1923  0.1639
19173W        W39453  11.136   0.380  14.681 -0.1501 -0.1905  0.3742
19174W        W39454   4.474   2.605   2.193  0.0216 -0.0094 -0.2543
19175W        W39455  13.961   2.635  14.985 -0.0445  0.2239 -0.0999
19176W        W39456  17.602   0.627  14.639  0.1692 -0.1733  0.0329
19177W        W39457   7.415  12.516   3.109 -0.0609  0.0556  0.0291
19178W        W39458  14.494   8.077  13.156 -0.0733  0.0309  0.1865
19179W        W39459  13.384   9.714  12.724 -0.1823  0.1098  0.0552
19180W        W39460   9.835  15.089  15.495  0.1237 -0.1324 -0.0850
19181W        W39461  13.169  10.733  12.290  0.0964 -0.1700 -0.2423
19182W        W39462  13.773   7.542   2.798 -0.2180 -0.3257 -0.0654
19183W        W39463   0.823   6.798   1.462  0.3351  0.0131 -0.0523
19184W        W39464   0.554   2.691  15.551  0.1097 -0.0344  0.2307
19185W        W39465  11.821   9.284   2.406 -0.1086  0.0216  0.2896
19186W        W39466   6.495  16.713   4.430  0.2749 -0.3730 -0.1283
19187W        W39467  16.744   4.424  12.665  0.0302 -0.2109  0.1172
19188W        W39468   4.225  13.280   3.496  0.2870 -0.1249 -0.2325
19189W        W39469   2.985   0.957  15.645  0.1823  0.3188  0.1798
19190W        W39470  11.438   2.893   0.040  0.3194  0.0863 -0.0653
19191W        W39471   9.953   1.499   2.246 -0.1648  0.2904  0.0258
19192W        W39472   3.982   5.217  14.709  0.2097 -0.2261  0.0376
19193W        W39473   0.091   4.413  14.240 -0.0041 -0.3828  0.1426
19194W        W39474   6.346   1.013  12.510  0.0670 -0.1736 -0.1440
19195W        W39475   2.185  16.877   0.668  0.0665 -0.2189  0.0533
19196W        W39476   4.879  14.031   2.857 -0.1786 -0.0118  0.2193
19197W        W39477  11.556  14.095   2.700  0.0779  0.0599  0.0484
19198W        W39478  12.877  13.616   3.734 -0.1868 -0.0220 -0.1125
19199W        W39479  16.210   2.897   2.979 -0.0901 -0.1594  0.0113
19200W        W39480   5.506   3.828   0.538  0.0647  0.0099  0.0572
19201W        W39481   8.991   9.598  16.133 -0.1840  0.0834  0.0759
19202W        W39482  12.709  15.129   3.249 -0.0036  0.3709  0.1459
19203W        W39483   5.437   0.360   4.972  0.1500  0.1883  0.0537
19204W        W39484  12.653   1.062   4.927  0.0802 -0.4000 -0.2088
19205W        W39485   8.504   7.869   1.146 -0.1290 -0.0539 -0.1400
19206W        W39486   8.408   7.781  15.927  0.0292  0.1491  0.0464
19207W        W39487   0.147   1.643   2.415 -0.0054 -0.0661 -0.1499
19208W        W39488   6.687  12.866   2.441 -0.2311  0.0889  0.1391
19209W        W39489   6.512  14.255  14.676  0.1421  0.0658  0.1122
19210W        W39490  17.614  16.613   4.909  0.3075  0.0725 -0.1862
19211W        W39491   0.899   1.675   5.171 -0.1009  0.1404 -0.1548
19212W        W39492   1.405   0.523  13.619 -0.1740  0.0191  0.0027
19213W        W39493   7.833  15.721   2.641 -0.0459  0.2326 -0.0588
19214W        W39494   4.419  12.357  15.364 -0.1272 -0.3314 -0.2035
19215W        W39495  15.460  13.737   1.057  0.2339 -0.0192  0.2760
19216W        W39496  13.055  13.525   2.799  0.1172  0.0509  0.0952
19217W        W39497  14.226   5.762   3.023  0.2268  0.1058  0.0398
19218W        W39498   1.191   9.081   2.969 -0.1084 -0.1908  0.0987
19219W        W39499  17.597   1.418  16.676  0.0751  0.2547  0.0194
19220W        W39500  16.760   3.882  12.980 -0.1383 -0.1430 -0.0778
19221W        W39501   7.195   2.349   4.117 -0.2533 -0.0161 -0.0268
19222W        W39502   9.985  15.469   1.171 -0.0043  0.1091 -0.0856
19223W        W39503  13.342   4.030   1.737 -0.0821  0.0056  0.1241
19224W        W39504   2.482   8.342  14.357 -0.0253  0.0744  0.2526
19225W        W39505  13.611  17.529  15.230 -0.0933 -0.0035  0.0644
19226W        W39506  14.824  14.455   2.659 -0.1432  0.1424 -0.0034
19227W        W39507   1.913  17.460   1.418  0.0352 -0.0151  0.0435
19228W        W39508  11.490  14.674  16.165 -0.1233  0.0615 -0.0128
19229W        W39509   3.406   1.633  12.573 -0.0206 -0.3561 -0.1325
19230W        W39510  14.085  16.130  12.603 -0.1308  0.0302 -0.0091
19231W        W39511   5.610  13.426  14.467  0.0564  0.0992  0.3608
19232W        W39512   3.284   5.166  15.277  0.2522  0.0604 -0.1087
19233W        W39513   9.147   9.335  12.564  0.1118 -0.2076  0.0897
19234W        W39514   1.890  16.714  15.945 -0.3522 -0.0437  0.2564
19235W        W39515  15.508   2.215  13.655  0.0135 -0.1742 -0.0548
19236W        W39516  17.509  11.043   0.568  0.2920 -0.2323  0.1953
19237W        W39517   3.442   3.933  15.666  0.1794 -0.0107 -0.2892
19238W        W39518   5.135  15.431   0.960  0.0257 -0.2272 -0.1098
19239W        W39519   6.009   2.129   3.390  0.0649 -0.2336  0.1693
19240W        W39520   3.121   2.937  13.103 -0.0563 -0.2661 -0.0718
19241W        W39521  10.229  15.557   1.707  0.1742 -0.0179  0.2468
19242W        W39522  16.775  13.243   3.259 -0.2091 -0.0208 -0.1029
19243W        W39523   0.803  15.482   4.282  0.0557  0.3492  0.0166
19244W        W39524   8.023  14.898  12.691  0.3849 -0.0964 -0.0913
19245W        W39525   1.598   4.996   1.726 -0.0977  0.0645  0.2857
19246W        W39526   2.743  13.118   4.935 -0.2118  0.0594  0.2604
19247W        W39527  13.231   9.844  11.301 -0.0990 -0.0149  0.1526
19248W        W39528   4.810  16.894   0.219 -0.0049 -0.2436 -0.0248
19249W        W39529  15.197  14.275  14.021  0.0023 -0.1172  0.0357
19250W        W39530   8.886   4.841   3.275  0.2650  0.3338  0.2574
19251W        W39531  16.520   9.407   0.224 -0.0805  0.0962  0.1462
19252W        W39532  17.049  11.210   0.247  0.0044  0.0898 -0.2149
19253W        W39533   0.088   6.520   2.054 -0.3163 -0.1103  0.0394
19254W        W39534   8.866   6.596   3.046 -0.2780  0.0305 -0.2927
19255W        W39535   1.104   2.873   4.187 -0.2375 -0.2067 -0.1184
19256W        W39536  13.094   3.672  15.433 -0.0024 -0.1787 -0.1528
19257W        W39537   9.273  15.396   3.633 -0.0520  0.0334  0.0208
19258W        W39538  16.028   1.268  15.898  0.2870 -0.0419 -0.0507
19259W        W39539   3.640   8.337  16.872  0.1993 -0.1206  0.0839
19260W        W39540   0.316  15.246   2.996  0.1865  0.0461  0.0727
19261W        W39541   5.638  14.353  13.673  0.0571  0.0427 -0.0170
19262W        W39542   9.708   9.475  15.667 -0.3076 -0.0720  0.0584
19263W        W39543   0.020   4.119   0.652  0.0216  0.1356  0.0068
19264W        W39544  14.169  14.236   1.350  0.2114  0.1287 -0.3780
19265W        W39545   3.975   8.205   3.238 -0.1019 -0.1472  0.3332
19266W        W39546  14.820   5.905  12.270 -0.1736  0.1124  0.0737
19267W        W39547  15.546   7.994  13.145 -0.0251 -0.0082  0.3583
19268W        W39548   3.538   7.977   2.374  0.2699 -0.0961  0.2760
19269W        W39549  12.849   3.443  13.468  0.0613  0.1627 -0.0842
19270W        W39550  11.597  13.467  15.660 -0.0263 -0.1641 -0.1162
19271W        W39551  10.135  11.345  15.552  0.0033 -0.0097 -0.0844
19272W        W39552  13.069  10.628   0.691 -0.1552 -0.0546  0.2293
19273W        W39553  13.929   7.152  14.554 -0.0850  0.2332 -0.0425
19274W        W39554  15.873   3.931  13.765  0.2313  0.1591 -0.0512
19275W        W39555  15.088   7.496   1.096  0.1231 -0.1781 -0.0736
19276W        W39556  16.759   6.275  16.086  0.2697 -0.1867  0.1756
19277W        W39557  13.766   5.703  13.485  0.0158 -0.0853  0.1279
19278W        W39558   6.893   1.388   2.864  0.0240  0.1986 -0.1156
19279W        W39559  11.759   2.859  12.587  0.1329 -0.0413 -0.2209
19280W        W39560   3.141  17.235   4.278  0.1597  0.0492  0.0831
19281W        W39561   5.317   8.456  14.333 -0.1475 -0.1332  0.0172
19282W        W39562  14.189  16.540   1.177 -0.1669  0.2875 -0.1783
19283W        W39563  16.821   2.252  14.782  0.0283 -0.1029  0.2968
19284W        W39564   1.477   6.088  12.524  0.1934 -0.1422  0.4508
19285W        W39565  12.752  14.625  16.296 -0.0551  0.1051 -0.4124
19286W        W39566   2.843   1.840  16.232 -0.0302  0.0633 -0.2887
19287W        W39567  10.395   1.090  13.969 -0.1363  0.2237  0.2898
19288W        W39568  13.326   5.722  12.216 -0.1643  0.2640 -0.0437
19289W        W39569   5.782   4.641   3.597 -0.1673  0.1134 -0.0646
19290W        W39570   8.606  11.194   1.692 -0.0053  0.2823  0.1696
19291W        W39571   4.446   1.078  15.527  0.1982  0.0336  0.6230
19292W        W39572  13.593  15.084  16.121 -0.1199 -0.2675 -0.0459
19293W        W39573   0.171  17.185   1.379 -0.1018 -0.0921  0.0895
19294W        W39574   5.225  10.495   4.556  0.3503  0.2772  0.0273
19295W        W39575   2.875   3.328  16.450  0.0948 -0.5266 -0.2078
19296W        W39576  11.356   0.042   4.074  0.0526  0.1582  0.1587
19297W        W39577  12.441  15.629   4.934  0.1571 -0.0548 -0.0392
19298W        W39578   0.217  14.085   2.114  0.1013 -0.1393  0.2728
19299W        W39579  16.999   5.545  13.666 -0.0855  0.2884 -0.0858
19300W        W39580   7.303  17.309   1.851 -0.2049 -0.3045  0.0710
19301W        W39581   8.658   2.216   1.960  0.0858 -0.0829 -0.0151
19302W        W39582   5.132   9.142   3.736  0.1368  0.2572  0.0494
19303W        W39583  10.821   3.275  12.760  0.1971 -0.1999  0.1377
19304W        W39584  17.681   2.037   1.197 -0.0284 -0.1702  0.0943
19305W        W39585  12.309  15.453   3.243  0.0092  0.1809 -0.2569
19306W        W39586   1.315   0.886   1.378  0.0963 -0.0731  0.0475
19307W        W39587  13.903   8.425   3.552 -0.1609 -0.1409 -0.0366
19308W        W39588  15.039  12.269   2.005 -0.0633 -0.0236  0.0022
19309W        W39589   3.027  15.725   4.524  0.1593 -0.0952 -0.1013
19310W        W39590   5.625   8.212   0.447 -0.1561 -0.3928 -0.3432
19311W        W39591  13.517  14.756   0.548  0.0123  0.0807 -0.1499
19312W        W39592   4.788  13.665  16.378  0.1122  0.0273  0.0633
19313W        W39593   3.824   3.812   2.937  0.1078 -0.3230  0.0096
19314W        W39594  12.552  12.304   3.601  0.3256  0.0165 -0.0125
19315W        W39595  15.032   1.697   2.786  0.2253 -0.1895 -0.2028
19316W        W39596   5.526  15.219   0.705  0.0344 -0.2308  0.0482
19317W        W39597  15.043  12.655  13.113  0.1080  0.1346 -0.1664
19318W        W39598  15.578   7.818  15.475 -0.1789  0.0572  0.1035
19319W        W39599   3.126  11.323   4.682  0.1349 -0.4400  0.1663
19320W        W39600   3.395  12.363  15.850 -0.1220  0.0294 -0.0139
19321W        W39601  12.731   9.559  13.448  0.2067  0.2759  0.0271
19322W        W39602  11.157   7.800  13.802  0.2818  0.1378  0.0466
19323W        W39603  11.239   3.607  12.850 -0.1075 -0.0389 -0.0028
19324W        W39604  10.527  11.855   3.854  0.0003 -0.0450 -0.0895
19325W        W39605  13.030  14.290  13.883  0.0564  0.1807  0.0723
19326W        W39606   5.187  12.676   0.217 -0.3371  0.2042 -0.1579
19327W        W39607  11.147   2.194   1.982 -0.3015 -0.1268  0.2880
19328W        W39608   5.678  17.413  15.363  0.2847 -0.2033  0.1857
19329W        W39609   0.294   9.474   0.912 -0.1488  0.1061 -0.2123
19330W        W39610  10.006  15.562  12.012  0.3597  0.0669 -0.0198
19331W        W39611   2.924  16.506   2.724  0.2106 -0.0735 -0.0918
19332W        W39612   2.738  17.695  13.723 -0.0565 -0.0506 -0.1125
19333W        W39613  15.917   5.524   3.097 -0.1239 -0.0743  0.0181
19334W        W39614  14.669   9.456   3.370  0.0910 -0.0798 -0.0017
19335W        W39615   5.279  10.712   1.343 -0.2238  0.2820 -0.0543
19336W        W39616  13.738   1.396  16.032 -0.2600 -0.2927  0.1782
19337W        W39617   6.081   3.467   4.857  0.1227  0.1139 -0.0215
19338W        W39618   2.894   2.874  16.779  0.0459 -0.4366 -0.2657
19339W        W39619  13.502  15.538  14.497 -0.0458 -0.1519 -0.1463
19340W        W39620   4.852   4.368   3.536  0.0820 -0.2688 -0.1738
19341W        W39621  12.033  12.328   0.999 -0.2767 -0.0152 -0.1298
19342W        W39622   7.593  14.050  16.957  0.1613 -0.0724  0.2236
19343W        W39623   6.260   6.781   1.713  0.0781  0.1536  0.1309
19344W        W39624  11.973  12.375   3.752  0.1268 -0.0276 -0.0740
19345W        W39625   1.934   6.997   2.991  0.3540  0.1500  0.0715
19346W        W39626   3.119  16.202   1.659  0.3246 -0.5995  0.0291
19347W        W39627   8.468  12.028   4.805 -0.0658  0.1365  0.1358
19348W        W39628   0.298  16.470   1.962  0.0331  0.0072 -0.0437
19349W        W39629   3.927   0.987   2.278  0.0782 -0.0051  0.1424
19350W        W39630  13.666  13.586   3.613 -0.0988  0.2191 -0.0427
19351W        W39631  17.713   5.061   3.030  0.0317 -0.2076 -0.0701
19352W        W39632  10.970   2.642   0.548 -0.2142 -0.2808 -0.1414
19353W        W39633   6.818  14.829  14.492  0.2657  0.0426 -0.2012
19354W        W39634   0.015   0.509   1.697 -0.3382  0.1868  0.0384
19355W        W39635  17.707   8.464  16.416  0.1730  0.0674  0.2202
19356W        W39636   1.521  11.604   1.936 -0.0629  0.2380  0.1232
19357W        W39637  12.782  17.323  13.010  0.2225  0.2373  0.0158
19358W        W39638   3.626   1.780  13.874  0.0790  0.0121 -0.0491
19359W        W39639   9.972  11.533   1.342  0.0720 -0.0632  0.1958
19360W        W39640  15.910  10.385   4.812  0.2676 -0.1369 -0.2366
19361W        W39641  15.301  17.235  15.602  0.1896  0.2575  0.0276
19362W        W39642  14.260   6.112  15.508 -0.0555 -0.2596  0.1374
19363W        W39643  15.540   0.916  12.692 -0.0707  0.0395 -0.1129
19364W        W39644  14.505  11.711   2.024  0.0856 -0.3142  0.2216
19365W        W39645   8.870   0.912  16.611 -0.1485 -0.0682 -0.2074
19366W        W39646   3.752   0.407   4.934 -0.1673  0.0153 -0.0287
19367W        W39647  14.115  14.328   3.189  0.1828 -0.2442  0.1628
19368W        W39648   5.158   2.120  16.548 -0.2310 -0.1682  0.0781
19369W        W39649   4.476   5.834   0.439 -0.4092  0.0795  0.0636
19370W        W39650  14.392  10.405  16.571 -0.1773 -0.0962 -0.2127
19371W        W39651   5.889   6.491   3.368  0.0727  0.1486 -0.0028
19372W        W39652   7.944  14.929   4.734  0.1987 -0.3613  0.0088
19373W        W39653   7.918   5.627   1.249 -0.2052  0.0032  0.1559
19374W        W39654  14.323   0.131   0.046 -0.5787 -0.0299 -0.1208
19375W        W39655   2.822   4.761   0.677  0.0418 -0.1373 -0.0506
19376W        W39656  17.131   7.819  14.727  0.2596  0.3126  0.1814
19377W        W39657  14.772   3.711  13.455 -0.1426  0.2596  0.0941
19378W        W39658  13.309   0.205  16.881  0.0027 -0.2850 -0.2040
19379W        W39659   2.653  15.886  12.978 -0.1019  0.1373  0.1036
19380W        W39660  10.254  13.182  15.354 -0.2149  0.0672 -0.0270
19381W        W39661   7.860  15.899  13.493 -0.3839  0.2419  0.0678
19382W        W39662  10.709  11.419   4.048  0.0902 -0.0103  0.0681
19383W        W39663  12.570   6.539   4.329  0.4129 -0.2251 -0.1793
19384W        W39664  14.519  12.531   2.641  0.2299  0.1348 -0.1783
19385W        W39665   8.675  15.946  13.250 -0.1496  0.0490  0.1807
19386W        W39666  14.341   5.608   0.361 -0.1733 -0.0255  0.1177
19387W        W39667  15.949   6.899  16.048  0.0067  0.2356  0.1148
19388W        W39668   6.590   3.506   5.188  0.2202 -0.2055  0.1231
19389W        W39669   3.463   5.553  15.552  0.0632 -0.2162 -0.0548
19390W        W39670  17.625  10.535  12.279 -0.1476  0.0507 -0.0474
19391W        W39671   5.278  15.889   2.283 -0.0496 -0.2000 -0.0491
19392W        W39672  11.295   9.651  16.368  0.1300 -0.0910 -0.4577
19393W        W39673  10.222   0.184  15.123  0.0616 -0.1727  0.0922
19394W        W39674   5.906   4.170  16.428  0.0497 -0.1777 -0.1823
19395W        W39675   4.968   4.752   4.830  0.1931 -0.0445 -0.1548
19396W        W39676   1.787   9.272  16.013  0.1257 -0.2669 -0.2659
19397W        W39677   9.051  11.727   3.352  0.0728 -0.3246 -0.0823
19398W        W39678   9.815   7.705  13.806 -0.0905 -0.0005 -0.1266
19399W        W39679   3.821  15.920  15.587 -0.0204  0.1398  0.1732
19400W        W39680   5.301  10.463  15.594 -0.2139 -0.0887  0.1857
19401W        W39681   9.700   3.218  14.486 -0.1420 -0.2150 -0.0368
19402W        W39682   4.302   8.153  14.165  0.0375  0.0204 -0.0726
19403W        W39683   5.340   2.714   2.267 -0.2300 -0.2850 -0.0149
19404W        W39684   0.582  13.637   4.476  0.0439 -0.1938  0.2082
19405W        W39685   7.783  14.852  14.604 -0.4034  0.0403  0.1008
19406W        W39686  11.333   8.251  13.980  0.1813 -0.2611 -0.0314
19407W        W39687   9.790  15.575   2.060 -0.1170  0.1242  0.0132
19408W        W39688   9.717   0.791   1.546  0.0946 -0.0772  0.0180
19409W        W39689   9.584   6.580  16.563 -0.1898 -0.1622  0.1443
19410W        W39690   2.448  10.123  12.902 -0.2332 -0.0763  0.3283
19411W        W39691   5.821   3.321  13.282  0.0054 -0.0352 -0.0176
19412W        W39692  15.365  16.367   2.557 -0.0340  0.1964  0.0210
19413W        W39693  10.388   2.284  15.825 -0.1568 -0.0901  0.0776
19414W        W39694   6.421   0.535  15.050  0.1838 -0.1188  0.2792
19415W        W39695  17.404   4.683   3.070 -0.0238  0.0680  0.0855
19416W        W39696   3.744  12.027  14.000  0.0032  0.1775  0.1903
19417W        W39697  16.389  17.417   2.955  0.0374 -0.2235 -0.0181
19418W        W39698   5.663  16.275  12.539 -0.3166  0.0509 -0.1198
19419W        W39699   8.231  11.897  13.939  0.0140  0.1027  0.0404
19420W        W39700   9.860  10.548   1.595  0.0274  0.2305  0.2384
19421W        W39701   2.683  10.443   1.193 -0.1728  0.1888 -0.0948
19422W        W39702   1.616  13.004  15.075 -0.2997  0.0250 -0.1648
19423W        W39703   5.059  14.095   3.972 -0.2093  0.2984  0.2261
19424W        W39704  15.930   5.459   2.273 -0.0346  0.0666  0.0472
19425W        W39705   3.746  17.682  14.891 -0.0603  0.0389 -0.1267
19426W        W39706   2.473   9.386   0.114 -0.3586  0.2306 -0.3897
19427W        W39707   0.391  17.271  12.270  0.1539 -0.1343  0.0921
19428W        W39708  15.813   0.755   2.099 -0.1792  0.3994 -0.2197
19429W        W39709  14.520   5.584  13.545  0.1105  0.1441 -0.2391
19430W        W39710  16.479  12.347   1.642  0.1172  0.0722  0.0621
19431W        W39711   2.364   4.523   0.792 -0.1743 -0.1974 -0.2196
19432W        W39712  13.007   2.003  13.334  0.3189  0.1787  0.0175
19433W        W39713   2.092   5.711  16.494 -0.0288  0.1199 -0.2680
19434W        W39714  15.231  11.752  15.578 -0.0907  0.1992 -0.1359
19435W        W39715  16.144  11.622   1.295  0.0295  0.1439  0.2553
19436W        W39716   2.112   5.917   4.591 -0.0947  0.0031  0.1355
19437W        W39717  16.438   2.543  14.466  0.0173  0.2166  0.0754
19438W        W39718   7.333  13.922  13.153 -0.3800  0.1116  0.3012
19439W        W39719  10.556   7.500  12.138 -0.2185  0.1904  0.1001
19440W        W39720   0.455   6.778  13.250  0.1313  0.1776 -0.1363
19441W        W39721  17.107   0.842   1.720  0.0395 -0.0928 -0.1267
19442W        W39722   2.229  10.958   4.242  0.2086 -0.3217 -0.1276
19443W        W39723   2.309   9.111   3.702  0.2950  0.0910 -0.0241
19444W        W39724  14.305   6.546  13.586 -0.1620  0.0656 -0.1625
19445W        W39725   5.596   3.485   0.147  0.2667  0.1019 -0.0579
19446W        W39726   8.498   2.066  12.963  0.0206 -0.0455  0.0919
19447W        W39727   2.036   2.634   0.243  0.0035  0.1068  0.0985
19448W        W39728  17.143   6.421  15.748  0.0873  0.2456 -0.0379
19449W        W39729   6.197   5.161  15.444  0.1428 -0.2155 -0.1148
19450W        W39730   1.377  11.624  15.365 -0.2472  0.0975 -0.0807
19451W        W39731   2.350   7.793   3.694 -0.1958 -0.3036  0.2576
19452W        W39732   4.688   0.345  12.118  0.0939 -0.0741 -0.0759
19453W        W39733   4.046   3.242   3.629 -0.0556 -0.1713 -0.1662
19454W        W39734  13.072  12.171   0.025  0.0963  0.0207  0.0470
19455W        W39735  12.480   9.163   3.821 -0.2390  0.2063 -0.0157
19456W        W39736   4.706  16.993   4.697 -0.0369  0.0021  0.0413
19457W        W39737  16.598   1.793   1.199 -0.1448  0.1661 -0.0569
19458W        W39738  15.138   8.029   0.991  0.0961  0.2624  0.0150
19459W        W39739   1.860   3.066   1.823 -0.0600 -0.0642 -0.0161
19460W        W39740   0.146  12.460   0.013 -0.0723  0.4866 -0.0773
19461W        W39741   7.394  11.288  12.082  0.2625 -0.3503  0.0365
19462W        W39742   2.314   7.504   5.014  0.0397 -0.1174 -0.0912
19463W        W39743   3.342   6.765  14.025 -0.3714 -0.4358 -0.1661
19464W        W39744   1.329   6.222  16.041  0.1682 -0.0806  0.2295
19465W        W39745   1.798   7.328   1.461 -0.0090 -0.2881 -0.0136
19466W        W39746   9.303  10.736  15.123  0.1507 -0.1087 -0.2716
19467W        W39747   1.678   4.874   4.578  0.1502  0.0985  0.1515
19468W        W39748  12.735  14.719  16.763  0.0654  0.1100 -0.1524
19469W        W39749   9.393   3.838  14.351 -0.0665 -0.0512 -0.2487
19470W        W39750   7.575   7.021   3.637  0.0600  0.0475  0.0559
19471W        W39751   0.045  11.024  15.769  0.1823  0.1897  0.1507
19472W        W39752   9.300  16.775  13.331  0.2539  0.0983  0.0447
19473W        W39753  15.559  12.389  12.335 -0.2580 -0.0954  0.1387
19474W        W39754  15.926   3.721   0.527 -0.1924 -0.0020 -0.0966
19475W        W39755   0.887   7.535   3.582 -0.1901  0.1827  0.1697
19476W        W39756   8.342  10.180   1.510 -0.0273 -0.0731  0.2418
19477W        W39757   1.528   1.694   3.342  0.2015  0.2310  0.0730
19478W        W39758  13.978  12.175  14.478  0.0272  0.0800 -0.0249
19479W        W39759   3.923   2.948   3.222 -0.0106 -0.1983  0.3675
19480W        W39760  14.084   9.994  15.754 -0.0327  0.0110 -0.0866
19481W        W39761  15.215   4.762   3.358  0.1847  0.0476 -0.0569
19482W        W39762  15.902  11.553   0.404 -0.0497 -0.1826  0.2115
19483W        W39763   7.678  17.568   4.236  0.0040 -0.2668 -0.1761
19484W        W39764   1.742  14.250  15.894  0.1792 -0.0060  0.0742
19485W        W39765  10.656   6.143   3.909  0.1943  0.0271 -0.0312
19486W        W39766  11.968  17.488  16.939 -0.1148 -0.0083  0.0740
19487W        W39767   0.188   3.616   1.903 -0.1360  0.1918 -0.3800
19488W        W39768  12.590  13.162  14.950  0.1708  0.3399 -0.0964
19489W        W39769   7.200   9.136   0.926  0.1345 -0.1678 -0.0574
19490W        W39770  16.800  14.490   4.615  0.1671  0.0221 -0.0811
19491W        W39771   5.430  16.348  13.595 -0.2495  0.3473  0.3891
19492W        W39772  17.731   9.985   0.177  0.3538 -0.3059  0.2346
19493W        W39773   7.485  15.006  15.870 -0.2811  0.0369 -0.0099
19494W        W39774   2.718   7.265  15.433  0.1124 -0.0714  0.1097
19495W        W39775  16.877   5.427   0.993 -0.1999  0.0731 -0.5014
19496W        W39776   3.154   0.599   3.895 -0.5440  0.0142  0.1070
19497W        W39777   0.904  14.279  14.188  0.0160  0.1193 -0.0870
19498W        W39778   7.859   6.584  14.543  0.0455  0.3375  0.1735
19499W        W39779  13.286   0.912   3.506 -0.1017 -0.0007  0.1023
19500W        W39780  17.424  16.232  14.210  0.1309  0.1338 -0.0069
19501W        W39781   0.887  11.372  14.370  0.0646 -0.0081  0.1666
19502W        W39782   1.790  12.951  15.940  0.1783  0.0309  0.0756
19503W        W39783   0.615  16.207  16.077 -0.3838 -0.2441  0.1156
19504W        W39784  13.247   9.928   1.216  0.1083 -0.1105 -0.1393
19505W        W39785   4.414   4.669  15.941  0.1952 -0.1018 -0.0633
19506W        W39786  16.781  16.953   2.341  0.0547  0.0328 -0.1049
19507W        W39787   8.428   9.460  14.747  0.2243  0.0708  0.0780
19508W        W39788   4.141  15.349   0.571  0.0205 -0.1355  0.2174
19509W        W39789   2.669   7.712  14.133 -0.0954 -0.1134  0.1869
19510W        W39790  15.878  13.972  16.696 -0.1128  0.0705  0.0443
19511W        W39791   8.474  15.014  12.979  0.1750 -0.2350  0.1574
19512W        W39792  10.787  13.748  16.796 -0.0555  0.2737 -0.0694
19513W        W39793   5.687   7.451  12.290  0.2814  0.0118 -0.0500
19514W        W39794  10.093   4.919   4.458 -0.1303  0.0991  0.1420
19515W        W39795   3.658   8.148  14.973 -0.0958  0.2426 -0.3015
19516W        W39796   7.121   3.307   3.842  0.1976 -0.1514  0.0256
19517W        W39797   2.225  11.818  13.544  0.2985 -0.3219  0.1449
19518W        W39798  14.518   5.773  14.577  0.3069  0.2300 -0.0093
19519W        W39799  13.195   5.500  16.015 -0.2282  0.0537 -0.3206
19520W        W39800  13.572  17.096  14.905  0.1173 -0.1814  0.1884
19521W        W39801   4.214   6.020   1.870  0.2012 -0.0271 -0.0812
19522W        W39802  10.205   1.652  16.408 -0.1659  0.0796 -0.0167
19523W        W39803  13.521  13.924  12.122  0.1215 -0.3780 -0.1197
19524W        W39804  10.482  17.049   3.312 -0.0061  0.0778 -0.2455
19525W        W39805   7.941   1.044  12.942 -0.3013 -0.1738 -0.1881
19526W        W39806  10.908   6.974   4.387  0.1126 -0.0826  0.1740
19527W        W39807  15.218   2.621  14.877  0.3641  0.3932 -0.0144
19528W        W39808  15.548   3.504  14.158  0.0219 -0.1879  0.2031
19529W        W39809  16.125   0.262  15.884  0.1114  0.2440 -0.1119
19530W        W39810  12.127  12.520  14.574  0.3636 -0.3973 -0.1094
19531W        W39811   2.838  10.706  14.599 -0.1167 -0.1038  0.0508
19532W        W39812  10.362  17.511  13.682 -0.0464  0.1398  0.1568
19533W        W39813   6.123   6.401   4.481 -0.0346  0.1741  0.0144
19534W        W39814   0.750  10.537   3.222 -0.0533  0.3088 -0.0219
19535W        W39815   8.031  10.380  14.676  0.0470 -0.0272  0.1507
19536W        W39816   3.924  15.731   2.262 -0.1013 -0.1181 -0.0185
19537W        W39817   5.916   1.846   1.636 -0.0995 -0.1090  0.2645
19538W        W39818   6.011   5.158  13.443  0.0251 -0.2382 -0.0647
19539W        W39819  15.983  14.673   0.869  0.2396  0.0295 -0.4272
19540W        W39820  16.027   4.268  13.436 -0.0151 -0.1712  0.0455
19541W        W39821  15.738   9.300  16.007  0.1302 -0.0763 -0.0482
19542W        W39822   4.532   8.547  14.677  0.1656  0.0515 -0.4053
19543W        W39823  11.407   2.552   2.329 -0.0936  0.2099 -0.0221
19544W        W39824   3.752  16.229  16.568 -0.0242 -0.2109  0.3119
19545W        W39825   6.324   7.425   2.160 -0.4419  0.0708 -0.2620
19546W        W39826   1.279   8.659  15.521  0.1719 -0.1977  0.0084
19547W        W39827   1.917   2.332   4.107  0.3384  0.0044 -0.0251
19548W        W39828  16.734  15.398  13.608 -0.2145  0.1291  0.1353
19549W        W39829   2.322  15.815   0.102  0.1221 -0.2384  0.0111
19550W        W39830  12.490   5.383   2.805 -0.0609  0.1928 -0.0735
19551W        W39831  10.570   9.558   3.488 -0.3470  0.1143 -0.0104
19552W        W39832  10.004   5.970  14.774  0.0331 -0.0629  0.0285
19553W        W39833   4.142  10.175   0.858  0.0044  0.2195  0.1383
19554W        W39834  17.482  13.691  15.438  0.0440  0.2006 -0.2674
19555W        W39835  16.530   3.914   4.825 -0.2034 -0.2067  0.2583
19556W        W39836  15.186  11.044   3.042 -0.2481  0.1423 -0.1655
19557W        W39837   4.485  10.290  15.249 -0.0691  0.1213  0.3093
19558W        W39838   0.070   3.241   0.951 -0.0977  0.2482  0.2145
19559W        W39839   7.486   9.212   6.049  0.2191 -0.3393  0.0321
19560W        W39840  14.558   7.953  14.146  0.0403  0.2083 -0.0492
19561W        W39841  11.064   1.545  16.941  0.0546 -0.0682 -0.2740
19562W        W39842   3.127   0.766  13.966 -0.1488 -0.2124  0.0219
19563W        W39843  11.110   8.274   4.912  0.1679 -0.3039 -0.0317
19564W        W39844   9.257  10.772  14.058 -0.0128  0.2429  0.1025
19565W        W39845   4.769  15.355   2.873  0.0164 -0.0729 -0.2363
19566W        W39846  16.353   2.670   2.566  0.4045 -0.1306 -0.2326
19567W        W39847   4.013   6.598   3.612 -0.0311 -0.1527 -0.0949
19568W        W39848   3.683  13.692  12.869 -0.0942  0.0489 -0.0736
19569W        W39849   5.661   9.187  14.411 -0.0585  0.2005  0.2590
19570W        W39850   7.769   2.778   1.909 -0.0874 -0.2535  0.0797
19571W        W39851  15.615  12.949  12.260 -0.0409  0.1408 -0.1364
19572W        W39852   9.786  16.540  14.481 -0.0037  0.2159  0.0601
19573W        W39853  10.461  12.330  14.974 -0.0231 -0.0640  0.1359
19574W        W39854   0.749  10.236   1.388  0.2076 -0.2399  0.2092
19575W        W39855   2.379   7.564   2.377  0.1937 -0.1553 -0.2091
19576W        W39856  15.527   2.252  15.806 -0.0836 -0.0364  0.1164
19577W        W39857   5.207  14.781  12.593  0.1230  0.0483  0.0742
19578W        W39858  12.668  12.578  15.638  0.4833  0.2506  0.0440
19579W        W39859  10.743  15.824  15.153  0.0089 -0.0220  0.0110
19580W        W39860   6.555  15.068  15.952  0.0882  0.0760  0.1853
19581W        W39861   0.072   4.310  16.365 -0.2089  0.2230  0.2864
19582W        W39862   6.731  16.774   2.367 -0.0254 -0.0779  0.2220
19583W        W39863  15.748  14.656  16.125  0.0648 -0.0655 -0.1048
19584W        W39864   8.078  16.761   2.062 -0.2767  0.1922  0.0507
19585W        W39865   2.917   8.002   2.210 -0.1407 -0.3637 -0.0194
19586W        W39866  10.194   6.917   1.617 -0.4683 -0.2851  0.0718
19587W        W39867   6.618  13.241   1.409  0.0423  0.2156 -0.1995
19588W        W39868  10.758   5.925  16.629  0.2142  0.0986  0.0294
19589W        W39869  15.595   0.651  14.083 -0.0623 -0.0770 -0.2319
19590W        W39870  14.636  13.654   4.838  0.1974  0.2231  0.1693
19591W        W39871  10.847   2.985   1.979  0.1540 -0.1091  0.1877
19592W        W39872   3.694  10.794   0.908 -0.1729  0.4232 -0.1561
19593W        W39873   7.967   0.682   4.274  0.2637 -0.0627 -0.2015
19594W        W39874  16.422   3.556  13.212  0.2585  0.0603  0.1684
19595W        W39875   4.540   9.717   0.645  0.2647  0.0767 -0.2814
19596W        W39876  12.743  11.159  12.782  0.3377 -0.1154 -0.2343
19597W        W39877  16.797  10.485   2.015  0.2059  0.1700  0.1960
19598W        W39878   2.188   5.656   1.479  0.0739  0.3025  0.0222
19599W        W39879  14.193   4.847  16.608  0.2010  0.3603 -0.2082
19600W        W39880  15.733  17.417   1.141  0.1637 -0.2523  0.5360
19601W        W39881   0.548   9.449  14.335  0.2150 -0.0935 -0.0354
19602W        W39882   5.127  10.837  12.672 -0.5557 -0.2516  0.1443
19603W        W39883  10.889   3.746   1.581 -0.1474 -0.0969 -0.0557
19604W        W39884  12.633  17.367   1.004  0.0083 -0.1874  0.1525
19605W        W39885   8.078  14.189   2.802  0.0409 -0.0898 -0.0462
19606W        W39886   6.488   3.186  16.754 -0.2563  0.0457 -0.0223
19607W        W39887   0.654   3.226   0.080 -0.0125 -0.0657 -0.0933
19608W        W39888   8.502  17.030   3.003  0.0367  0.0408 -0.2518
19609W        W39889   9.126   3.602  15.235 -0.1575  0.1316  0.0635
19610W        W39890   6.688  12.018   2.705 -0.0989  0.0592  0.1649
19611W        W39891   5.765   5.637  13.607 -0.0148  0.0968 -0.0054
19612W        W39892   3.516  12.754  14.343  0.1132  0.0054  0.3516
19613W        W39893   9.482   6.982  14.102 -0.1662 -0.1882  0.1211
19614W        W39894   2.655  16.496   4.623 -0.5963 -0.0681 -0.2006
19615W        W39895  10.862   4.058  14.955  0.2032 -0.0724  0.0868
19616W        W39896  16.071   4.101  14.413 -0.1218 -0.1315  0.4094
19617W        W39897   4.613   6.012   3.300 -0.3072  0.3120  0.2809
19618W        W39898   0.938   7.639   4.184  0.3051  0.4079 -0.2418
19619W        W39899  10.343   3.052   3.267 -0.1962 -0.3916 -0.2321
19620W        W39900   2.032   5.859   2.416  0.0760  0.1929 -0.0763
19621W        W39901  13.841  15.393   1.748 -0.3496  0.3428 -0.1203
19622W        W39902  16.192  11.141   0.285  0.0544 -0.2705  0.1385
19623W        W39903  15.207   7.090  13.996  0.0567 -0.1747  0.0887
19624W        W39904   2.925  16.124   4.808 -0.0208  0.4154  0.2666
19625W        W39905   0.497   0.394  16.803  0.0944  0.2782 -0.1088
19626W        W39906   9.683   0.636  14.536 -0.2666 -0.0361  0.0095
19627W        W39907   1.164   0.686   5.064  0.0148 -0.1874 -0.0394
19628W        W39908   1.427  17.352   1.572  0.1133 -0.2515  0.3465
19629W        W39909  14.565   1.697   0.248 -0.1748  0.1410  0.0711
19630W        W39910  10.192  15.209   3.914  0.0868  0.1533  0.0555
19631W        W39911   0.676  16.557   4.354  0.2893  0.2321 -0.2166
19632W        W39912   0.653  15.366   1.149  0.1068 -0.2963 -0.1920
19633W        W39913   1.575   3.803   5.053  0.2061 -0.1146 -0.0523
19634W        W39914  15.635   3.844  12.823 -0.2284  0.0310 -0.1313
19635W        W39915  15.882  15.147  16.122 -0.1740  0.1406  0.2256
19636W        W39916   6.174  12.739   1.387  0.2219  0.0428 -0.0687
19637W        W39917  16.772  11.974  13.442 -0.0722 -0.2100  0.1758
19638W        W39918  15.344  16.061  15.895  0.0292  0.3086  0.1095
19639W        W39919   5.258   5.217  14.991  0.0549 -0.1218  0.1322
19640W        W39920   8.536   5.686   3.086 -0.1785 -0.0371  0.3472
19641W        W39921  11.263   2.767   1.811 -0.2640  0.0394 -0.2802
19642W        W39922  17.276   9.004  14.312 -0.2816 -0.1587  0.2241
19643W        W39923  12.208  13.417   2.564  0.0672  0.0096  0.2725
19644W        W39924  12.375   7.433  14.136 -0.1676  0.1547 -0.1355
19645W        W39925  14.840   7.343  16.386  0.0728  0.2305 -0.0176
19646W        W39926   0.807  12.024  12.826  0.0841 -0.1779  0.1159
19647W        W39927  16.867   7.839   2.967 -0.0680  0.0450 -0.0649
19648W        W39928   7.692   7.857  15.171  0.0185 -0.4157  0.2350
19649W        W39929   6.365  16.074   2.370 -0.0543  0.1464 -0.2233
19650W        W39930   1.268  17.584   2.025  0.2956 -0.1510 -0.5988
19651W        W39931   9.725   6.319  14.259  0.1913 -0.2615  0.2696
19652W        W39932   0.954  13.322  16.349  0.2331  0.2300 -0.1742
19653W        W39933   7.357  15.704   2.494  0.1753  0.0195 -0.0018
19654W        W39934  13.078   5.408  13.065  0.0738 -0.1871 -0.2994
19655W        W39935  12.944   9.803   3.736 -0.2186  0.0614 -0.1472
19656W        W39936  11.728  11.095   1.738 -0.0048  0.0709  0.1013
19657W        W39937  16.591   3.664  11.156 -0.0057  0.0616 -0.5053
19658W        W39938   6.827   6.196  14.732 -0.0343  0.0446  0.3077
19659W        W39939   6.567   6.740  15.649 -0.4695 -0.0429  0.0406
19660W        W39940   0.449   5.474   4.052 -0.1430  0.1280 -0.0320
19661W        W39941   4.805   2.588  12.935 -0.2517 -0.2422  0.0106
19662W        W39942   6.692  12.192   1.098  0.2135  0.1152 -0.0574
19663W        W39943   0.356  12.214  12.682 -0.0198  0.0826  0.0574
19664W        W39944   1.450  15.175   2.574 -0.0553 -0.2840  0.0580
19665W        W39945   8.581  16.075  16.190 -0.1665  0.2531  0.1569
19666W        W39946   6.568   5.045   1.124  0.0117 -0.1694  0.3785
19667W        W39947  16.112   3.115   3.513  0.0607 -0.2348 -0.0385
19668W        W39948   5.424   0.748  13.375  0.1350 -0.1056 -0.1124
19669W        W39949   7.690   0.889  15.321  0.0484 -0.1153  0.0938
19670W        W39950  16.021   2.770  14.203  0.1502  0.2476 -0.0883
19671W        W39951  17.389   8.925   2.506  0.0560 -0.2880  0.1435
19672W        W39952   4.476   5.666   4.550 -0.0823  0.1189  0.2084
19673W        W39953   9.127   3.378  14.477 -0.1877  0.0957  0.1232
19674W        W39954  17.733  15.157   1.678  0.0416  0.1418 -0.2340
19675W        W39955   4.013  15.033   1.790  0.0257 -0.0180  0.3571
19676W        W39956   1.475   0.731   3.961  0.2476  0.1892 -0.1229
19677W        W39957  12.812   7.532   2.418 -0.0139  0.0488  0.2171
19678W        W39958  11.213   5.872  13.111 -0.2825  0.3799  0.0895
19679W        W39959   3.064   7.019   4.549  0.2460 -0.0931  0.2255
19680W        W39960   9.167   7.784  16.385 -0.0316  0.2069  0.0227
19681W        W39961   9.185   5.822  12.189 -0.1801 -0.3531  0.0861
19682W        W39962  10.567  14.413   4.776 -0.1543  0.1843  0.0993
19683W        W39963   4.366  10.051  13.202  0.0195 -0.0217 -0.1189
19684W        W39964  15.267   2.095  13.225 -0.1445 -0.1853 -0.2917
19685W        W39965  17.231   0.411  14.879 -0.1433 -0.2353  0.2022
19686W        W39966   4.199  12.631  15.742 -0.0287  0.0120 -0.3051
19687W        W39967  17.737   9.317  13.165  0.0600  0.0914  0.1376
19688W        W39968  10.909  14.532   2.948 -0.2737 -0.0564 -0.0075
19689W        W39969   8.038   7.374   1.790  0.1016 -0.0649  0.2186
19690W        W39970   3.627   6.189   3.596 -0.3082 -0.2377 -0.0048
19691W        W39971   6.577   5.696   1.613 -0.0602  0.2112  0.3067
19692W        W39972   4.107   4.312   4.576  0.1875  0.1012 -0.0582
19693W        W39973  15.973   9.275   2.636  0.0107 -0.0231 -0.2920
19694W        W39974   7.876   6.623  13.800 -0.1324  0.0344  0.0520
19695W        W39975   6.967   6.770   3.233  0.2258  0.1719  0.1429
19696W        W39976  14.730   2.190  13.025  0.0959 -0.1115 -0.0578
19697W        W39977  16.793  13.315   3.795  0.0590  0.2146 -0.1344
19698W        W39978   3.245   0.350   4.368 -0.0322 -0.0183  0.1311
19699W        W39979  12.455   8.368  16.750  0.1371  0.1737  0.1163
19700W        W39980   4.438   9.548  13.309  0.2129 -0.1854  0.1808
19701W        W39981   1.135   2.613  11.794  0.1822 -0.0299  0.1322
19702W        W39982  16.104   5.109  16.302  0.0784 -0.0255 -0.3020
19703W        W39983   7.078   0.497   1.021  0.0274 -0.1709  0.0272
19704W        W39984   8.276  11.315   0.194 -0.1096  0.0991 -0.5938
19705W        W39985  15.869   4.277   3.638  0.0414 -0.0039 -0.0290
19706W        W39986  12.624  10.211   4.109 -0.1007  0.1318  0.0029
19707W        W39987  15.043   5.789   0.995 -0.0899 -0.0688  0.1309
19708W        W39988  14.884   5.437  14.755 -0.2305  0.1592  0.1262
19709W        W39989   4.624  13.634   3.126 -0.0566 -0.0489  0.0323
19710W        W39990  17.195  17.247  12.249 -0.2592 -0.0810  0.1801
19711W        W39991   2.434  11.898   3.998  0.0150 -0.3147 -0.1434
19712W        W39992  14.877   9.515  14.771 -0.1007  0.0182  0.0185
19713W        W39993  11.146   7.505  16.766  0.1396  0.1360 -0.1349
19714W        W39994  14.700   8.507  12.921 -0.0543  0.0120 -0.1730
19715W        W39995   6.266  12.082  14.731 -0.0294  0.2304 -0.0773
19716W        W39996   2.046  11.283   0.476  0.0906  0.4547  0.0264
19717W        W39997  15.421   4.717   1.261  0.0810 -0.4470  0.1742
19718W        W39998  17.261   2.162  16.088  0.2237 -0.4020 -0.1490
19719W        W39999   0.102   3.921   1.511 -0.0150  0.0048 -0.0418
19720W        W40000  11.356   0.973   3.847  0.0149 -0.1288 -0.0749
19721W        W40001   8.715   9.100  15.607  0.1522  0.0812  0.0194
19722W        W40002  11.000   0.711  16.376  0.3729  0.3906  0.0220
19723W        W40003   7.714  17.142  12.297  0.0141  0.0598 -0.2009
19724W        W40004  11.855  15.278  14.667 -0.0501  0.0097  0.0876
19725W        W40005  11.612  14.444  14.155  0.1196  0.1348  0.0924
19726W        W40006  16.529  13.804   2.555 -0.0786 -0.0009 -0.1618
19727W        W40007   5.216  17.673  14.955  0.0053  0.1927  0.0881
19728W        W40008   1.285   6.213   1.288 -0.0236  0.0164 -0.1011
19729W        W40009  10.081   4.520  16.010 -0.5529  0.0451  0.1422
19730W        W40010  15.696   9.790  14.281 -0.4395  0.5852 -0.0692
19731W        W40011   4.785  15.072  12.734 -0.1223  0.0725  0.2892
19732W        W40012  17.622   6.605   1.429  0.0126 -0.2370  0.1685
19733W        W40013   7.098  11.804  12.819 -0.1427 -0.1997  0.3760
19734W        W40014  10.915  13.569   2.303 -0.2141 -0.0269  0.1522
19735W        W40015   1.903  12.539   2.027 -0.0845 -0.1222 -0.0461
19736W        W40016   8.451   1.168  15.956 -0.2518 -0.2516 -0.2201
19737W        W40017  14.699  12.438  11.067 -0.4412  0.0391 -0.0808
19738W        W40018   0.833  17.423   2.517 -0.4351  0.2644 -0.3262
19739W        W40019  16.351   8.670  12.431 -0.0887 -0.2861  0.1370
19740W        W40020  11.409  17.141  15.299  0.2055  0.1734 -0.1920
19741W        W40021   8.984   4.534   3.654 -0.2695 -0.0470 -0.3498
19742W        W40022  16.242   2.281  14.017 -0.3713  0.0992  0.2189
19743W        W40023  14.732  13.867  13.913  0.1690 -0.0664 -0.1568
19744W        W40024   1.784   9.659  14.091 -0.0005 -0.0823 -0.0982
19745W        W40025   3.069  17.640  15.572  0.0100 -0.2967 -0.2128
19746W        W40026   0.568   7.876  16.302 -0.1339 -0.3172 -0.1176
19747W        W40027   2.517   1.481   3.279  0.5477  0.1497 -0.1218
19748W        W40028   9.933   4.643   2.328  0.0015  0.0096  0.0185
19749W        W40029   0.814   3.972   2.290  0.0476  0.1414  0.3813
19750W        W40030   8.698   2.199   3.930  0.1615 -0.2344  0.0134
19751W        W40031  12.436  16.046  12.343  0.0269  0.1175 -0.1340
19752W        W40032  16.076   0.031   2.844 -0.3930 -0.2506  0.0613
19753W        W40033   8.134  16.047  13.905  0.1997 -0.1899  0.1531
19754W        W40034  11.932   1.347   4.423  0.0248  0.1479 -0.3094
19755W        W40035   7.869   4.789   1.324 -0.1429  0.0240 -0.3805
19756W        W40036   2.724   4.100  15.947 -0.1368  0.0624 -0.0891
19757W        W40037   3.456   2.930  15.940  0.0168  0.1365 -0.2324
19758W        W40038   9.999   2.318   3.397  0.0308  0.0601 -0.1794
19759W        W40039  12.978   7.747  12.656  0.1020 -0.0881 -0.1892
19760W        W40040   1.103   1.351  14.458  0.1707  0.0993  0.2122
19761W        W40041   5.817   7.485  16.463  0.1322 -0.2148  0.1488
19762W        W40042  16.911   0.396  13.176  0.2441 -0.1408 -0.0447
19763W        W40043  10.033   7.099  14.561 -0.0497  0.1038  0.1959
19764W        W40044  13.594  11.892  15.359 -0.0201  0.1800  0.1528
19765W        W40045   9.983  16.757  12.278  0.1407  0.0864  0.0601
19766W        W40046   8.346   5.267  14.881 -0.1880 -0.1670 -0.1611
19767W        W40047   4.726   7.514  11.776 -0.1804 -0.1340 -0.1117
19768W        W40048  14.118  16.755   4.762 -0.1704 -0.1884 -0.0066
19769W        W40049   5.295   5.471  15.477 -0.1658 -0.0746  0.1251
19770W        W40050  13.653  13.418  12.188  0.0106 -0.0370  0.1346
19771W        W40051  10.694   1.581  13.948 -0.1518 -0.2702  0.2006
19772W        W40052   1.388   0.377   1.283  0.1947 -0.0449 -0.1262
19773W        W40053  12.586   6.408   0.001 -0.2579  0.1163  0.5236
19774W        W40054   6.169   5.056   0.314 -0.0320  0.3560 -0.1580
19775W        W40055   0.266   4.855  12.756  0.1372  0.2429  0.0227
19776W        W40056  11.356  11.181  12.806 -0.1579  0.1023 -0.0463
19777W        W40057  10.663  14.928  15.798 -0.3228  0.0953  0.1837
19778W        W40058  11.692  11.790  14.969 -0.0657  0.0024 -0.0251
19779W        W40059  13.447   4.857   3.721  0.0029  0.2375 -0.0797
19780W        W40060  12.412   2.347  14.004 -0.0687 -0.1215  0.3793
19781W        W40061   6.909  10.172  13.834  0.2272  0.2486 -0.2395
19782W        W40062  11.979   9.636  11.967 -0.0586 -0.0897  0.0553
19783W        W40063   5.985  11.683  14.712  0.0909  0.3142 -0.3047
19784W        W40064   0.822  12.970   2.788  0.0216  0.1230 -0.1266
19785W        W40065  15.849   9.806  12.445  0.0240 -0.2378 -0.0591
19786W        W40066   7.126   9.586  12.873 -0.2906 -0.3144  0.3522
19787W        W40067  13.117   3.112  15.983  0.1505  0.3885 -0.0066
19788W        W40068   0.211  13.666   1.181 -0.0254  0.2265 -0.0713
19789W        W40069  17.503   3.082   3.135 -0.3380 -0.3198 -0.2583
19790W        W40070  13.952  13.615   1.007 -0.1630  0.0833 -0.0846
19791W        W40071  17.575   5.286  13.581  0.0193  0.0718  0.3657
19792W        W40072   8.498   8.655  12.199 -0.1023  0.1980  0.1224
19793W        W40073   8.058   4.269   3.960  0.1575 -0.0455 -0.2207
19794W        W40074   9.743   6.915   1.921 -0.0257  0.1190 -0.0173
19795W        W40075  13.513   4.645   0.293  0.0065 -0.2377  0.2070
19796W        W40076   1.041   0.951   4.096 -0.2092  0.1322  0.0045
19797W        W40077  11.341   4.200  14.864 -0.1884 -0.1943  0.3214
19798W        W40078   5.587  13.754  12.126 -0.0511 -0.1352 -0.0007
19799W        W40079   2.995  11.596   3.286 -0.0931  0.0493 -0.0722
19800W        W40080   5.598   9.183   1.591  0.1701  0.0786 -0.0138
19801W        W40081  14.996  15.388  15.003  0.0129 -0.0842  0.0526
19802W        W40082   1.645  16.029   5.343  0.2055  0.0879  0.2086
19803W        W40083   2.043   0.883  13.890 -0.2905  0.0010 -0.2124
19804W        W40084  13.721   3.117   3.283  0.1107  0.0016  0.0766
19805W        W40085   1.064   6.820   2.448  0.4037 -0.0064 -0.0426
19806W        W40086  17.548   0.680   3.215  0.1369 -0.0495  0.0820
19807W        W40087  10.813  11.849  11.721 -0.0417  0.0114 -0.0018
19808W        W40088  17.383  13.943   4.135 -0.1045  0.0141 -0.1988
19809W        W40089   2.149   8.274  12.454  0.1494  0.1537  0.0257
19810W        W40090  15.017   5.589  14.293 -0.2840 -0.3012 -0.0337
19811W        W40091   0.434   2.493   4.350  0.1250 -0.1209 -0.2075
19812W        W40092  10.192   5.936   2.174 -0.2111 -0.0675  0.1296
19813W        W40093  16.953  16.640   0.937  0.0685 -0.1123 -0.1624
19814W        W40094  11.013   6.457  13.106 -0.1082  0.1443  0.2598
19815W        W40095  15.564  14.709   0.588  0.2212 -0.0721  0.2803
19816W        W40096  14.551  12.393   1.796 -0.3385 -0.3677  0.0418
19817W        W40097   3.573   0.508   3.584 -0.0205  0.3461  0.3406
19818W        W40098  15.533  10.098  15.875  0.0271  0.1483 -0.2229
19819W        W40099   9.671  17.575  13.037 -0.1887 -0.0207  0.1645
19820W        W40100   4.996   0.595   0.201 -0.0573 -0.1865  0.0226
19821W        W40101  14.773   7.933   2.772 -0.1989 -0.1132  0.1908
19822W        W40102  17.533   7.474   4.663 -0.3554  0.0227 -0.0704
19823W        W40103   9.731   0.087   3.431 -0.1607 -0.3051  0.1888
19824W        W40104  13.176   1.714  15.088 -0.3154  0.1313  0.3139
19825W        W40105  10.987   9.270  15.053 -0.0517  0.1237  0.0495
19826W        W40106   4.426   9.221   0.702 -0.3141 -0.1710 -0.1324
19827W        W40107  16.873   8.970  12.976  0.1903  0.1839 -0.0694
19828W        W40108   8.016  13.448   4.963  0.3286 -0.1936  0.0091
19829W        W40109   2.423   8.576   1.593  0.0074 -0.0651 -0.1453
19830W        W40110  13.683  15.688  12.800  0.1308 -0.1561 -0.0753
19831W        W40111   6.554  13.727   5.011  0.2658 -0.1276 -0.0605
19832W        W40112   1.584   4.836   3.757  0.1500 -0.2290 -0.2544
19833W        W40113  11.633  10.483  13.130  0.1364  0.0669 -0.2687
19834W        W40114  16.533   5.422   3.927 -0.0674  0.1680  0.0338
19835W        W40115   4.993   5.881   1.140  0.1574 -0.2332  0.2732
19836W        W40116  10.979   0.246  16.625 -0.2263  0.0873 -0.2760
19837W        W40117   4.845  15.861  12.608  0.1023 -0.0686 -0.1048
19838W        W40118  13.330   2.611  16.255 -0.2585 -0.1642  0.0729
19839W        W40119   8.033  10.413  16.691 -0.1898  0.0450  0.1005
19840W        W40120  11.458  17.516  14.004  0.2021  0.1258  0.1211
19841W        W40121  15.638   1.359  14.950 -0.1989 -0.1594  0.0926
19842W        W40122  17.365  11.582  14.897  0.0884 -0.0048  0.0722
19843W        W40123  11.123  15.317   4.289  0.0685  0.3549 -0.0782
19844W        W40124   7.292   7.076  13.107  0.1451 -0.1472  0.1925
19845W        W40125  14.927   0.475   4.144  0.0322  0.3621  0.0846
19846W        W40126   3.747  15.633  13.322 -0.0369 -0.1698 -0.0335
19847W        W40127  16.468   5.141  12.088 -0.0966  0.1020  0.2379
19848W        W40128   2.255   1.851   0.414  0.0644  0.0055 -0.1145
19849W        W40129   2.027   9.204  14.354 -0.1917  0.0955  0.3512
19850W        W40130  12.532  14.158  13.929  0.3856  0.3533 -0.1117
19851W        W40131   4.350   3.239   0.852  0.3414  0.0137 -0.1042
19852W        W40132  10.164   3.878  12.388 -0.1076 -0.1456 -0.0255
19853W        W40133  13.063   1.616  13.707  0.1977  0.3634 -0.0171
19854W        W40134   6.687  17.196   4.613 -0.2783 -0.0312  0.1303
19855W        W40135  14.730   1.468  16.216 -0.0500 -0.1382 -0.0033
19856W        W40136  15.951  13.290  12.412  0.1777  0.0165 -0.0076
19857W        W40137   3.341   3.933  15.039 -0.1557  0.1489  0.1137
19858W        W40138  17.729   2.920   0.532  0.1214  0.1635  0.0567
19859W        W40139  12.119   7.281  12.090 -0.2024 -0.0565 -0.3582
19860W        W40140  16.799   2.051  12.675 -0.0075  0.2030 -0.0708
19861W        W40141  11.409   9.811  15.701  0.1065 -0.1229  0.0306
19862W        W40142   1.230  12.662  15.112 -0.2036  0.0773 -0.0705
19863W        W40143   5.209   0.923  15.922 -0.1914 -0.0003 -0.2062
19864W        W40144  15.897  16.981   2.333  0.0553 -0.1274  0.1492
19865W        W40145   7.286  15.163  13.333 -0.0073 -0.1037 -0.1034
19866W        W40146   5.055   1.305   1.284 -0.1134 -0.2589  0.0060
19867W        W40147   5.795  12.801  16.677  0.1855  0.1302  0.3108
19868W        W40148   6.152  15.470  14.273 -0.1363  0.1141 -0.2222
19869W        W40149   9.537   7.178  12.577  0.0316 -0.1653 -0.0391
19870W        W40150   8.030  17.061   0.398  0.0476 -0.0133 -0.0645
19871W        W40151   5.728   0.177   0.114 -0.1622  0.1194 -0.2419
19872W        W40152  11.236   8.649  13.712  0.0202  0.1705  0.0540
19873W        W40153   5.143  11.432  14.210  0.3627  0.2253 -0.2585
19874W        W40154  17.315   8.511  14.236 -0.1087  0.0042  0.1433
19875W        W40155  13.425   2.449  13.375 -0.2442 -0.1170  0.1048
19876W        W40156  17.137   2.353   0.522  0.3374 -0.1271  0.2272
19877W        W40157   0.221  10.616   4.762 -0.0003 -0.2266 -0.0101
19878W        W40158  11.523   6.391  12.297  0.0312 -0.1957  0.1553
19879W        W40159   7.282   4.647  13.045  0.0267 -0.1393 -0.2197
19880W        W40160   5.653  13.845  16.956 -0.4290  0.0306  0.1709
19881W        W40161   5.707  12.859  12.425 -0.0979 -0.2470  0.0467
19882W        W40162   3.491   7.927  12.858  0.2417 -0.0104 -0.0917
19883W        W40163  16.552   2.320  15.163  0.2933 -0.3534  0.0528
19884W        W40164   7.598   7.958   3.758 -0.3234 -0.3071 -0.1244
19885W        W40165   8.695   4.747  12.827  0.0400  0.1100 -0.2022
19886W        W40166  14.436   3.027  12.856 -0.0928  0.2965 -0.2075
19887W        W40167   5.455  11.288   0.342  0.3244  0.0097 -0.0704
19888W        W40168  11.279   2.030  12.743  0.0853  0.0006  0.0701
19889W        W40169   8.658   9.236  13.423 -0.0641 -0.2771 -0.2275
19890W        W40170   7.082   1.687  16.979  0.0151  0.0637  0.1476
19891W        W40171   2.118   2.910  16.813  0.0960  0.0433 -0.0665
19892W        W40172  13.302  14.290   1.432 -0.3626  0.3781  0.0728
19893W        W40173   0.255   6.767  12.794 -0.1703  0.1888  0.1056
19894W        W40174   4.051  10.236  12.496 -0.1604 -0.1175  0.0065
19895W        W40175   9.807   7.583  12.484  0.3637 -0.1286  0.0171
19896W        W40176   3.875   3.557   2.234  0.1853  0.1652  0.2260
19897W        W40177  11.772   7.959   3.680 -0.3237 -0.0624 -0.0061
19898W        W40178  14.360  12.422  12.913 -0.0531 -0.1968 -0.5662
19899W        W40179  17.715   0.118   2.015  0.3859 -0.0061  0.0320
19900W        W40180   6.894   9.074  15.770 -0.0622  0.2390 -0.2266
19901W        W40181   1.230  14.115   1.089 -0.0682 -0.1273  0.3103
19902W        W40182   0.944  15.633  15.344  0.0768 -0.2034 -0.0829
19903W        W40183   7.176  15.544  16.359 -0.1031 -0.2144 -0.0725
19904W        W40184   1.608   8.644   2.166 -0.0145 -0.2940 -0.1800
19905W        W40185  10.647   7.155  16.789  0.1441 -0.1472  0.0143
19906W        W40186   7.969   6.017   1.712 -0.1718 -0.1281 -0.1096
19907W        W40187   4.776   8.229  13.362  0.2108  0.2201  0.1878
19908W        W40188   0.871  14.214   4.064 -0.2519 -0.1797  0.0761
19909W        W40189  15.497   5.970   0.121 -0.2595  0.1599  0.0143
19910W        W40190   4.982   0.990  13.454  0.1099 -0.1684 -0.1353
19911W        W40191  13.211  12.449  15.404  0.0885  0.1227  0.0605
19912W        W40192   7.723   2.944   1.251 -0.0460 -0.1127  0.2235
19913W        W40193   4.641   7.923  15.837  0.0216 -0.1211 -0.0426
19914W        W40194  16.576   0.529  14.346  0.2006  0.2630 -0.1438
19915W        W40195  14.124   2.177  16.510 -0.0658  0.0685  0.0629
19916W        W40196   6.045   2.806  15.518 -0.0277  0.0353 -0.0046
19917W        W40197  10.072   4.271  16.996  0.1712  0.1570  0.1731
19918W        W40198  12.978  11.725  13.237 -0.0957  0.0510 -0.4608
19919W        W40199  16.287  10.597   0.545  0.0672  0.1470  0.0696
19920W        W40200   8.446  13.140   4.853  0.1107 -0.1171  0.0256
19921W        W40201  12.535  16.969  11.899  0.0609  0.1367  0.4034
19922W        W40202   1.897  11.007  13.731  0.2219 -0.0919  0.3017
19923W        W40203   7.225  11.990  16.710  0.0484 -0.4611 -0.0541
19924W        W40204   9.905  13.595  16.331  0.1875 -0.1451 -0.0203
19925W        W40205  16.394  13.205   1.726  0.0274  0.1802  0.1954
19926W        W40206  13.249   2.342  12.879  0.1942 -0.2489 -0.1690
19927W        W40207   7.009   0.044   0.738 -0.1174 -0.2553  0.3415
19928W        W40208  12.322   6.011  13.616  0.1025  0.0102 -0.4273
19929W        W40209   2.489  17.730   2.039 -0.0553 -0.3625  0.2309
19930W        W40210   1.085   0.609   3.204 -0.2216  0.1034 -0.0278
19931W        W40211   7.675   2.408   1.140  0.1108 -0.0564 -0.1536
19932W        W40212   1.373  14.298   4.862  0.3754  0.1590  0.0567
19933W        W40213   3.765   5.310  15.186  0.2453  0.1582 -0.3431
19934W        W40214  17.003  16.269  13.908 -0.3759  0.0814  0.1328
19935W        W40215   8.996  11.821   4.728 -0.0028 -0.0904  0.4212
19936W        W40216  13.086  10.186  16.049 -0.0076 -0.0353 -0.0883
19937W        W40217  13.475  16.676  16.803 -0.1137 -0.4884 -0.0251
19938W        W40218  15.311   1.759  14.831 -0.0010  0.2737 -0.0797
19939W        W40219  17.556   5.583   1.706 -0.0248  0.0825 -0.1948
19940W        W40220   8.148  15.250   0.441 -0.1187  0.0364  0.2204
19941W        W40221   6.825  12.030   5.226 -0.4763 -0.4648 -0.1457
19942W        W40222  10.160   9.735   3.301  0.1439 -0.1653  0.0095
19943W        W40223  11.373   2.177  11.025  0.1666  0.6201 -0.1805
19944W        W40224   4.689   1.997  15.868 -0.0579 -0.1376  0.1256
19945W        W40225  14.889   1.669  15.217  0.1992 -0.0921  0.1785
19946W        W40226   5.973  11.214   4.847  0.0347  0.1704 -0.1918
19947W        W40227   7.501   0.246  12.506 -0.1175 -0.2027  0.1471
19948W        W40228   5.763   1.149  12.265  0.0625 -0.0638 -0.0201
19949W        W40229  14.480  12.103  16.456 -0.3119 -0.1642 -0.0059
19950W        W40230  11.546   5.761  13.708 -0.5934  0.3336  0.1359
19951W        W40231  16.316  16.571   4.866  0.1389  0.0382 -0.2626
19952W        W40232   9.459   3.687   2.732 -0.3472 -0.1538 -0.0329
19953W        W40233   8.243   4.453   1.386  0.0832  0.1952  0.4318
19954W        W40234  14.427  11.696   0.295  0.1473 -0.1837  0.0972
19955W        W40235  10.381  15.752  14.387  0.0785  0.0618  0.2560
19956W        W40236  15.869  10.260   3.480 -0.0747 -0.2671  0.1159
19957W        W40237   3.304  16.352  14.172  0.2206 -0.1638 -0.2073
19958W        W40238   9.180  14.864  13.022 -0.0787  0.1806  0.2689
19959W        W40239  15.614   1.844  14.356  0.1026 -0.2093  0.2147
19960W        W40240   8.856   8.030   5.017 -0.2096  0.1641  0.0936
19961W        W40241   8.313   0.069  15.587 -0.0864 -0.2316 -0.0730
19962W        W40242   3.614   1.094  12.275 -0.0353 -0.2747  0.3091
19963W        W40243   5.405   3.339   0.620 -0.0837 -0.3590  0.0621
19964W        W40244  11.847  14.883   3.740 -0.0120 -0.0360 -0.2294
19965W        W40245  16.299   3.144  16.222 -0.0711  0.0515 -0.1429
19966W        W40246  13.086   2.192  15.223 -0.2703  0.0138 -0.0154
19967W        W40247   6.797   7.226   2.425 -0.2284  0.3440  0.0860
19968W        W40248   8.044   8.707  16.421 -0.0287 -0.1244 -0.1019
19969W        W40249   0.273   6.227   4.794 -0.1763  0.1210  0.0242
19970W        W40250   7.174  14.183   1.593  0.2309  0.0450  0.1768
19971W        W40251   2.613  16.760   1.858  0.0728 -0.0390  0.0826
19972W        W40252   9.831   6.349   2.861 -0.2048  0.0383 -0.1239
19973W        W40253   5.157  16.899   3.524 -0.0193  0.1781 -0.0862
19974W        W40254  10.864   6.608  13.619  0.1614  0.1998  0.1600
19975W        W40255   6.566   7.006  13.013 -0.1104  0.0060 -0.2116
19976W        W40256  13.120  14.055  15.442 -0.1835  0.0088 -0.2932
19977W        W40257  15.358   6.895   1.039 -0.2070 -0.1967  0.0994
19978W        W40258   8.089   5.313   2.100 -0.1832  0.3441  0.0287
19979W        W40259  15.887  13.475  13.777 -0.1588 -0.0008 -0.0317
19980W        W40260   2.470  13.209  14.749 -0.2758 -0.0968 -0.0995
19981W        W40261  16.932   7.633  13.313  0.0047 -0.1164  0.2197
19982W        W40262  15.926   5.695  13.790  0.4254  0.2557 -0.2102
19983W        W40263   5.359  11.148   2.998 -0.1359  0.1664  0.0594
19984W        W40264   8.235   7.676  16.500 -0.0248 -0.2148  0.3535
19985W        W40265   0.606   0.618   3.823  0.3265  0.2788 -0.1637
19986W        W40266   7.064  10.777   1.493 -0.0079 -0.1806  0.2544
19987W        W40267   9.733   8.676   1.968 -0.1042 -0.1294  0.1403
19988W        W40268   9.176  16.440  12.110  0.1296 -0.1668 -0.2606
19989W        W40269  12.698   0.873  15.176  0.3079  0.2044 -0.0894
19990W        W40270  11.884  12.072  14.605 -0.0952  0.1157  0.3063
19991W        W40271   7.948  15.116  15.027  0.0515 -0.4021  0.2403
19992W        W40272  11.030  17.451   2.766 -0.1176 -0.0458 -0.0859
19993W        W40273  15.375   2.285   4.428  0.2959  0.1417  0.2841
19994W        W40274  10.304  17.531  14.598 -0.3548  0.1034  0.2642
19995W        W40275  13.190   2.224   1.659 -0.1393 -0.2463  0.2131
19996W        W40276  15.491  15.518  15.820  0.2848  0.0945 -0.2718
19997W        W40277  16.069  10.587  16.269 -0.1272  0.0415 -0.1423
19998W        W40278  14.598   5.823   1.569 -0.0131  0.0375  0.0881
19999W        W40279  12.833   0.832   3.877  0.2499  0.0600  0.3507
20000W        W40280  12.070  12.009   2.299 -0.0294 -0.0130 -0.1298
20001W        W40281   4.615   0.913   0.063  0.2400 -0.0172 -0.1600
20002W        W40282  11.847   0.111   3.909  0.2220 -0.1227  0.1282
20003W        W40283  13.860   6.752   4.003  0.1003 -0.0468  0.1482
20004W        W40284  10.180  13.925   3.234  0.1365 -0.5159  0.1575
20005W        W40285   7.433  10.536   5.417  0.5157 -0.2005 -0.0204
20006W        W40286   1.767   1.900  13.354 -0.1024 -0.0233  0.1714
20007W        W40287  13.439   0.535   3.778 -0.1268  0.1727 -0.0950
20008W        W40288   4.424   2.873  12.544 -0.0475  0.0513 -0.4227
20009W        W40289   1.545  12.192   0.578 -0.0471 -0.1384  0.0054
20010W        W40290  14.728  12.661  12.551  0.0572 -0.0586  0.0386
20011W        W40291   5.941   7.794  12.584 -0.2693  0.0596 -0.3133
20012W        W40292  16.620  14.658   5.048 -0.1014  0.1503  0.2546
20013W        W40293  12.253  10.462   3.853  0.1885 -0.0958  0.1023
20014W        W40294   7.376  13.316   2.570  0.1383 -0.0888 -0.0660
20015W        W40295   7.243   3.381   3.335 -0.0574 -0.0187  0.1156
20016W        W40296   5.976   4.466   4.025 -0.0329  0.0507  0.0013
20017W        W40297  13.322   2.135   5.267  0.1316  0.0512  0.1406
20018W        W40298   8.839   6.333   2.493 -0.1635  0.1129 -0.0420
20019W        W40299   8.011   0.664   0.906  0.1818 -0.1060  0.0855
20020W        W40300   7.452   4.447  12.341  0.1522  0.1782  0.3184
20021W        W40301   1.383  12.281  13.412 -0.0523 -0.1255  0.0372
20022W        W40302   6.783   0.188  13.269  0.2154  0.0663 -0.0668
20023W        W40303   2.485   6.155  14.862  0.1577 -0.0793  0.0871
20024W        W40304  10.716   2.907   4.540 -0.0264  0.0662 -0.1870
20025W        W40305   3.340   5.688  14.001 -0.4322 -0.0058  0.1796
20026W        W40306  10.080   7.448   0.494  0.2498  0.3489  0.1563
20027W        W40307  14.011   6.001   0.161 -0.0266 -0.0557 -0.0692
20028W        W40308   2.836   7.670   3.626  0.0928 -0.0498  0.1073
20029W        W40309  17.276  15.799  16.714  0.0283 -0.0180 -0.2241
20030W        W40310   1.509   3.869   1.551  0.0295 -0.1186 -0.0594
20031W        W40311   8.850   7.132   3.027  0.1909 -0.1278 -0.0843
20032W        W40312  17.215   6.021   3.590  0.1535  0.0386  0.1653
20033W        W40313   8.398   0.041  14.183 -0.1135 -0.1435 -0.0422
20034W        W40314   3.227   4.294  15.307  0.0048  0.0515 -0.1421
20035W        W40315  12.110   9.915  12.720 -0.0714  0.0187  0.4272
20036W        W40316   5.592   2.479  14.896  0.1550  0.0871  0.1960
20037W        W40317  13.804  14.824   0.112 -0.2577  0.0227 -0.0816
20038W        W40318   8.487  13.353  15.629  0.2583  0.0267 -0.0642
20039W        W40319   6.856  17.405   1.528  0.2556 -0.1433  0.3221
20040W        W40320  11.128  14.306   1.765 -0.0761 -0.3341 -0.1332
20041W        W40321   5.932   3.859   0.858 -0.0738  0.0458 -0.2679
20042W        W40322   8.969  13.202   4.169  0.2489  0.1634  0.3756
20043W        W40323   3.740   3.384  16.837 -0.4296  0.1331 -0.0417
20044W        W40324   0.635   4.982   1.934  0.1646  0.0291 -0.0315
20045W        W40325   2.864  12.141  13.439 -0.1881 -0.0508  0.2037
20046W        W40326  14.042   2.514   4.422  0.0405  0.0937 -0.0625
20047W        W40327   5.786  12.848   4.078  0.2964  0.2546 -0.1534
20048W        W40328   5.166   4.146  12.304  0.1613 -0.0684  0.0768
20049W        W40329  16.251   9.876  16.276  0.0479 -0.0764 -0.4763
20050W        W40330  15.458   0.532   0.331 -0.3239  0.1380  0.1435
20051W        W40331  10.756   9.586   1.689  0.2385 -0.0464  0.0260
20052W        W40332   4.991   2.118  12.953 -0.1598  0.0176 -0.3281
20053W        W40333   7.372   4.593  16.802 -0.1233  0.1174  0.2530
20054W        W40334   3.161  10.876   2.987  0.0562  0.0975 -0.0774
20055W        W40335  14.729   0.318   0.759  0.1801  0.0376  0.0388
20056W        W40336   9.527  17.036   0.981 -0.1500 -0.0969 -0.0616
20057W        W40337   3.583   8.660  13.781  0.0669 -0.1304  0.2011
20058W        W40338   1.341  10.647  15.476  0.0651 -0.0078  0.0663
20059W        W40339  13.398   2.863   2.878 -0.1400 -0.2551 -0.1140
20060W        W40340   7.347  16.822  15.293 -0.1215  0.2195  0.1671
20061W        W40341   0.101  11.447  14.859  0.0827 -0.3962  0.2353
20062W        W40342   7.418   8.541   3.694  0.2760 -0.0966  0.1771
20063W        W40343   5.978  13.283  12.530 -0.0730  0.0141  0.0806
20064W        W40344   5.202   1.136  12.606 -0.1105 -0.0046  0.0178
20065W        W40345   0.625  11.856   1.721  0.0274 -0.2116 -0.0297
20066W        W40346   3.714  15.456  12.240  0.1416 -0.1936 -0.0261
20067W        W40347   3.889  13.765  13.521 -0.1544  0.2503  0.2120
20068W        W40348  14.190   9.303   0.280 -0.2160 -0.2876  0.2916
20069W        W40349  10.426   4.149   2.265  0.3318  0.0082 -0.1205
20070W        W40350   9.530   2.426  14.782 -0.0119  0.2366  0.1380
20071W        W40351   3.112   2.573   5.083 -0.5598 -0.0890 -0.0431
20072W        W40352   1.160   9.083  15.853 -0.0911 -0.0100 -0.0964
20073W        W40353   2.074  13.985  14.192 -0.0934  0.1071  0.0218
20074W        W40354  10.189  15.725   0.728 -0.0356 -0.1169 -0.0742
20075W        W40355  11.130   3.969   3.295  0.0325 -0.4271 -0.0253
20076W        W40356  13.954  15.881  15.998 -0.0911 -0.2651 -0.1261
20077W        W40357  12.630   0.926  12.669 -0.0552  0.3467  0.0875
20078W        W40358   8.022  16.380  13.112  0.0718 -0.2051 -0.1352
20079W        W40359   4.912   5.508  13.040  0.2747  0.0308  0.0736
20080W        W40360   5.738   8.326  13.981  0.2274  0.5395 -0.2488
20081W        W40361   2.252  14.044  15.204  0.3438  0.2415  0.0494
20082W        W40362  13.004   3.795   3.545 -0.0478 -0.0849 -0.0361
20083W        W40363   2.590   2.475  14.312  0.1843 -0.0768  0.1886
20084W        W40364   3.190   1.283   3.395  0.1610  0.2339 -0.0103
20085W        W40365   1.327   3.407   5.030 -0.0697 -0.0017  0.1098
20086W        W40366   4.971   1.282   0.176 -0.1170  0.2442 -0.0326
20087W        W40367   2.788  13.811  12.978 -0.2007  0.4064 -0.1401
20088W        W40368   1.002  10.699  15.873 -0.0570  0.2037 -0.1000
20089W        W40369   1.813   4.742   2.093 -0.1636 -0.5893  0.0477
20090W        W40370  11.848   0.087   2.308 -0.1171  0.0615  0.1391
20091W        W40371  10.379  14.714  12.615 -0.0436  0.0226  0.2259
20092W        W40372  11.840  10.113  12.198 -0.0113  0.1556  0.1317
20093W        W40373  14.093   7.770   1.779 -0.0325  0.0225 -0.1199
20094W        W40374   6.316   5.411  15.873  0.1810  0.0818  0.0808
20095W        W40375  11.283   0.019   0.533  0.1007 -0.1488 -0.3205
20096W        W40376   2.665  14.828   4.958  0.0970  0.0667  0.0685
20097W        W40377   4.902  17.710   1.882  0.0302 -0.1088 -0.1817
20098W        W40378  17.049   0.505  13.657  0.1891  0.1605  0.0411
20099W        W40379   6.098  10.583   2.553  0.1581 -0.2689 -0.0224
20100W        W40380  16.058   3.533   2.981 -0.2260  0.2481 -0.1268
20101W        W40381  17.602  14.127  13.111 -0.1741  0.0864  0.2236
20102W        W40382   4.094   8.544   0.374  0.0959  0.1789  0.0703
20103W        W40383  15.658   3.619   1.948 -0.1811 -0.1648  0.2003
20104W        W40384  12.091  11.516   4.184 -0.0027 -0.1730  0.0700
20105W        W40385   5.536  17.165   0.804 -0.0618  0.1029 -0.3651
20106W        W40386   8.092   0.733   4.770  0.2047 -0.0345  0.2641
20107W        W40387   2.979  10.619  12.162  0.0259 -0.2411 -0.1125
20108W        W40388   3.418   8.600  13.308 -0.3115  0.1119 -0.0566
20109W        W40389  11.583   7.839   3.163 -0.1603  0.0646  0.2307
20110W        W40390   5.699   9.411   4.615 -0.0202 -0.1228  0.1199
20111W        W40391   3.684   9.601   0.256  0.0694 -0.2888  0.0827
20112W        W40392  17.610   6.391  13.782  0.1335 -0.1159  0.0410
20113W        W40393   3.288   5.608   3.511  0.0799 -0.1091  0.0657
20114W        W40394  12.881   8.415   4.531 -0.0171  0.3275 -0.0386
20115W        W40395   7.931   3.718  15.402 -0.0513  0.1851 -0.1598
20116W        W40396   8.610   8.178  16.229  0.2318  0.0494  0.1094
20117W        W40397  15.189  11.053  11.646 -0.1370 -0.0406  0.0928
20118W        W40398   5.269  10.111  16.574 -0.0651 -0.1054 -0.0477
20119W        W40399   9.835   6.513  12.163  0.2161  0.0246 -0.0004
20120W        W40400   8.087  12.710   1.789 -0.1370  0.2387 -0.2706
20121W        W40401   0.398  17.383   4.348  0.0211 -0.1916 -0.0762
20122W        W40402  14.982   6.369  15.983  0.1416 -0.2885 -0.0808
20123W        W40403   4.946   2.445  15.923 -0.1766 -0.0601  0.0951
20124W        W40404  17.572  10.931   1.923  0.1913  0.0262 -0.2248
20125W        W40405  17.020   0.806  14.426 -0.1551  0.1826 -0.0032
20126W        W40406   4.989   0.923  12.977  0.1555 -0.3419  0.2649
20127W        W40407  11.353   4.477  16.159 -0.1965  0.1052  0.3502
20128W        W40408  14.468  16.654  14.645  0.1315  0.0293  0.1187
20129W        W40409   1.148   7.738   2.969  0.0162 -0.2091  0.0999
20130W        W40410  11.307  15.436  11.928 -0.1074 -0.0920 -0.1658
20131W        W40411   4.659   6.081   2.683 -0.2210 -0.0749 -0.1065
20132W        W40412  16.941   6.191   2.240  0.3214  0.0588  0.0806
20133W        W40413  15.916   2.303  14.576  0.1325 -0.2244 -0.3025
20134W        W40414  17.455   2.501  14.850 -0.2203  0.0277  0.0443
20135W        W40415   7.834  11.836  15.507  0.1525 -0.0236  0.0062
20136W        W40416  14.372  11.564   2.680  0.1312 -0.0720 -0.1399
20137W        W40417  16.880   2.031  16.378  0.0282  0.0415 -0.0464
20138W        W40418   5.918   8.848   4.750  0.0808  0.0850 -0.0967
20139W        W40419   8.211   1.556  16.188 -0.1068  0.0825  0.1721
20140W        W40420   9.769   4.877  14.286  0.1671 -0.3487 -0.2839
20141W        W40421  16.152  12.466  12.256  0.1166 -0.2239  0.2660
20142W        W40422  14.942  13.294   3.062 -0.0816  0.1543 -0.1236
20143W        W40423  16.193   1.811   4.613 -0.2474 -0.1376 -0.2498
20144W        W40424   7.858  17.659  12.235 -0.0474 -0.2495  0.2157
20145W        W40425   0.541  12.840  14.871 -0.0031 -0.1594  0.2678
20146W        W40426   8.508  14.273  14.192 -0.0007 -0.5067  0.0256
20147W        W40427  10.705   0.879  16.838  0.4091  0.3573  0.0242
20148W        W40428   5.127  10.546  13.559  0.1843  0.2356  0.0352
20149W        W40429   5.746  15.658   2.184  0.0102  0.1199  0.0208
20150W        W40430   1.046   4.622  16.215  0.1946 -0.0144 -0.0140
20151W        W40431  16.188   4.729   2.742  0.1076 -0.0678  0.0379
20152W        W40432  12.502   5.460  12.692 -0.0078 -0.1003 -0.3520
20153W        W40433   8.429  16.205   3.214 -0.1815 -0.0263  0.2932
20154W        W40434  10.355   2.192   5.160  0.0312 -0.2409 -0.2163
20155W        W40435   7.603  15.637  14.869  0.1541  0.0169  0.1950
20156W        W40436  16.967  12.376  13.676 -0.3089  0.0361  0.0970
20157W        W40437  14.677   4.809  15.938 -0.0851 -0.0706  0.2883
20158W        W40438  12.251  16.722   0.423  0.1352 -0.0681  0.0345
20159W        W40439   8.557  12.055   1.188  0.2754  0.0637  0.2348
20160W        W40440   6.874   4.006  14.540 -0.0471  0.0842  0.0354
20161W        W40441   5.325   2.032   3.841 -0.0573  0.2395  0.0271
20162W        W40442  15.284   4.860  13.558  0.0553  0.0260  0.1255
20163W        W40443   1.099   1.557   5.715  0.2029 -0.3920 -0.2010
20164W        W40444   2.732   6.950   2.404 -0.0176 -0.1566 -0.0339
20165W        W40445   2.745   8.526  15.221  0.2605  0.1888  0.0419
20166W        W40446  11.848   0.335  15.224 -0.0917  0.0624 -0.1429
20167W        W40447  15.650   5.351  16.764 -0.0409  0.0750  0.2073
20168W        W40448   9.149  10.452   1.588 -0.1194  0.2719 -0.1111
20169W        W40449  13.756   6.302   0.495  0.0427  0.0105  0.0864
20170W        W40450  13.608   4.351  16.950 -0.0733 -0.1209  0.0534
20171W        W40451   2.493  14.210  14.296 -0.0866 -0.1594 -0.0116
20172W        W40452  17.359   9.609  12.404  0.1727  0.0773 -0.0152
20173W        W40453  11.205  13.176  14.018  0.2083 -0.2245  0.0031
20174W        W40454   1.217   0.948  14.687  0.1635 -0.1569 -0.0784
20175W        W40455   5.376  14.748  15.526  0.0077  0.1335 -0.0198
20176W        W40456   5.238  15.440   1.493  0.0430 -0.1219 -0.0150
20177W        W40457   6.271  16.852  14.084  0.1534 -0.0909 -0.0600
20178W        W40458  12.370  11.316  14.359 -0.0136 -0.3725 -0.3450
20179W        W40459  15.739   7.685  14.793  0.1589 -0.0180 -0.0195
20180W        W40460   3.129  11.423   0.698  0.2578  0.1266 -0.4211
20181W        W40461  15.380   0.182   3.938 -0.0051  0.0267 -0.0052
20182W        W40462  15.927  10.577   3.019 -0.2262  0.0930  0.2064
20183W        W40463  15.055   0.092  12.982  0.1188 -0.0186 -0.0650
20184W        W40464  14.801   1.485   4.590  0.1828  0.0317 -0.0908
20185W        W40465  10.117  12.480   2.038 -0.2038 -0.1167 -0.0692
20186W        W40466   2.134  12.751   4.210  0.0512  0.1211 -0.2686
20187W        W40467   8.233   8.492   4.722  0.0085 -0.2551 -0.0342
20188W        W40468  10.898   1.994   3.970  0.0843 -0.1896  0.2771
20189W        W40469   9.169  15.046  14.757  0.0331 -0.1718  0.0310
20190W        W40470   6.585   1.082  15.108  0.0360 -0.0072 -0.0770
20191W        W40471   0.958  17.280  13.479 -0.0447  0.0258  0.3007
20192W        W40472   0.160  12.852  15.228 -0.0244  0.0391  0.0136
20193W        W40473  17.046   7.188  12.728  0.2473  0.0359 -0.3716
20194W        W40474   4.771   5.949  14.008  0.3695 -0.1105  0.0643
20195W        W40475   7.277  11.479   4.703 -0.2696  0.0869 -0.0264
20196W        W40476   7.888   8.324  15.292  0.0128 -0.0216  0.1764
20197W        W40477   6.540   5.163  14.638  0.0876  0.2005  0.0602
20198W        W40478  13.484   0.987   1.302 -0.4039  0.2036  0.0162
20199W        W40479   5.339   3.420  13.095  0.2304  0.1907 -0.3344
20200W        W40480   8.330   2.096   1.638 -0.1871 -0.0297  0.1379
20201W        W40481   2.215   9.966  12.461  0.1032  0.0013  0.0542
20202W        W40482  14.311   9.876   3.498 -0.2246 -0.0056 -0.0399
20203W        W40483  11.668  14.910  15.414  0.3930 -0.1862  0.4176
20204W        W40484  10.700  13.334   1.908 -0.0284  0.2153 -0.0361
20205W        W40485  14.168   1.056   1.662  0.3169 -0.2077 -0.0743
20206W        W40486   0.056  11.594  11.756 -0.0288 -0.1231  0.1079
20207W        W40487   3.805   4.491  16.817 -0.2149 -0.4341 -0.2196
20208W        W40488   3.437  14.082  12.063 -0.0072 -0.3071 -0.0260
20209W        W40489  15.229   9.548  14.310 -0.0329 -0.0527  0.0205
20210W        W40490  11.953  14.781  15.825 -0.3078 -0.1743 -0.0527
20211W        W40491  13.435   4.639  12.063  0.0178  0.0581  0.0272
20212W        W40492  16.343  15.325  13.059 -0.3385  0.1074 -0.2463
20213W        W40493   2.214  16.958  15.530 -0.0821 -0.2819 -0.1101
20214W        W40494  11.932   9.030  13.970  0.5776  0.1982 -0.0040
20215W        W40495  17.036   3.883   1.196 -0.1378 -0.3617  0.0940
20216W        W40496  13.358   7.355  14.749 -0.1057  0.0975  0.0087
20217W        W40497   6.622   7.836   2.267 -0.0776  0.0629  0.0269
20218W        W40498   8.146   9.897  12.139  0.0399  0.2743 -0.0129
20219W        W40499   4.992  11.396   0.621  0.0844  0.1502 -0.0314
20220W        W40500  12.038   6.120   2.833 -0.2238  0.1132 -0.0775
20221W        W40501   4.070   9.210  12.249  0.0570  0.0517 -0.4239
20222W        W40502  16.026  12.347  12.728 -0.1148 -0.2295  0.2677
20223W        W40503   7.123   0.869  16.788  0.1221  0.1729  0.1206
20224W        W40504   2.128   3.314  14.712 -0.4229  0.1493  0.0763
20225W        W40505   8.552   6.410  14.185  0.2452  0.0928 -0.2793
20226W        W40506   5.306   2.002  12.626  0.1220 -0.2015  0.3972
20227W        W40507   0.936   7.962   0.493  0.2574  0.0537  0.3739
20228W        W40508  11.614   9.297   0.158  0.1501  0.0059  0.0682
20229W        W40509   4.801  12.515  12.623  0.1378  0.0502  0.1823
20230W        W40510   3.372   6.032  15.348 -0.1192  0.1033  0.3124
20231W        W40511   7.903   8.846   0.443 -0.1622  0.1726 -0.2018
20232W        W40512   3.115   8.690  12.928 -0.0606  0.1123  0.0735
20233W        W40513  10.857   6.295   0.607  0.0534 -0.1820  0.3780
20234W        W40514   4.626  10.929   1.563  0.0286 -0.0704  0.0175
20235W        W40515   0.286   8.810   4.421  0.0980 -0.1254  0.1267
20236W        W40516   5.158   3.812   5.059  0.2478  0.0553  0.0020
20237W        W40517  16.808   4.946  15.357  0.0569 -0.2301  0.1181
20238W        W40518   3.889  14.012   0.866 -0.1006 -0.1968  0.1537
20239W        W40519   2.204   7.879  13.985 -0.1356 -0.1365 -0.1792
20240W        W40520  15.201  10.066  16.233  0.0567  0.0880  0.0484
20241W        W40521   2.609  10.215   4.496  0.0515 -0.0563  0.1597
20242W        W40522  16.310   8.975   1.730  0.2578 -0.1018  0.2327
20243W        W40523  13.874  13.138  13.252  0.2572  0.0067 -0.1146
20244W        W40524   4.149   3.584   0.308 -0.0526 -0.0518 -0.1565
20245W        W40525  17.016  16.059   5.439  0.0701  0.0560 -0.3196
20246W        W40526   1.389  10.116   0.642 -0.0025  0.0716 -0.4622
20247W        W40527  13.608  12.734  13.566 -0.0278  0.0497  0.0056
20248W        W40528  16.822   9.930   4.157 -0.0769  0.1061 -0.1877
20249W        W40529   4.478   9.960   3.450  0.1400  0.2585  0.1832
20250W        W40530  15.605   7.256  12.730  0.1201 -0.0537 -0.1039
20251W        W40531  17.488   4.124  14.451 -0.1118  0.0963 -0.0201
20252W        W40532   2.348  10.389   1.607 -0.1389  0.2149  0.2809
20253W        W40533  16.277   0.876   0.196  0.1943  0.0606  0.1031
20254W        W40534   6.265  12.724   2.052 -0.0217  0.3349  0.1147
20255W        W40535   7.184   5.758   3.004 -0.0459  0.3032 -0.0504
20256W        W40536   5.781   1.228   4.884 -0.2008  0.4797 -0.0559
20257W        W40537   2.691   0.242  16.778 -0.0862 -0.1929 -0.1558
20258W        W40538   7.305   5.577  13.119  0.1613  0.0751 -0.0964
20259W        W40539  14.951   0.634  12.036  0.2377 -0.0098  0.2179
20260W        W40540  17.080   8.616  16.021 -0.0210  0.0704 -0.0076
20261W        W40541   9.695  15.260   4.354 -0.0668 -0.1184 -0.2684
20262W        W40542   9.995  15.253  14.920  0.3679 -0.1138  0.2627
20263W        W40543   3.839   6.710  14.238  0.1175  0.0614 -0.1481
20264W        W40544  11.749   4.911   4.727 -0.0738 -0.1759  0.1105
20265W        W40545  10.900   4.763   1.055  0.1307 -0.0079  0.3256
20266W        W40546   9.543   8.823   0.720 -0.0666 -0.1364  0.0091
20267W        W40547  15.036  12.862  13.965  0.3989 -0.0227  0.1087
20268W        W40548  14.925   2.877   0.122  0.5129  0.1936 -0.0402
20269W        W40549   6.921   8.702   4.931 -0.0953  0.1303  0.0660
20270W        W40550  17.021  11.298   4.690  0.2079  0.0967  0.0853
20271W        W40551   6.725   3.898  13.938 -0.2773 -0.0082 -0.0319
20272W        W40552   9.690   0.261  12.764 -0.1460 -0.0115 -0.5202
20273W        W40553   1.030   2.743  13.166  0.0943 -0.0436  0.1350
20274W        W40554   8.865  16.256  15.121 -0.1892 -0.3033 -0.1367
20275W        W40555   5.158  16.203   4.113 -0.0662 -0.2983 -0.3201
20276W        W40556  14.063   9.220   2.964 -0.0012  0.0479  0.0976
20277W        W40557   0.888   3.374  13.514  0.2461 -0.1251 -0.0397
20278W        W40558  11.227  15.797  15.303 -0.1012  0.0412  0.0158
20279W        W40559  14.692   4.491   3.133 -0.2079  0.0004  0.2539
20280W        W40560   4.885   6.586  13.680  0.2420  0.1574  0.3144
20281W        W40561  14.285  11.908  13.272 -0.3552 -0.1186 -0.0342
20282W        W40562  11.253  17.609  14.467  0.1033  0.1251 -0.0546
20283W        W40563  14.566   0.525  14.764 -0.1419  0.1730 -0.1154
20284W        W40564   6.056   8.706  12.616  0.1181  0.5704 -0.2349
20285W        W40565  12.512  10.301  12.928  0.0741 -0.1680  0.1974
20286W        W40566   6.053  14.408  14.959  0.0351  0.0315  0.1477
20287W        W40567  14.726  13.681  14.687 -0.0905 -0.1342  0.1286
20288W        W40568   3.348  15.697   4.969 -0.0622  0.0554 -0.0380
20289W        W40569   3.344   0.711  13.218  0.0879  0.0739 -0.0261
20290W        W40570   1.366   5.594   3.758 -0.0820 -0.0269 -0.1519
20291W        W40571  14.551  14.315  13.868 -0.0785 -0.0708  0.0494
20292W        W40572  11.083  11.620   2.924 -0.0851  0.3069  0.1381
20293W        W40573   2.275  15.123  14.644 -0.2458 -0.0030  0.3236
20294W        W40574   6.651  12.889   3.198  0.3917 -0.1350 -0.0911
20295W        W40575  10.241  14.351  16.757  0.2933 -0.0649 -0.0800
20296W        W40576   9.117  16.892   5.027  0.2244 -0.0976  0.1342
20297W        W40577   1.688   4.461   2.917 -0.2261  0.2041  0.1521
20298W        W40578   0.517  12.492  14.315 -0.1105 -0.0312  0.0889
20299W        W40579   6.098   8.618  14.918 -0.0956 -0.0503 -0.1140
20300W        W40580  16.736   0.630  14.815 -0.0654  0.2480 -0.5400
20301W        W40581   1.205  16.502  12.562 -0.1164  0.1617 -0.0081
20302W        W40582  11.916  14.769  13.746 -0.0653 -0.1915 -0.1653
20303W        W40583   0.260   2.540  16.020  0.0192 -0.1716 -0.0864
20304W        W40584   8.172   4.210   2.973  0.1989  0.1811 -0.0138
20305W        W40585   9.270   1.897   1.990 -0.1181 -0.1952 -0.1037
20306W        W40586   2.638  15.532  13.901  0.1362 -0.4450 -0.2735
20307W        W40587  10.133   2.700  15.911  0.1801 -0.0637  0.0791
20308W        W40588  17.090  13.175   0.965  0.3079 -0.0132  0.0475
20309W        W40589   1.378   5.215   2.374  0.0791 -0.0137 -0.1955
20310W        W40590  16.251   3.428  15.582 -0.1519  0.0644 -0.1291
20311W        W40591  17.056   9.739  15.834  0.1008 -0.0301  0.0624
20312W        W40592   7.967   0.763   0.047  0.0031 -0.0861 -0.0817
20313W        W40593  10.791   5.247  13.752  0.1216 -0.0703 -0.0071
20314W        W40594  11.538   3.709   2.170  0.0857 -0.3556  0.2628
20315W        W40595   1.076   3.061  16.081 -0.0485 -0.1706 -0.0362
20316W        W40596  13.514  11.372   1.203  0.0315 -0.1183 -0.3270
20317W        W40597  13.058   3.357  16.454 -0.2805 -0.3935 -0.0467
20318W        W40598   1.820   0.469  16.852  0.0612  0.0325  0.2184
20319W        W40599  11.074   8.764   4.783 -0.0421 -0.1595 -0.1357
20320W        W40600  10.605  12.264  13.065 -0.3147  0.5744 -0.2572
20321W        W40601  13.217  14.180  16.271 -0.3876 -0.1577 -0.1940
20322W        W40602  14.965  12.778  15.893 -0.0636 -0.0951 -0.1137
20323W        W40603   0.833   9.664  12.616 -0.0944  0.3043 -0.2182
20324W        W40604  11.035  14.442  16.434  0.1542  0.0687  0.0632
20325W        W40605   8.625   2.215   0.316 -0.2433  0.0933 -0.0306
20326W        W40606   8.701   3.202  14.838 -0.2006  0.2204  0.0218
20327W        W40607   4.249  11.707   1.172  0.2260 -0.2021 -0.1310
20328W        W40608   8.127  14.799  11.864 -0.1997 -0.0186 -0.1978
20329W        W40609   2.165  10.962  14.189  0.1705 -0.0833 -0.3735
20330W        W40610  14.434   6.269  16.064 -0.0081 -0.2842  0.2275
20331W        W40611  16.328   3.675  16.291 -0.0225  0.0301  0.1270
20332W        W40612  13.011   4.786  14.828 -0.0247  0.4339  0.1528
20333W        W40613  14.321  10.913  13.442  0.2202  0.0411 -0.1638
20334W        W40614   9.164   7.670   0.446  0.0963 -0.0307 -0.3538
20335W        W40615  11.727   5.265   2.724 -0.0302 -0.2552  0.0710
20336W        W40616   2.253  12.850   3.751 -0.2010 -0.1305  0.0323
20337W        W40617  14.984   3.196  16.295 -0.2767  0.0251  0.2718
20338W        W40618   7.619  11.971   4.069 -0.1527 -0.0164 -0.0496
20339W        W40619  17.624   5.391   5.080 -0.0660  0.2490 -0.1774
20340W        W40620  17.290  15.216   4.931 -0.0066 -0.1086 -0.0234
20341W        W40621   4.218   5.857   5.001  0.0591 -0.0452  0.0645
20342W        W40622   2.012   9.329   3.330  0.0056 -0.1593 -0.1291
20343W        W40623  10.118  13.862  14.706 -0.0696  0.1637 -0.0970
20344W        W40624   8.756  15.098  15.092 -0.3197  0.0480  0.3267
20345W        W40625  10.756  13.039  15.199 -0.1431 -0.2119 -0.3135
20346W        W40626   9.401  11.461  12.082 -0.2238  0.4567 -0.2439
20347W        W40627   9.399  12.976   4.555 -0.2895 -0.2648  0.1005
20348W        W40628  10.575  11.243  12.170  0.1438  0.0871 -0.2128
20349W        W40629   7.079  10.327  14.385 -0.0268 -0.1588 -0.0405
20350W        W40630  12.779   6.267  15.897 -0.1813 -0.2256 -0.0865
20351W        W40631  11.176  13.957   1.342  0.1251 -0.1527 -0.2361
20352W        W40632  11.743   2.055  15.702 -0.1019 -0.1189 -0.1928
20353W        W40633  16.997   1.896   2.936 -0.1242 -0.1359 -0.3137
20354W        W40634   9.899   9.869   2.035 -0.0385  0.1052 -0.0357
20355W        W40635  16.115   7.842   4.200 -0.1714  0.0052 -0.0234
20356W        W40636  11.709  16.468   4.820  0.2381  0.0953 -0.0847
20357W        W40637  17.471  16.480  16.255  0.1895 -0.0830 -0.1413
20358W        W40638  10.941   9.696   3.205 -0.2318  0.2047  0.1132
20359W        W40639   6.775  10.499  16.750 -0.2405 -0.0335 -0.1124
20360W        W40640  13.366   3.122   4.938  0.0280 -0.3907  0.2417
20361W        W40641  14.865   5.899  16.936 -0.0613 -0.0893  0.3795
20362W        W40642  15.356   6.108   2.997  0.0428  0.2340 -0.1335
20363W        W40643   7.488  16.822  15.743  0.0563  0.1631 -0.2736
20364W        W40644   0.553  12.304  16.245  0.1266  0.0395  0.2271
20365W        W40645  14.170  12.210   2.001  0.0422 -0.1820  0.3049
20366W        W40646  15.638   0.696   3.351  0.1817 -0.1437  0.0057
20367W        W40647   6.300   7.024  14.280  0.0739 -0.0382 -0.0356
20368W        W40648   9.485  13.815  14.066  0.1525  0.1400 -0.1429
20369W        W40649   4.103   4.460  13.317  0.3756  0.2826 -0.0252
20370W        W40650   1.724  13.984  13.412 -0.1740 -0.1724 -0.2561
20371W        W40651  14.146   8.624   1.076 -0.1121 -0.1842 -0.0217
20372W        W40652   6.317  15.820   0.550 -0.2478  0.0429  0.1815
20373W        W40653   2.355   7.867   0.332  0.1375  0.1754  0.1859
20374W        W40654  17.493   0.122   1.019  0.1483  0.0040  0.1062
20375W        W40655   3.520   1.873  13.039  0.1681  0.0018  0.0013
20376W        W40656  11.921   8.538   1.968  0.0192 -0.2554 -0.1852
20377W        W40657   0.859   9.301  12.948  0.0811  0.0058  0.1799
20378W        W40658   8.015  13.794  16.989 -0.0270 -0.0404 -0.0359
20379W        W40659   6.865   4.666  15.923 -0.2928  0.3846  0.3608
20380W        W40660   8.782   0.961  14.652  0.1129 -0.1995  0.2165
20381W        W40661   3.428   7.539   3.063 -0.0392  0.0958  0.2233
20382W        W40662   9.995  17.195  13.793 -0.0424  0.0787 -0.1842
20383W        W40663   3.891   9.380   2.448 -0.1296  0.1068 -0.1385
20384W        W40664  11.494   4.627   5.147 -0.0991  0.0422 -0.0375
20385W        W40665  17.287  10.844   2.546 -0.0187  0.3904  0.0410
20386W        W40666  16.870  15.046  16.618 -0.4215 -0.0423  0.0732
20387W        W40667   9.827   1.010  11.728  0.1928 -0.1410 -0.1510
20388W        W40668   1.324   8.976  13.926 -0.0073 -0.0559  0.0407
20389W        W40669  11.675  15.531   2.585  0.3146  0.0253  0.2311
20390W        W40670   7.070   9.593   2.622  0.2512  0.3605  0.0480
20391W        W40671   1.484  10.307   2.435  0.0375  0.0592 -0.2215
20392W        W40672   6.370  14.331   0.426 -0.0401 -0.0231 -0.2065
20393W        W40673   1.369  17.626   0.097 -0.2184 -0.1722  0.3285
20394W        W40674  14.805  17.073   0.472 -0.2287  0.1313 -0.0703
20395W        W40675  10.756   4.502   2.073 -0.0720 -0.2694 -0.1762
20396W        W40676  13.828  15.528  16.355  0.0038  0.1473  0.4661
20397W        W40677  13.226   4.792  16.902 -0.2370 -0.1785 -0.4197
20398W        W40678  11.642  17.701  14.905  0.0570  0.1765  0.1939
20399W        W40679  12.032   4.621   2.568  0.2177  0.1612  0.0148
20400W        W40680   7.891   9.210  11.261  0.1459  0.1133 -0.1742
20401W        W40681   2.288   4.020  13.264  0.1559 -0.0895 -0.2855
20402W        W40682   3.007   8.718  12.447 -0.3047 -0.0053 -0.2059
20403W        W40683   0.800   8.475   4.419 -0.0697  0.1143 -0.1201
20404W        W40684  16.831   7.412  12.326  0.0466 -0.1543  0.0206
20405W        W40685  16.795  11.219  16.515 -0.0530 -0.1794  0.1982
20406W        W40686   2.762   5.163   0.396 -0.1361 -0.0663  0.0137
20407W        W40687  14.238  17.058   4.159  0.1595 -0.4020 -0.1078
20408W        W40688   5.505  16.024  16.844 -0.3034  0.0763 -0.1521
20409W        W40689   3.451   6.443   4.110 -0.0764 -0.1286  0.0961
20410W        W40690  15.796  11.231  13.162 -0.1702  0.0388  0.0435
20411W        W40691  10.848  16.014  14.026 -0.0670 -0.0974 -0.0796
20412W        W40692  11.045   6.317  14.941  0.0256 -0.1852  0.0745
20413W        W40693  15.307  15.456  12.958  0.0042  0.1644 -0.0254
20414W        W40694  17.359  14.300   0.988  0.1997 -0.0752  0.3897
20415W        W40695  13.581   9.060   2.506  0.1089  0.1598  0.2124
20416W        W40696   8.012  11.869   4.932  0.2727  0.1438  0.2931
20417W        W40697   2.740  12.582   3.517  0.0541  0.0008  0.2555
20418W        W40698  11.103   8.160  14.606  0.2134  0.1131 -0.0179
20419W        W40699   8.318   7.097   2.329 -0.2799 -0.1228  0.0718
20420W        W40700   5.574   9.136   3.525  0.0889 -0.2315 -0.0779
20421W        W40701   2.261   5.172   0.072 -0.4157  0.4012  0.4148
20422W        W40702  11.231  15.447  12.486 -0.1196  0.2571 -0.2697
20423W        W40703  13.758  12.256   0.560  0.1105  0.1092  0.0491
20424W        W40704   7.664  11.792   4.559 -0.2494 -0.3907 -0.1434
20425W        W40705   6.068   5.181   2.907 -0.0574 -0.0198 -0.0609
20426W        W40706   6.105  16.745  13.056 -0.0374 -0.1537  0.2408
20427W        W40707  15.874   1.297   3.814  0.1760  0.2402 -0.1800
20428W        W40708  11.205  13.660  13.857  0.1777 -0.1567 -0.1336
20429W        W40709   3.541   1.044  12.772 -0.1650  0.1921 -0.2396
20430W        W40710   2.580   1.667   3.967 -0.0993 -0.0286  0.2090
20431W        W40711   9.034   9.475   3.703  0.2184  0.0532 -0.0911
20432W        W40712  10.519   5.528   1.816 -0.1310 -0.0692 -0.0113
20433W        W40713  10.147  12.277  15.374 -0.1586  0.1234  0.1514
20434W        W40714   5.011   5.271   3.861  0.1787  0.0411 -0.3763
20435W        W40715  10.231   3.049  14.517 -0.3008 -0.0927  0.0815
20436W        W40716  11.247   6.705   1.927  0.0769 -0.0397  0.0029
20437W        W40717   1.029   2.680  14.555  0.0863 -0.0159  0.1821
20438W        W40718   1.674   5.231  14.621 -0.0821  0.4340  0.1610
20439W        W40719  14.296   7.077   1.133 -0.1346 -0.2036 -0.0246
20440W        W40720  10.826   8.061  14.141 -0.1926  0.0823 -0.2183
20441W        W40721  16.501  15.252   2.142  0.0177 -0.1305  0.3661
20442W        W40722   0.645   5.585  14.366 -0.1355  0.1204 -0.2415
20443W        W40723  16.556   5.139  12.647  0.0311  0.2574 -0.1297
20444W        W40724   9.510  12.730  15.606  0.0690  0.1595 -0.1544
20445W        W40725  11.570  13.839  16.067 -0.0753 -0.0462 -0.3632
20446W        W40726   6.330   2.601   1.340  0.1176 -0.1044 -0.0720
20447W        W40727   8.669  11.861  13.505  0.3836  0.3870 -0.1322
20448W        W40728   5.385   4.904  16.290 -0.1403  0.2847 -0.0406
20449W        W40729  10.843   5.373  16.333 -0.1571  0.1008  0.0796
20450W        W40730  11.337   5.500   4.248  0.1713 -0.0136  0.0510
20451W        W40731   0.934  13.077  15.076  0.1161  0.0188  0.1415
20452W        W40732   3.603   5.759  16.121 -0.0943 -0.3355 -0.1463
20453W        W40733  17.436  15.533   1.989 -0.0359 -0.4737 -0.2037
20454W        W40734  16.121   6.619   0.330 -0.0929  0.2324  0.1360
20455W        W40735  14.984  15.485  16.012  0.0186 -0.1683  0.3182
20456W        W40736   3.393   9.386  16.224 -0.2702  0.0650 -0.5748
20457W        W40737   5.154  17.218   3.996 -0.0077 -0.1994 -0.1037
20458W        W40738   6.080  17.085  16.411  0.3674  0.1694  0.1263
20459W        W40739   7.890  16.472   0.975  0.1049  0.1058  0.0054
20460W        W40740   2.817  15.455  12.040 -0.1299  0.1815 -0.2925
20461W        W40741   7.351  12.629  12.627  0.0621  0.0047  0.0123
20462W        W40742   2.458   4.978   3.327  0.2262  0.0280  0.1985
20463W        W40743   8.326   9.559   3.966  0.2449  0.0642 -0.2278
20464W        W40744   2.593   3.729  16.354 -0.1089 -0.0994 -0.0678
20465W        W40745   0.441  11.280  11.825 -0.0145  0.2215  0.0468
20466W        W40746   0.766  11.113  14.778 -0.1951 -0.1580  0.1667
20467W        W40747   3.003   1.039   1.112  0.0165 -0.0299 -0.3374
20468W        W40748  12.393  15.938  13.111 -0.0045 -0.1644  0.1764
20469W        W40749  10.997   0.249  15.671 -0.2689  0.2729 -0.0987
20470W        W40750   4.858   9.278   2.224 -0.1919  0.1942  0.3253
20471W        W40751  14.355   0.432  15.936 -0.0314  0.0322  0.0463
20472W        W40752   5.662   7.062  13.690 -0.0797 -0.0439  0.0166
20473W        W40753   8.063   9.737  13.484 -0.0916 -0.1205 -0.0393
20474W        W40754  12.530  12.181   4.535  0.2242  0.0912  0.0530
20475W        W40755  10.197  15.594  13.497  0.2058 -0.2171  0.0223
20476W        W40756   9.497   7.384  13.567  0.1533  0.2462  0.0540
20477W        W40757   9.712   5.536  12.950  0.1656 -0.0841 -0.2698
20478W        W40758   4.305  16.039  12.788  0.1621  0.0773 -0.2088
20479W        W40759   7.175   1.960  13.927 -0.1937 -0.1426  0.0628
20480W        W40760   6.640   9.563   4.872 -0.3623  0.2330 -0.1545
20481W        W40761  14.476   3.135  16.107 -0.0581 -0.0266  0.0196
20482W        W40762   0.685   7.782   1.471  0.0113 -0.0653  0.2972
20483W        W40763   6.494   9.987   4.628  0.0389  0.0740 -0.0239
20484W        W40764  16.805  13.091   1.398 -0.1365  0.3198  0.2552
20485W        W40765   8.386  15.457   3.424 -0.0464 -0.1449  0.0693
20486W        W40766  10.209   6.039   3.586  0.2157 -0.0018 -0.1556
20487W        W40767   8.088   7.070   4.619  0.2252  0.1061 -0.2510
20488W        W40768   6.167  14.641  12.155  0.2013 -0.0790 -0.1764
20489W        W40769   9.266   6.400   2.747  0.0985 -0.0866 -0.1781
20490W        W40770   1.572  12.321  12.600 -0.0475 -0.0932  0.0779
20491W        W40771  17.400  15.073  16.105  0.0019 -0.1062  0.0781
20492W        W40772   4.209   2.745  15.179 -0.0974 -0.3560 -0.3058
20493W        W40773  13.744   1.722  16.464  0.0246 -0.1345 -0.1033
20494W        W40774   8.460   2.659   1.567  0.2040 -0.1210 -0.2437
20495W        W40775  10.795   7.555  16.415 -0.1797  0.2895  0.0179
20496W        W40776   8.968  10.153  16.907  0.0249  0.0316 -0.0173
20497W        W40777  11.238  11.478   5.010 -0.0681  0.0662 -0.1996
20498W        W40778   8.634  13.908  16.405 -0.1380 -0.0443  0.0509
20499W        W40779  16.810   4.268   1.520  0.0604  0.5236  0.0082
20500W        W40780   6.109   8.240   0.072  0.2680  0.1495 -0.1192
20501W        W40781   6.485   0.022  12.742  0.1249  0.2924 -0.1639
20502W        W40782   1.928   0.481   0.578  0.0324  0.0032 -0.0029
20503W        W40783  12.751   6.036  16.701 -0.2655 -0.1155 -0.3448
20504W        W40784   4.745  16.624  14.361  0.3715 -0.0558 -0.3129
20505W        W40785  12.766  17.409  13.516  0.1433 -0.1605 -0.0102
20506W        W40786   7.713  12.010  16.964 -0.3007 -0.0410  0.4008
20507W        W40787  13.151  17.036  13.322 -0.0781 -0.0842 -0.1146
20508W        W40788  11.037   0.029   3.138  0.0616  0.1527 -0.0636
20509W        W40789   8.783  16.802   1.132 -0.1556  0.2412  0.0689
20510W        W40790   8.775   3.609   2.069 -0.0936  0.1042 -0.1943
20511W        W40791  16.683   3.671   0.056  0.3255  0.2471  0.0683
20512W        W40792   3.365  11.239  16.225  0.0456  0.0222  0.0784
20513W        W40793  10.174   6.416  13.431 -0.2731 -0.3442  0.2077
20514W        W40794   2.704   0.319   4.377 -0.0505  0.1412  0.0779
20515W        W40795   1.414   6.536   2.311 -0.1488  0.1763  0.3392
20516W        W40796  10.042  16.176   3.748  0.2052  0.2830 -0.0124
20517W        W40797  16.691  17.251  13.375  0.1112 -0.1998 -0.0800
20518W        W40798   8.868  15.603  15.088  0.1268 -0.0552  0.0585
20519W        W40799   7.395   1.249  14.778  0.0283 -0.2742  0.0230
20520W        W40800   0.584  12.055   1.000  0.3608 -0.1103  0.1972
20521W        W40801  15.903   5.945  13.338  0.2285 -0.3485 -0.0777
20522W        W40802   6.152  13.295   4.067  0.0815 -0.2729  0.0803
20523W        W40803  14.814   6.361   1.741  0.0493 -0.1225  0.1264
20524W        W40804   5.027   8.048   1.026 -0.1597  0.0440  0.0987
20525W        W40805   3.794   4.288  15.162  0.0362 -0.0419 -0.0461
20526W        W40806  16.943  14.030   0.915  0.1600 -0.3224  0.1608
20527W        W40807  16.355  17.480   0.968 -0.0852 -0.0464 -0.3230
20528W        W40808  15.856  14.603   3.879 -0.0347 -0.0467  0.0214
20529W        W40809   5.681  13.111   1.433  0.1048  0.1920  0.1961
20530W        W40810   6.720   8.840   2.010  0.4048 -0.1923  0.0993
20531W        W40811   1.929  12.180   4.754  0.2830 -0.0620 -0.4347
20532W        W40812   5.690   8.353   1.322 -0.1295 -0.0242  0.1652
20533W        W40813   6.220  10.839   1.407 -0.2077 -0.0248  0.3502
20534W        W40814  14.533  14.433   0.594 -0.0686  0.2079  0.0523
20535W        W40815   0.820  14.632   0.514  0.1257  0.1047 -0.0283
20536W        W40816   9.995   8.970  14.852  0.0624  0.1538 -0.1620
20537W        W40817  16.655   4.967  14.397  0.0744 -0.2467 -0.1389
20538W        W40818   9.837  16.849  15.764 -0.0260  0.0845 -0.2628
20539W        W40819  16.863   8.563   0.560 -0.0251 -0.0300 -0.0277
20540W        W40820  15.066   9.087  14.484  0.1541  0.0147  0.1205
20541W        W40821  17.607   1.990   0.354 -0.1496  0.2702 -0.1675
20542W        W40822   1.703   6.926   1.002  0.0561 -0.1618 -0.0974
20543W        W40823   0.849   6.443   4.839 -0.2010 -0.2051 -0.0300
20544W        W40824   9.655  12.548  13.457  0.1510 -0.2314  0.1157
20545W        W40825   3.047  11.150   1.822  0.2732 -0.3363  0.1525
20546W        W40826  11.054   0.486  13.318 -0.1324  0.1286  0.3355
20547W        W40827  16.616   5.508   4.476 -0.1590 -0.0916 -0.1718
20548W        W40828   2.088  11.389  14.547 -0.1035 -0.2873  0.0873
20549W        W40829  12.726  12.615   2.751  0.1062  0.2477 -0.1648
20550W        W40830   9.849  10.441   2.531 -0.0522  0.0503  0.0352
20551W        W40831   6.293  12.483  15.589 -0.1741 -0.1318 -0.0273
20552W        W40832   4.576   1.846  12.753 -0.0581  0.1191  0.0874
20553W        W40833  12.892   6.354   3.190 -0.2982  0.0126  0.2568
20554W        W40834  14.769   7.854   4.113  0.0270 -0.0618 -0.2471
20555W        W40835  17.197   6.467   3.800 -0.1639  0.1113 -0.2877
20556W        W40836   1.935   6.034  13.064  0.1263  0.2142 -0.1753
20557W        W40837  13.256   7.434   2.176 -0.0966 -0.0585 -0.0931
20558W        W40838  17.244  11.240   0.898  0.1481 -0.2872  0.0674
20559W        W40839  13.426   1.636  12.315 -0.1125 -0.1136 -0.2321
20560W        W40840  16.039   8.489   0.583 -0.3462  0.1778  0.1885
20561W        W40841   7.259  11.959  14.747  0.0050  0.2000  0.2496
20562W        W40842   5.037   2.281  15.173 -0.1910  0.0846  0.1341
20563W        W40843   1.388   6.590  16.657 -0.1798  0.0270  0.1898
20564W        W40844   7.314   6.150   5.115  0.2699 -0.3445  0.2456
20565W        W40845   5.361   1.071   1.648 -0.0047  0.3101  0.1793
20566W        W40846  16.947   6.104  13.529 -0.0977 -0.1422 -0.1569
20567W        W40847  10.348  14.628   2.909  0.1216  0.2033  0.0462
20568W        W40848   3.209  16.596  15.457  0.0675  0.2600 -0.2083
20569W        W40849   2.085  15.532   4.648  0.1271 -0.1021  0.0978
20570W        W40850   2.831   3.079  14.323 -0.1570  0.1833  0.1856
20571W        W40851   0.059  16.227   3.601  0.0591  0.2192  0.2257
20572W        W40852  10.982  14.278   4.288  0.3131  0.2322  0.0212
20573W        W40853  16.240  15.671  14.301  0.2739 -0.0072  0.1380
20574W        W40854   6.518   0.476  15.879 -0.1082  0.1375 -0.3117
20575W        W40855  14.362   8.825  14.342 -0.0228  0.0663 -0.1625
20576W        W40856  10.246  12.699  12.880 -0.1874 -0.2158  0.1530
20577W        W40857  14.143  14.995  16.755 -0.1691 -0.0771 -0.0394
20578W        W40858   5.430  12.504   4.293  0.0480  0.2322 -0.0865
20579W        W40859   3.195  12.122  13.042  0.1346 -0.1839 -0.0923
20580W        W40860   8.135  12.245  16.726 -0.0656 -0.0859 -0.3598
20581W        W40861   5.695   8.058  16.555  0.1127  0.1212  0.0372
20582W        W40862   8.568   6.905   0.819  0.0595 -0.0259  0.0240
20583W        W40863  11.627   6.690   1.545 -0.1111  0.0443 -0.0958
20584W        W40864  11.255   5.779  12.466  0.1828 -0.0080 -0.1525
20585W        W40865   0.610   8.441  13.394  0.1368 -0.0214 -0.1111
20586W        W40866  13.093  12.845  14.824 -0.5244 -0.4736 -0.1509
20587W        W40867   4.660   5.714   1.875  0.2297  0.0134  0.0856
20588W        W40868  12.778  11.644   1.859 -0.1506 -0.2339 -0.2433
20589W        W40869  17.398  17.367  15.110 -0.1801  0.1041 -0.1764
20590W        W40870   0.593   3.460  16.254  0.3134  0.0807 -0.1467
20591W        W40871  16.603   2.444   3.869  0.2271 -0.0944 -0.1122
20592W        W40872  16.334   3.926   0.788  0.2648  0.2039 -0.1494
20593W        W40873   3.725  15.420   1.957  0.0005  0.3545  0.0242
20594W        W40874  14.781   3.376   2.132 -0.2348 -0.2548 -0.1294
20595W        W40875   2.243  15.115   1.506  0.0378 -0.0699 -0.0047
20596W        W40876  11.565   2.967   0.774 -0.0783 -0.0219  0.2007
20597W        W40877   6.098   6.875   4.476 -0.1333 -0.0592  0.0968
20598W        W40878   0.528   5.759  13.017 -0.1810 -0.2194  0.3252
20599W        W40879   4.498  13.581  16.000  0.3626  0.3131 -0.1255
20600W        W40880   5.685   5.073   2.595  0.0138  0.0047  0.1945
20601W        W40881   6.137   5.416   1.247 -0.3806  0.1131  0.3526
20602W        W40882  12.895   6.810  13.598  0.0812  0.1603 -0.0042
20603W        W40883   3.748  16.171   2.454 -0.1432  0.3175 -0.1921
20604W        W40884  10.070  15.164  16.625  0.1346  0.0219 -0.2224
20605W        W40885   7.600   4.178   3.686  0.1566  0.2490  0.2285
20606W        W40886  13.819   9.008   1.999 -0.2491 -0.3319  0.1801
20607W        W40887   1.674   0.728   1.022  0.1716  0.2040 -0.3206
20608W        W40888  17.688  12.288   1.854  0.1941  0.2300  0.2442
20609W        W40889  11.271   1.062   4.402  0.1505 -0.0305 -0.1340
20610W        W40890  14.874  13.934  15.140  0.3872 -0.0523  0.1997
20611W        W40891  14.741   9.375  16.441  0.0950  0.1945  0.1650
20612W        W40892  15.444   4.816  14.047  0.0821 -0.0572 -0.0775
20613W        W40893   6.957  10.703  13.110  0.2517 -0.4571  0.1052
20614W        W40894   1.440   7.058   3.563 -0.0626 -0.1203  0.2041
20615W        W40895   3.833   1.743   4.709  0.1022 -0.0668  0.2239
20616W        W40896  15.471   2.328   2.466 -0.3279  0.0494 -0.3058
20617W        W40897   1.962   5.057   3.375 -0.3223 -0.0065 -0.2240
20618W        W40898  10.971   1.453  15.638 -0.0403 -0.1441 -0.5087
20619W        W40899  10.091   4.704   0.271 -0.2267 -0.1497 -0.0329
20620W        W40900  13.494   4.397   1.399 -0.0645 -0.5304 -0.1019
20621W        W40901  14.089  17.571  12.890  0.2421  0.1151  0.0285
20622W        W40902   0.949   4.508  12.060 -0.0461  0.2817 -0.1218
20623W        W40903   0.168   9.058   0.517 -0.0236 -0.0591  0.0397
20624W        W40904   0.101  13.664  15.062 -0.1627  0.0208 -0.4468
20625W        W40905   9.295  10.755   1.226 -0.2404 -0.1936 -0.1785
20626W        W40906   4.589   7.028   2.493  0.0491 -0.3522  0.2494
20627W        W40907  13.273  14.618   2.665 -0.3890 -0.1133 -0.1217
20628W        W40908  13.463   3.494  13.411 -0.1223  0.3672 -0.1197
20629W        W40909  13.826  12.268   2.382  0.0609 -0.3259 -0.0382
20630W        W40910   4.857   4.719  13.728 -0.1142  0.0091  0.0285
20631W        W40911   6.473   9.428   2.409 -0.0452 -0.1490  0.0032
20632W        W40912   0.863  15.026   4.605 -0.1127  0.0995 -0.1390
20633W        W40913   5.471  12.594  12.938 -0.2136  0.0639  0.0552
20634W        W40914   5.729  16.248   4.232  0.2801  0.0037 -0.2136
20635W        W40915  12.672  10.695  13.204  0.0243  0.5822 -0.2068
20636W        W40916  11.776   0.933  12.235 -0.0070 -0.2448 -0.0467
20637W        W40917   5.949   8.210   2.817  0.0108  0.0893  0.2248
20638W        W40918  14.720   4.929  14.818  0.0158  0.2742 -0.2615
20639W        W40919  14.818   6.631   2.252  0.0360  0.0426 -0.1257
20640W        W40920   3.729  11.549  15.905  0.0257  0.1701 -0.1827
20641W        W40921  13.913  16.690  14.998 -0.1108  0.0888  0.0683
20642W        W40922   7.171   2.306   1.106 -0.0521  0.2065  0.1064
20643W        W40923  13.373  13.892  13.092  0.4593 -0.2600  0.0292
20644W        W40924   7.804   6.521   3.929  0.2145 -0.0684 -0.0010
20645W        W40925   1.567  12.383   1.045 -0.2583  0.3160 -0.2838
20646W        W40926  11.839  15.590  15.991  0.1428  0.2627 -0.1594
20647W        W40927  14.455   7.857   0.159  0.3103  0.0682  0.0155
20648W        W40928   6.963   2.985   3.477 -0.2001  0.2514  0.0355
20649W        W40929   0.718   5.776   3.653 -0.0291 -0.1618 -0.3469
20650W        W40930  11.173  15.458   0.896 -0.1916  0.0472 -0.1314
20651W        W40931   8.404  11.901  12.628 -0.4395 -0.1101 -0.1494
20652W        W40932   7.894   2.476  16.053  0.1954  0.1645 -0.3406
20653W        W40933   4.452   4.790   2.617  0.1880 -0.1283 -0.1850
20654W        W40934   7.920   2.586   2.917 -0.2688  0.3249  0.2809
20655W        W40935   9.378  12.440  16.016  0.2057 -0.0043  0.1707
20656W        W40936   3.595  10.079   4.932  0.0655  0.0339 -0.0289
20657W        W40937   0.366  15.275  13.197  0.1659  0.2948 -0.2982
20658W        W40938  13.714  10.792  12.601 -0.0241  0.2896  0.0631
20659W        W40939  17.488  10.966  12.457  0.0352 -0.1520 -0.1862
20660W        W40940   2.777   5.159   1.826 -0.0519 -0.1857 -0.0618
20661W        W40941  10.718   5.769  15.257 -0.0022  0.1802 -0.2182
20662W        W40942  15.391  11.618   3.713 -0.3915 -0.1623  0.2767
20663W        W40943   4.392  13.838   1.280  0.3952  0.1255  0.3447
20664W        W40944   3.294  14.979  15.586 -0.0997 -0.1868 -0.0573
20665W        W40945   6.032   3.571   2.349 -0.1823  0.0847  0.4064
20666W        W40946   3.871  10.575  15.559  0.0887 -0.0648 -0.0382
20667W        W40947  17.410  15.649   0.206  0.2073 -0.0819  0.1061
20668W        W40948  14.986  13.971   2.468  0.1405  0.0310  0.0184
20669W        W40949   6.238  12.664  13.452 -0.0761 -0.2003 -0.5741
20670W        W40950  16.959   3.282   0.423  0.1384  0.1572  0.2685
20671W        W40951   4.981   6.969  14.245 -0.1663  0.2410  0.0391
20672W        W40952   6.977   8.360  16.841  0.3017 -0.0384  0.2374
20673W        W40953  10.116   6.457  12.935  0.1147  0.0308  0.0839
20674W        W40954   6.345   2.358  12.920 -0.0632 -0.3373 -0.0759
20675W        W40955   5.115  12.123   4.886  0.0449 -0.2163 -0.0215
20676W        W40956   2.392  17.685   3.331 -0.2051 -0.0337  0.0194
20677W        W40957  17.315   6.031   4.107  0.0510 -0.0385  0.2733
20678W        W40958  16.955   8.052  14.281  0.0421 -0.0538  0.0431
20679W        W40959  13.152  17.698  13.321 -0.0709  0.0820 -0.1891
20680W        W40960   9.677   5.179   4.714 -0.0824  0.0519  0.0181
20681W        W40961   3.780   1.128  16.833  0.0252  0.1098  0.3373
20682W        W40962  10.837   4.493   0.621  0.2627  0.1168  0.0097
20683W        W40963  15.571  12.581   4.530  0.1913 -0.1083 -0.0892
20684W        W40964  17.233  13.712  14.864  0.0219  0.5899 -0.3630
20685W        W40965  15.112  15.735   1.877 -0.3443  0.0165 -0.0808
20686W        W40966   2.010  14.316  12.829 -0.3295  0.0014 -0.2733
20687W        W40967   7.728   6.977   1.523 -0.1321 -0.3722 -0.1622
20688W        W40968  13.588  11.543  14.708  0.1470  0.0534  0.1598
20689W        W40969  12.972   3.971  16.960  0.0015  0.0405 -0.0953
20690W        W40970   2.195   5.011  13.850 -0.0670 -0.1369  0.2081
20691W        W40971  14.768   3.665   1.715 -0.2595  0.0940 -0.0629
20692W        W40972   7.149   7.606   1.595 -0.2642 -0.1809 -0.3434
20693W        W40973  12.485   1.833   1.367  0.0602  0.0195 -0.0668
20694W        W40974  12.478   5.896  14.932 -0.1621  0.2893  0.4063
20695W        W40975  17.265  14.321  13.433 -0.0971  0.0662  0.5194
20696W        W40976   9.694  16.659  13.063 -0.5990  0.1223 -0.0282
20697W        W40977   5.977  17.374   3.369 -0.1127  0.0813 -0.0857
20698W        W40978   5.171   2.338   2.022  0.3443  0.0415 -0.0452
20699W        W40979   1.964  16.353   0.604  0.1959  0.6134 -0.0201
20700W        W40980  11.302   9.894  14.178  0.2998  0.0693  0.1268
20701W        W40981   8.122  16.865   2.582 -0.0685  0.0115 -0.3816
20702W        W40982  12.214   6.499   3.925 -0.1556  0.0354  0.1018
20703W        W40983  10.597   8.571   0.793 -0.1934 -0.2346  0.1356
20704W        W40984   5.743  14.731   4.298  0.1439 -0.0440  0.1424
20705W        W40985   3.809   2.134  14.311 -0.1473  0.0117  0.1365
20706W        W40986  12.653   7.954   4.481 -0.0213  0.1701 -0.1734
20707W        W40987  17.445   4.487  14.879 -0.0313  0.2185 -0.1913
20708W        W40988   4.131  13.905   2.891  0.2457 -0.1921  0.0749
20709W        W40989  16.538   2.204  13.606  0.1794 -0.3635 -0.2859
20710W        W40990  15.287   1.250  16.727 -0.0947  0.0864 -0.0879
20711W        W40991  12.563   6.820  16.661 -0.0359 -0.0026  0.0614
20712W        W40992   8.919   3.767   3.948 -0.0486  0.2512 -0.2116
20713W        W40993   6.147   4.669   3.195 -0.0096  0.0165 -0.3047
20714W        W40994   0.110  11.751  12.601  0.2320  0.1704 -0.3539
20715W        W40995  11.651   5.866  16.837 -0.0587  0.1843  0.0937
20716W        W40996   4.030  12.885  13.091  0.2953 -0.2608 -0.1895
20717W        W40997   4.870  17.443  15.589  0.1690 -0.0612 -0.1527
20718W        W40998  13.668  11.301   0.674 -0.2597 -0.0252 -0.0762
20719W        W40999  12.306  15.110   1.878 -0.0998 -0.1076  0.2621
20720W        W41000   5.821   8.830   1.313  0.3104 -0.0509 -0.4650
20721W        W41001  14.850  17.045   2.582  0.1914 -0.0935  0.0805
20722W        W41002  11.986  14.413   0.999  0.0510  0.1749 -0.2063
20723W        W41003  13.412  12.877   0.474  0.1072  0.2179 -0.3523
20724W        W41004  10.443   5.279   2.926 -0.0911 -0.0197  0.2918
20725W        W41005   5.791  14.477  16.845 -0.1324 -0.1804  0.2036
20726W        W41006   8.557   0.362  16.368 -0.0368  0.0504 -0.2990
20727W        W41007   5.817  11.932  13.179  0.0078 -0.1772 -0.2567
20728W        W41008  10.155   3.856   0.419  0.1457 -0.1056 -0.1426
20729W        W41009   9.486   1.220   2.468  0.1354  0.1568  0.1188
20730W        W41010  12.396   5.038  15.497 -0.1413  0.0322  0.2681
20731W        W41011   0.212   4.590   2.125  0.4641 -0.2764 -0.4080
20732W        W41012   8.797   5.223  15.654  0.0910 -0.4454  0.0386
20733W        W41013  13.578  10.918  13.595 -0.0735  0.0492  0.1973
20734W        W41014   4.375   0.309   1.931 -0.1060  0.0666 -0.0554
20735W        W41015  10.244  17.438  16.772 -0.2097 -0.0005 -0.0739
20736W        W41016  12.821   1.509  14.467 -0.3092  0.1714  0.1024
20737W        W41017  13.171   0.227  13.799 -0.1448  0.3173  0.1954
20738W        W41018   9.126  10.109  16.234 -0.0468 -0.1057 -0.0330
20739W        W41019   9.377   0.860  15.471  0.2286 -0.0149 -0.0981
20740W        W41020  10.009   4.895  12.659  0.0206  0.0098 -0.2040
20741W        W41021   6.644  12.192   0.611  0.0526 -0.1988 -0.1048
20742W        W41022   1.020  16.521  15.957  0.2796 -0.1306 -0.0490
20743W        W41023  16.300   4.141  12.817 -0.0601 -0.0834 -0.1168
20744W        W41024   1.687  10.652   2.778 -0.2157 -0.2360  0.0156
20745W        W41025   7.391  16.161  14.614 -0.0066  0.1857 -0.1224
20746W        W41026   2.359  15.675   1.532 -0.1055  0.0689  0.0622
20747W        W41027   2.041   9.858   0.469 -0.0674  0.0465  0.0419
20748W        W41028   9.968   0.711  12.925  0.0145  0.0183 -0.3628
20749W        W41029   3.672   0.560  12.432  0.1175 -0.2637  0.3105
20750W        W41030  16.428   8.173   2.429 -0.1289 -0.0706  0.3952
20751W        W41031  16.914  11.457  13.698  0.0289  0.1959  0.1003
20752W        W41032  14.004  14.562   5.785  0.0713 -0.0027  0.1373
20753W        W41033   5.609  13.624   0.919  0.1103  0.0901  0.2413
20754W        W41034  12.576   4.475  15.155 -0.3682 -0.0373 -0.0029
20755W        W41035   9.872   7.898  15.271 -0.1720 -0.1229  0.1318
20756W        W41036   9.493  13.292   1.137 -0.2893 -0.0237  0.0053
20757W        W41037   6.169  17.271   0.400  0.0663  0.1187 -0.1035
20758W        W41038  17.585  17.460  14.284 -0.0794 -0.1873 -0.2026
20759W        W41039  13.207   5.136   0.955  0.4876 -0.1359  0.1838
20760W        W41040   4.251  11.211  13.114 -0.0552  0.1157 -0.0723
20761W        W41041  10.283   4.476  12.275 -0.0557 -0.0980  0.2378
20762W        W41042   9.758   8.385  15.468  0.2779 -0.1032  0.1318
20763W        W41043   7.124   3.719   2.973  0.1691  0.0094  0.2038
20764W        W41044  13.274   6.247  16.582  0.2647 -0.0094 -0.1323
20765W        W41045  17.616   2.369  15.830  0.1466  0.0647  0.1845
20766W        W41046   1.802   4.746  16.799 -0.1079  0.3068 -0.0449
20767W        W41047  12.133  13.070  14.554  0.1631 -0.0791 -0.2936
20768W        W41048   0.235  11.079   4.554  0.0373 -0.1988 -0.1721
20769W        W41049  13.836  15.552  12.372  0.0385  0.0882  0.2952
20770W        W41050   0.996   3.433  14.294 -0.3776 -0.0365 -0.1363
20771W        W41051   9.917  16.970   4.765  0.2724 -0.0788 -0.1654
20772W        W41052   5.186  10.000   4.797  0.1382  0.1551  0.0745
20773W        W41053   2.293  10.103   1.116 -0.1726  0.0611  0.4341
20774W        W41054   8.362  13.223  12.556 -0.1042 -0.2507  0.1611
20775W        W41055   1.136   5.945  15.643 -0.2143 -0.4202 -0.0584
20776W        W41056  14.731   9.372   0.833  0.1278 -0.1911 -0.2303
20777W        W41057   0.700  13.945   2.412 -0.2723 -0.1088  0.5650
20778W        W41058   8.752  11.643   0.926 -0.0332  0.0401  0.0556
20779W        W41059  12.719  10.267   0.483 -0.0757  0.1846 -0.0293
20780W        W41060   8.677  11.933  16.719  0.0403  0.0306  0.2174
20781W        W41061  13.934  11.673  13.577  0.2215  0.0460  0.0005
20782W        W41062   1.914   4.793  12.923 -0.0691  0.2465 -0.1170
20783W        W41063   3.165   5.849  16.812 -0.1262 -0.1957 -0.4208
20784W        W41064   2.422  17.505   1.231  0.1087  0.0321  0.1035
20785W        W41065  14.178  13.750   1.439 -0.0205 -0.2554  0.0200
20786W        W41066   3.534   5.015   4.020  0.0734  0.2160 -0.2474
20787W        W41067   0.364   6.437   1.333 -0.0081  0.1955  0.2031
20788W        W41068   5.600   7.907   2.281 -0.2577 -0.1030  0.0018
20789W        W41069   0.152   6.103   0.403  0.1208  0.0606  0.3100
20790W        W41070  16.826  15.743  13.188 -0.2701  0.0058 -0.0218
20791W        W41071   4.077  14.119   0.328  0.0838  0.0278 -0.0120
20792W        W41072   2.808   8.608   0.270 -0.0491  0.0845  0.2731
20793W        W41073  10.477   2.476  16.240  0.0016 -0.1456 -0.0646
20794W        W41074  14.941  11.930  14.049 -0.1664  0.0718 -0.3147
20795W        W41075  15.144   2.558   1.602  0.1187  0.0519  0.0147
20796W        W41076   6.724   4.378  14.796  0.0757  0.0970  0.2032
20797W        W41077   0.217   1.200  14.554  0.0790  0.2131 -0.4851
20798W        W41078   0.867  10.224  13.413 -0.2377  0.0430  0.3439
20799W        W41079   9.347  16.515  13.728  0.0792 -0.1367  0.2166
20800W        W41080  10.576   6.529  14.786 -0.0205  0.0674  0.0682
20801W        W41081   5.943  13.016   0.168 -0.3861  0.0033  0.0520
20802W        W41082  11.087   9.722   1.330  0.1861  0.0425 -0.2495
20803W        W41083   3.391  10.982  13.744 -0.3505 -0.4349  0.1663
20804W        W41084   1.639  15.669  15.702  0.0080  0.0578 -0.1559
20805W        W41085  14.591   1.056   3.332  0.1141 -0.0783  0.1362
20806W        W41086   7.099   5.955  12.322 -0.3378  0.2999  0.0631
20807W        W41087   5.289  15.803  14.750  0.2604 -0.0210  0.1543
20808W        W41088   0.730   9.760  15.522 -0.3123 -0.0621 -0.0147
20809W        W41089  13.953  16.025  16.481  0.1582  0.1622 -0.3015
20810W        W41090   2.185  16.519   1.650  0.2486 -0.1915  0.0414
20811W        W41091   8.196  16.895   3.921  0.0742  0.0978  0.1344
20812W        W41092   1.451  13.029   3.630 -0.1228 -0.0017 -0.0146
20813W        W41093   1.759  16.977  14.504  0.0768  0.0207  0.0033
20814W        W41094   2.984  15.526  15.080 -0.0603 -0.0146  0.1188
20815W        W41095   2.488   8.103   4.246 -0.3335 -0.1996 -0.1391
20816W        W41096  10.008   7.520  13.320 -0.3389 -0.2649  0.0711
20817W        W41097   3.719   8.678   1.760 -0.0600  0.0159 -0.0499
20818W        W41098   8.910  13.697   3.761 -0.0720 -0.0557  0.2367
20819W        W41099  16.094   7.433   0.759  0.0083 -0.2378 -0.3247
20820W        W41100   5.192   8.346  16.569  0.3251  0.2398 -0.0021
20821W        W41101   1.037   9.935   2.069  0.0000  0.0018 -0.0165
20822W        W41102   6.511   9.923   0.854  0.0922  0.2213 -0.0586
20823W        W41103  14.487  16.000  13.260  0.2384  0.1127  0.0740
20824W        W41104   5.928   7.178   5.045 -0.4420  0.1099 -0.0411
20825W        W41105   9.656   5.688  16.068  0.1021 -0.1539  0.1915
20826W        W41106  13.167   2.151   1.099 -0.0493 -0.3191 -0.0470
20827W        W41107   2.595   9.246  13.560  0.0613  0.0752  0.0544
20828W        W41108   7.005  15.967  15.406  0.0157 -0.0135  0.0130
20829W        W41109  10.320   2.654   3.577  0.1767 -0.0005  0.1282
20830W        W41110   7.640  16.541   4.662 -0.3346 -0.0724  0.0954
20831W        W41111  12.249   4.083  12.082  0.0904 -0.0471 -0.3251
20832W        W41112   2.990  17.636   4.532  0.2633  0.1011 -0.2682
20833W        W41113  13.866   4.214  14.687  0.0836  0.0368  0.0213
20834W        W41114  16.422   9.779  14.773 -0.1055 -0.0534  0.0936
20835W        W41115   1.972   1.773   3.957  0.0399  0.2582 -0.0516
20836W        W41116  12.318   9.544  14.948 -0.0515 -0.2196 -0.0269
20837W        W41117   7.773   6.630   0.600 -0.1835  0.0836  0.3024
20838W        W41118  13.145  12.731  13.290  0.3584  0.2483 -0.0864
20839W        W41119  11.451   8.136   1.071  0.1387  0.0374 -0.1298
20840W        W41120   0.790   8.701   0.845 -0.1836 -0.1349 -0.0090
20841W        W41121   7.140  11.103   2.954 -0.1174 -0.0178  0.1323
20842W        W41122  16.235   8.229  15.466 -0.1564 -0.2362  0.0608
20843W        W41123  13.748   1.562   3.291  0.0633 -0.3161 -0.0245
20844W        W41124  17.138   6.936   2.669 -0.1378  0.1258 -0.0484
20845W        W41125   3.283  10.507  15.421  0.0645  0.0239  0.2329
20846W        W41126   2.574   9.655   4.365 -0.3856  0.1187 -0.0609
20847W        W41127  15.488  16.588   1.626  0.0241  0.0210 -0.0290
20848W        W41128   0.117   9.480   3.184  0.3696  0.0165 -0.0227
20849W        W41129   4.753  14.577  12.666 -0.2639 -0.1739  0.2398
20850W        W41130   7.360  13.774   1.253 -0.1069  0.1273 -0.1190
20851W        W41131   3.566   2.283  16.649  0.1201 -0.0004  0.2345
20852W        W41132  12.981   0.466   3.158  0.1118 -0.4458  0.3299
20853W        W41133  10.705   6.992  16.039 -0.2258  0.0991  0.0736
20854W        W41134  11.168   1.898   4.326  0.0235  0.1067 -0.2294
20855W        W41135  17.081   0.909   4.092 -0.0823 -0.0173 -0.0446
20856W        W41136   3.954  11.135  14.107  0.0815  0.0127  0.1350
20857W        W41137   9.626  11.900  15.972 -0.1151  0.3226 -0.2032
20858W        W41138  11.130   9.792   0.354 -0.1580  0.3583  0.2001
20859W        W41139   0.418   5.826  14.778 -0.1602  0.2141  0.0131
20860W        W41140  13.497   3.806   3.753  0.1581  0.0875  0.0703
20861W        W41141   2.489   7.600  15.779 -0.0758 -0.0028  0.2482
20862W        W41142  15.316  11.092  16.722 -0.2901  0.3066  0.0986
20863W        W41143  16.812  14.948   1.908  0.0216  0.1728  0.0288
20864W        W41144   5.240  10.168  14.583  0.1683 -0.3421 -0.0405
20865W        W41145  16.158  14.983   4.114 -0.2489 -0.1712  0.4578
20866W        W41146   6.594   8.143   3.485  0.2205  0.0060  0.1097
20867W        W41147   7.867   3.353   4.800 -0.0140 -0.2067 -0.2034
20868W        W41148   1.738   4.658  14.661 -0.4204  0.3192 -0.2298
20869W        W41149  12.780  11.768   0.835 -0.0569 -0.1590  0.1818
20870W        W41150  12.714  10.884  15.668  0.0430 -0.1991  0.1106
20871W        W41151   7.690   8.107  14.690 -0.0194  0.0543 -0.1512
20872W        W41152  10.104  12.352  13.140 -0.0721  0.0214  0.0550
20873W        W41153   6.385  17.380   2.855 -0.1346  0.5529 -0.3257
20874W        W41154   4.667   3.078  16.755 -0.0196  0.2797  0.2157
20875W        W41155   0.563   4.991   3.988 -0.1772 -0.0552  0.0156
20876W        W41156   4.552   4.799  13.332  0.0448  0.2379  0.4511
20877W        W41157   3.554  12.701   0.957  0.0992 -0.0819 -0.2727
20878W        W41158  13.657  16.165   0.617 -0.0832 -0.2402 -0.0130
20879W        W41159   2.471   9.387  11.862 -0.0614 -0.1814  0.2386
20880W        W41160   0.165   4.198  14.755 -0.5934  0.2393  0.2210
20881W        W41161  11.478  14.200   4.407 -0.0636 -0.1767  0.0180
20882W        W41162   8.750  16.164   4.058 -0.1619  0.1205 -0.0464
20883W        W41163   0.852   3.430   0.597  0.1592 -0.3534  0.1746
20884W        W41164   2.890  14.307   3.390 -0.3982  0.0255  0.1824
20885W        W41165   5.709   0.264  12.102  0.1463  0.2058 -0.0537
20886W        W41166  10.654   0.114  12.191  0.0847 -0.1149 -0.1097
20887W        W41167  13.568   5.297   2.224  0.2709 -0.3014  0.0561
20888W        W41168  13.274  15.333   4.895 -0.2165 -0.3950  0.2292
20889W        W41169   0.285  15.636   4.179 -0.0722 -0.0147  0.1172
20890W        W41170  16.548   4.601   0.551  0.1394 -0.1445  0.1178
20891W        W41171   4.776   4.048   1.856 -0.0433 -0.0792  0.1112
20892W        W41172  13.976   3.491   4.196  0.1190 -0.0048 -0.0345
20893W        W41173  14.013   6.333   4.211 -0.1032  0.1669 -0.0530
20894W        W41174  17.171   0.938  14.938  0.3497 -0.0557  0.0612
20895W        W41175  17.014  13.888   0.193  0.2500 -0.1357 -0.0369
20896W        W41176   6.150   0.674  16.474 -0.0084 -0.0667 -0.0603
20897W        W41177   1.527   2.313  13.178 -0.1450 -0.0620 -0.1322
20898W        W41178  11.504   0.994   1.692 -0.0348  0.1924  0.0670
20899W        W41179  14.805   8.164   3.526  0.1820  0.1331 -0.1384
20900W        W41180  14.778   8.710  16.183 -0.2038  0.0894 -0.0077
20901W        W41181  16.144   8.071   0.038 -0.0893  0.0166 -0.1610
20902W        W41182  16.281  12.835  15.877  0.0747 -0.0835 -0.0046
20903W        W41183  12.359   9.303   0.084  0.1053 -0.0881 -0.3925
20904W        W41184  11.403  16.393   1.114 -0.0716 -0.1314 -0.3710
20905W        W41185  11.836  10.576   0.098 -0.1030 -0.0187 -0.2477
20906W        W41186  13.940   8.903   4.210  0.1574  0.0775 -0.0627
20907W        W41187   9.669   5.128  12.408 -0.0720  0.2635  0.1551
20908W        W41188   3.920   8.096  14.541 -0.1687  0.1103  0.0699
20909W        W41189   2.477   4.698  12.976 -0.0773  0.1181  0.0024
20910W        W41190  15.661  16.899  14.308  0.0337  0.1125 -0.1244
20911W        W41191   8.613   7.434  13.162  0.0400  0.1021 -0.2130
20912W        W41192   3.131   0.966   5.140  0.1272  0.0396  0.1826
20913W        W41193   0.460  15.878  13.895  0.2965 -0.0900 -0.1942
20914W        W41194   6.264   3.605   4.377 -0.1530  0.0343  0.0108
20915W        W41195   5.498   0.981   4.043 -0.0520 -0.0881 -0.1239
20916W        W41196  10.236   3.612  15.992  0.1219 -0.1258  0.0218
20917W        W41197  12.874  14.406   1.165  0.0965  0.3940 -0.0631
20918W        W41198   0.391   8.352  15.602  0.0926 -0.0076  0.0918
20919W        W41199   9.387  11.731   3.751 -0.1097 -0.1435  0.0139
20920W        W41200   4.499  15.981   2.198 -0.1445 -0.0200 -0.1014
20921W        W41201   2.572  12.691  12.577 -0.0896  0.2646 -0.0344
20922W        W41202  11.055  14.152   2.658 -0.0259  0.1818 -0.0837
20923W        W41203   9.375   5.115  13.879 -0.0549  0.0339 -0.0499
20924W        W41204  15.925  17.288   3.220 -0.1238 -0.1303  0.2148
20925W        W41205   8.185   7.213  13.024 -0.2001 -0.1003 -0.0242
20926W        W41206  11.923   8.279   0.460  0.1847  0.1349 -0.0874
20927W        W41207  11.316  14.352  16.847  0.1603 -0.0242 -0.0525
20928W        W41208  15.542   7.870  13.634  0.2235 -0.0242 -0.0349
20929W        W41209   8.719   2.669  15.043  0.0380 -0.0531 -0.2090
20930W        W41210   1.228   7.220  15.262 -0.3033  0.1036  0.0029
20931W        W41211  16.466   9.233  14.039  0.0390 -0.0952 -0.2673
20932W        W41212   1.233   6.697   1.123 -0.1242 -0.0704  0.1718
20933W        W41213   7.023  11.110   4.864  0.1583  0.0100 -0.0911
20934W        W41214  13.092   5.167   3.559  0.0592  0.0295 -0.4781
20935W        W41215  11.340  12.417  13.519 -0.0822  0.0668  0.3115
20936W        W41216   0.173  16.810   3.448 -0.0243 -0.1814  0.2087
20937W        W41217   7.638   1.420   0.027 -0.2476  0.1746 -0.0124
20938W        W41218   2.363   3.686   5.048 -0.3634 -0.0988 -0.0090
20939W        W41219  16.800  15.168  15.448  0.0155  0.0736  0.0388
20940W        W41220  10.628   8.490  14.382 -0.3288 -0.0187  0.1655
20941W        W41221   4.460  12.808  16.835 -0.0045  0.1250  0.0788
20942W        W41222  10.716  16.988   2.731 -0.1170 -0.0928  0.2635
20943W        W41223  11.893  11.998   0.651 -0.0705 -0.1676 -0.2131
20944W        W41224  11.863   0.296  13.460  0.0468  0.2781 -0.0515
20945W        W41225   6.967  11.292  15.494 -0.1414 -0.1956  0.1650
20946W        W41226  15.536  12.261   0.029 -0.1487  0.1032  0.1509
20947W        W41227   9.307  14.082   2.123 -0.1337 -0.2213 -0.0702
20948W        W41228  15.475   6.643   3.043 -0.2104  0.0909  0.2171
20949W        W41229  11.861   0.751   3.060 -0.2087 -0.0288 -0.2015
20950W        W41230  13.329   7.166  14.271  0.0202  0.1303  0.2680
20951W        W41231   9.860  14.368  13.913  0.2282  0.1773  0.4124
20952W        W41232  14.257   4.543  12.033  0.0508 -0.3295  0.4184
20953W        W41233   0.547  15.463   0.015  0.0346 -0.1681 -0.0508
20954W        W41234   9.739  16.903   4.237 -0.0018  0.0073  0.0574
20955W        W41235   7.509  15.308  15.215 -0.0120 -0.0623  0.1395
20956W        W41236   5.844   1.363   4.379  0.0861  0.2225  0.2373
20957W        W41237   1.902  11.342   4.264  0.0679  0.5370 -0.0534
20958W        W41238  12.209   7.590   4.484 -0.0058  0.1013  0.0317
20959W        W41239   9.554   0.573   0.462  0.1445  0.0148  0.0943
20960W        W41240  12.954   4.165   2.609 -0.2774  0.2667 -0.0740
20961W        W41241   8.293  16.080   0.389  0.2284  0.0897 -0.1581
20962W        W41242  13.336  10.443   1.971 -0.0687  0.0220  0.0940
20963W        W41243  14.301   7.563   4.036 -0.1015 -0.1384 -0.1735
20964W        W41244   9.520   8.901   4.315 -0.1881  0.2449  0.1792
20965W        W41245   5.457   0.465   3.312  0.0648 -0.4255  0.0170
20966W        W41246  15.769  14.092  14.967  0.0470 -0.0800 -0.0550
20967W        W41247   2.513  11.521   3.552 -0.0000 -0.0196 -0.0295
20968W        W41248   6.445  15.508  13.853 -0.3907 -0.1059  0.0832
20969W        W41249  10.703   1.411   1.242  0.0502  0.1883 -0.1854
20970W        W41250  16.159  17.693   2.360 -0.1340 -0.2528 -0.3088
20971W        W41251  14.323   8.869  15.892  0.3590 -0.3166  0.1278
20972W        W41252   4.508   6.179   4.724  0.2122  0.0484  0.0899
20973W        W41253   3.854  16.055  13.583  0.1644  0.1735 -0.0635
20974W        W41254  17.546   8.507  14.962  0.2755  0.0254  0.3427
20975W        W41255  16.236  16.679  12.548 -0.1093  0.0325 -0.1760
20976W        W41256  16.319   6.805  15.536  0.1378 -0.0317 -0.0312
20977W        W41257  12.917  15.855  13.973  0.0589  0.0979  0.2992
20978W        W41258  16.189  10.148   1.311 -0.0224 -0.2216  0.4368
20979W        W41259  14.588   0.435  12.840  0.0822  0.2941  0.6043
20980W        W41260   5.787   5.018  15.766  0.3044  0.0295  0.3340
20981W        W41261  17.248  13.143  14.759  0.1887 -0.1533 -0.1013
20982W        W41262  15.122  16.789   1.290  0.2154 -0.0092  0.1185
20983W        W41263   8.067  16.016   3.456 -0.0533 -0.2748 -0.0816
20984W        W41264   5.483   5.436   4.038 -0.0980 -0.0105 -0.1334
20985W        W41265  13.007   5.588  16.640  0.0019  0.2438  0.1340
20986W        W41266   6.901   1.376  14.831  0.0474  0.0186 -0.1950
20987W        W41267   7.479  15.216   4.473 -0.0716 -0.0109  0.0288
20988W        W41268  14.180  16.043  15.285 -0.1765 -0.5733 -0.1036
20989W        W41269   6.517  15.377  16.541  0.1874  0.1944 -0.0168
20990W        W41270   9.656  14.697   5.131  0.1500  0.0123  0.1594
20991W        W41271  15.946   9.879  15.831  0.0622  0.3584 -0.0706
20992W        W41272   3.310   0.968   0.103 -0.0241  0.1318  0.0779
20993W        W41273  14.097   3.064   3.982  0.1700 -0.3097  0.1961
20994W        W41274   6.902  13.527   0.275  0.1194 -0.3439  0.0117
20995W        W41275   2.128  10.602   3.323 -0.1700  0.0813  0.1866
20996W        W41276   4.718   0.961   4.988 -0.0219  0.0527  0.0114
20997W        W41277   5.594   2.846  13.037  0.0919 -0.2670 -0.2242
20998W        W41278  13.263   5.063  12.768 -0.0332 -0.0833 -0.1327
20999W        W41279   9.509   9.974  17.009  0.0718 -0.3106  0.0410
21000W        W41280  10.104  16.003   2.019 -0.1122  0.2691 -0.0118
21001W        W41281   3.690  13.714  14.065  0.3254  0.1263 -0.0662
21002W        W41282  17.369  13.658  16.299  0.2403  0.1244 -0.3351
21003W        W41283   9.256   3.862   0.117  0.2217 -0.2235 -0.3559
21004W        W41284   0.414   1.167   1.646 -0.2936 -0.1130 -0.0658
21005W        W41285  12.678  16.929   2.146 -0.3220  0.1658  0.0382
21006W        W41286   1.185   5.272  16.346 -0.0313 -0.0190 -0.0203
21007W        W41287   7.051  11.168  13.395  0.0687 -0.1186  0.0689
21008W        W41288  13.544   2.064  12.561 -0.0525 -0.1287 -0.1365
21009W        W41289  12.810   5.059   3.167  0.1417  0.0035 -0.0124
21010W        W41290  15.803   5.184  13.465  0.0005  0.0736 -0.0802
21011W        W41291   6.956   8.859   2.978  0.0101  0.0191 -0.1250
21012W        W41292  16.130   8.976  16.088  0.0712 -0.1538  0.1830
21013W        W41293   8.943   0.578   4.442 -0.0934  0.0367  0.0792
21014W        W41294   8.778   7.097   1.941  0.2076 -0.1305 -0.0492
21015W        W41295  16.681   4.226  13.715 -0.0457  0.0704 -0.2257
21016W        W41296  16.631  10.008  13.546 -0.2738  0.2864 -0.4788
21017W        W41297   2.063   6.046  15.848  0.0194 -0.1737 -0.0075
21018W        W41298  11.142  13.451   1.553 -0.0281  0.3221  0.0889
21019W        W41299  12.028   6.668  15.691 -0.0539  0.1056  0.2775
21020W        W41300  14.713   8.826  13.489  0.0178 -0.1698  0.0758
21021W        W41301   7.091  10.251   0.086 -0.4101 -0.0896  0.1316
21022W        W41302   0.109   2.166   2.302  0.1398 -0.1972  0.1868
21023W        W41303   6.750  10.279  16.248  0.0998  0.0642  0.0447
21024W        W41304  13.482   7.962  12.808 -0.2241  0.0606 -0.1036
21025W        W41305  12.572   8.300   4.096 -0.0466 -0.1788 -0.2051
21026W        W41306   5.179  17.444  13.610  0.2401 -0.0583 -0.1098
21027W        W41307   8.897   0.348   5.550  0.0006  0.2278  0.2845
21028W        W41308  15.736   2.197   0.921 -0.1022 -0.3017 -0.0014
21029W        W41309   1.563   2.773  15.326 -0.0429 -0.0239 -0.0206
21030W        W41310   7.825  14.605   2.724  0.3070 -0.0797 -0.1120
21031W        W41311   5.563   1.821  15.864  0.2970  0.1160 -0.1327
21032W        W41312  13.230   4.048  16.077  0.3647  0.1011 -0.1918
21033W        W41313  14.210   4.272   0.775  0.1522  0.0164  0.1889
21034W        W41314  17.298   3.536  13.830 -0.1782  0.0129  0.0183
21035W        W41315   3.530  10.152  13.253  0.5046  0.0608  0.2731
21036W        W41316   5.134   8.599   2.059 -0.0564 -0.0735 -0.1023
21037W        W41317   5.361  13.066   5.002  0.5330 -0.0513 -0.1539
21038W        W41318  11.807   9.844  15.249 -0.1539 -0.3146  0.2707
21039W        W41319  15.571   9.464   1.991 -0.0463 -0.2155 -0.0121
21040W        W41320   0.327   9.112  14.052 -0.1320 -0.1342 -0.0174
21041W        W41321   9.524   3.745   1.791 -0.1858  0.1571 -0.0373
21042W        W41322   6.356  14.152  12.335  0.2030  0.1581 -0.1500
21043W        W41323  10.885   2.175   3.479 -0.1044 -0.0513  0.2878
21044W        W41324  10.118   6.419   3.312  0.2231  0.0068 -0.0423
21045W        W41325  12.780   1.649   0.498  0.1710 -0.0357 -0.0079
21046W        W41326   2.697  12.892  11.341 -0.1660 -0.2536 -0.1545
21047W        W41327   1.552   1.691   4.308 -0.0988 -0.2068 -0.1216
21048W        W41328   2.157   8.963  13.563  0.0693  0.0041 -0.0232
21049W        W41329   5.198  16.447  12.763 -0.1356 -0.0102 -0.3430
21050W        W41330  12.354   8.030   1.127 -0.0912  0.2856  0.0368
21051W        W41331   2.768  14.115   1.736 -0.1302  0.1590  0.1492
21052W        W41332   0.204   6.446   2.896  0.1987 -0.2018 -0.0485
21053W        W41333   0.254   8.155   3.547  0.1554  0.0194 -0.0227
21054W        W41334   7.809  16.831   3.525  0.0052 -0.0782  0.1120
21055W        W41335   7.355   6.828  14.568 -0.3118  0.1079  0.2335
21056W        W41336  16.573  14.496  13.966  0.1462 -0.0829 -0.2361
21057W        W41337  14.690   0.989  13.499 -0.1806  0.0733 -0.2481
21058W        W41338   3.311   4.785  16.975  0.2518  0.0089  0.1966
21059W        W41339   8.009  14.105   3.552  0.0816  0.0161 -0.2181
21060W        W41340   2.333  16.534  13.461 -0.0359  0.2478  0.1746
21061W        W41341  13.511  16.641  15.823 -0.0917 -0.0900 -0.2130
21062W        W41342   6.308  14.417   2.958  0.2429  0.2139 -0.2438
21063W        W41343   5.860   1.873  12.980  0.0631 -0.0527 -0.2678
21064W        W41344  13.212  14.202  11.840  0.3264 -0.1945 -0.1206
21065W        W41345   1.995   2.147  12.963 -0.2643 -0.1854 -0.2535
21066W        W41346  15.054  17.576  12.523 -0.2274  0.0632  0.1194
21067W        W41347  13.400   7.558   3.685 -0.0004 -0.1381  0.0797
21068W        W41348   2.259   0.960   1.847  0.2029  0.2785  0.0731
21069W        W41349   7.153   2.377   3.598 -0.0592  0.3427 -0.1266
21070W        W41350   0.681  10.852  14.317  0.1802 -0.0011 -0.2421
21071W        W41351   7.103   2.254  12.647 -0.1248 -0.0348  0.1328
21072W        W41352   1.940  13.538   3.017 -0.0568  0.2567  0.2549
21073W        W41353   0.917   4.262  12.839 -0.0206 -0.1003  0.2124
21074W        W41354  14.239   7.848  12.230 -0.1612 -0.0315  0.2725
21075W        W41355  10.561  10.032  13.735 -0.2869  0.0801 -0.1782
21076W        W41356  13.569  10.140   1.558 -0.4274 -0.1832  0.3296
21077W        W41357  14.507   5.771  14.072 -0.0231 -0.3761 -0.0455
21078W        W41358  10.442  13.789   0.699 -0.2022  0.1476 -0.0657
21079W        W41359   1.452   3.111   2.096  0.2724 -0.0733 -0.0368
21080W        W41360  15.490  15.556  14.824  0.0655 -0.0225  0.0593
21081W        W41361   7.313  11.662  14.286 -0.0461 -0.0837  0.0418
21082W        W41362  16.655   6.940  15.189  0.0650 -0.0849  0.1962
21083W        W41363  11.035  12.585  11.717 -0.0916 -0.1478 -0.3011
21084W        W41364   8.886  12.097   2.699  0.0186  0.0634 -0.0031
21085W        W41365   3.295   7.851  12.405  0.0676 -0.2637  0.1794
21086W        W41366   9.989   8.031   1.251  0.4026 -0.0237 -0.0735
21087W        W41367  10.634  13.711   5.004  0.2104  0.0005  0.2400
21088W        W41368   3.753   3.678  15.346  0.1950  0.1664  0.1002
21089W        W41369   2.171   4.041   3.564  0.1357 -0.2562 -0.4045
21090W        W41370   2.857   4.116   0.108 -0.2612  0.1079  0.0693
21091W        W41371  16.857  10.460  16.820  0.2236 -0.1207  0.0786
21092W        W41372   2.693  16.378  16.134 -0.0213 -0.0909 -0.2167
21093W        W41373  10.645   7.759   4.965 -0.2236 -0.2264 -0.0417
21094W        W41374   4.993   5.708   2.598  0.1810  0.1193  0.2699
21095W        W41375  15.678  10.166   1.314  0.2066 -0.0072  0.1807
21096W        W41376   0.153  15.068  14.307  0.5294  0.0462  0.2372
21097W        W41377  17.304   2.659  12.981 -0.0623 -0.2266 -0.3485
21098W        W41378  10.183   3.986  12.978 -0.4107  0.0466 -0.1676
21099W        W41379   8.110  14.117  16.602 -0.0217  0.0806  0.0776
21100W        W41380   3.143  12.809   1.910 -0.0987 -0.1850 -0.1885
21101W        W41381   1.953  11.386  15.460 -0.0134 -0.1435 -0.1042
21102W        W41382   2.561   2.893   4.598  0.0662 -0.0708 -0.0675
21103W        W41383   4.202  10.032   1.958 -0.3061 -0.0593 -0.0699
21104W        W41384   3.273   5.942  13.567 -0.5022 -0.3065  0.0293
21105W        W41385  11.500   7.681  14.372  0.1863  0.1675  0.1039
21106W        W41386   1.319  14.432  15.091 -0.2788 -0.3130 -0.0126
21107W        W41387   0.339   2.428  16.950  0.0316  0.4931  0.1394
21108W        W41388  15.150   7.946  16.583 -0.1743  0.0008 -0.0279
21109W        W41389   7.519   9.117   1.407 -0.3872 -0.1802  0.1822
21110W        W41390  11.133  13.862  11.908 -0.1399 -0.5001 -0.0555
21111W        W41391   3.457  16.651   4.236 -0.3194 -0.2157  0.1356
21112W        W41392  11.099  10.827  13.839  0.2471 -0.0496  0.0706
21113W        W41393  11.075   7.238  14.259 -0.1389  0.2190  0.0196
21114W        W41394  14.379  16.558   2.408  0.0274  0.0112 -0.1091
21115W        W41395   7.679   7.394   3.355 -0.1892 -0.0018  0.1560
21116W        W41396   7.898   3.423  13.003  0.2460 -0.5209 -0.2163
21117W        W41397   2.651  10.631   2.261  0.0403  0.0585 -0.2951
21118W        W41398   1.081   0.602   3.747  0.1289  0.0833  0.0844
21119W        W41399   8.759   3.978  13.743 -0.0244 -0.2225 -0.3636
21120W        W41400   1.372   6.488   3.725  0.0098  0.0791  0.4071
21121W        W41401   6.475  13.742  13.190  0.3887 -0.0842 -0.0379
21122W        W41402   2.880  15.477  16.619 -0.1407  0.3142  0.3944
21123W        W41403  16.289  17.183  12.133  0.2708  0.0461  0.1315
21124W        W41404   3.036  13.738   1.431  0.1729  0.3455 -0.0860
21125W        W41405   3.308  17.287   0.242  0.2462  0.0605 -0.1103
21126W        W41406  13.025  15.715  16.531 -0.3479 -0.0281 -0.1868
21127W        W41407   4.906  12.918  12.273 -0.1349 -0.1670 -0.1467
21128W        W41408   6.797   2.001  14.769 -0.1913 -0.3156 -0.1582
21129W        W41409   6.988   5.253  14.387 -0.3198  0.2728  0.3176
21130W        W41410  16.339  13.244   1.257 -0.0123  0.1031 -0.4501
21131W        W41411   8.417  15.724   4.099  0.0050 -0.0308  0.0570
21132W        W41412   9.057   3.020  14.167 -0.0127  0.0854  0.0494
21133W        W41413   0.208   0.337   0.611  0.1533  0.0859  0.1785
21134W        W41414  17.298   1.702  13.039 -0.1346 -0.1820  0.0040
21135W        W41415  12.177   3.640   4.068 -0.0758 -0.2221 -0.0298
21136W        W41416  12.512   6.881   3.029 -0.0153 -0.1416  0.2101
21137W        W41417   0.259   5.377  12.769  0.2048  0.1565 -0.2280
21138W        W41418  10.842   3.741  12.515 -0.1503 -0.0264 -0.3439
21139W        W41419   7.283   5.193   1.822  0.1139 -0.1495  0.2467
21140W        W41420   7.183   9.930  14.718 -0.2598  0.1827  0.3642
21141W        W41421   8.546  10.689  14.665 -0.3378 -0.0060 -0.0347
21142W        W41422   0.288  17.190  14.349 -0.0152  0.0130  0.0805
21143W        W41423  11.801   0.958  12.724  0.2034 -0.2272 -0.0479
21144W        W41424   9.486  17.139  12.208  0.4855  0.0534 -0.3303
21145W        W41425   6.686  12.958  13.441  0.0721  0.2283 -0.2015
21146W        W41426  10.695   2.308   0.272  0.1098 -0.0659 -0.1919
21147W        W41427   6.402   4.426  12.743  0.1645  0.2450  0.0141
21148W        W41428  11.060  10.164  13.875 -0.0488  0.2715  0.1706
21149W        W41429   8.151   4.984  16.124 -0.0622 -0.0066 -0.0813
21150W        W41430  13.284  13.049  16.258  0.1161  0.1590  0.0365
21151W        W41431   6.047  16.986  15.130  0.1744  0.1455  0.1439
21152W        W41432   1.197   4.032  15.074 -0.0534  0.1571  0.1506
21153W        W41433   7.719   0.645   3.222  0.0360 -0.0355 -0.1097
21154W        W41434   5.735   8.909   2.203 -0.1114 -0.2706 -0.0026
21155W        W41435   1.715   4.371   3.420  0.0738 -0.1004  0.1647
21156W        W41436   7.191  10.216   3.777 -0.4878  0.1685 -0.3395
21157W        W41437  13.516  14.463  15.776  0.2181 -0.1265  0.1600
21158W        W41438  13.753  14.771  16.591  0.0267 -0.0713 -0.1328
21159W        W41439   5.468   8.967  13.151 -0.0784  0.0324 -0.0112
21160W        W41440   7.954   7.708  12.238 -0.2215  0.2768  0.0119
21161W        W41441  15.871  15.110  16.698  0.2090  0.2102  0.0345
21162W        W41442   6.173   5.195   2.422  0.0495 -0.0973 -0.0599
21163W        W41443   7.748   4.038  14.216 -0.1424  0.1840  0.1521
21164W        W41444   3.665  10.261   1.901 -0.0048  0.0151  0.1487
21165W        W41445   8.426   1.145  12.737  0.0572 -0.0404 -0.0320
21166W        W41446   9.325   9.552  14.713  0.2166  0.0059  0.0051
21167W        W41447   9.908  11.695   4.586  0.1106 -0.1221  0.0880
21168W        W41448   0.489   3.618  13.242  0.1925 -0.1208  0.0000
21169W        W41449  15.266   3.063   1.421 -0.2163  0.0366  0.0689
21170W        W41450   3.167   8.858   0.571  0.1595  0.2277 -0.1862
21171W        W41451   4.914   6.621   3.738 -0.0854  0.0246  0.3783
21172W        W41452   3.895  12.004   2.904  0.3577  0.0908 -0.1895
21173W        W41453   4.487  10.530   1.320  0.1748 -0.0324  0.0268
21174W        W41454   5.249  15.350  14.576  0.4399 -0.0861  0.1198
21175W        W41455  15.737  12.186  13.871 -0.1337 -0.2436 -0.0505
21176W        W41456   4.968   9.500  13.782 -0.1382 -0.0098 -0.1561
21177W        W41457   5.683   2.473   4.188  0.0051  0.1685  0.1157
21178W        W41458   5.241   2.519   3.912 -0.3930  0.0729 -0.3139
21179W        W41459  16.007   1.717  16.240 -0.0589 -0.2574 -0.1617
21180W        W41460  17.580  11.318   4.720  0.2143 -0.0572 -0.3547
21181W        W41461   0.640  13.771   3.950  0.0501 -0.3643 -0.2143
21182W        W41462   7.212   3.100  12.858  0.1553 -0.3725 -0.1584
21183W        W41463   6.033   7.924  13.929 -0.0005  0.1794 -0.2625
21184W        W41464   6.528   2.620  12.148  0.1378  0.0359  0.2397
21185W        W41465   4.443   6.452   1.925 -0.0934 -0.1327 -0.0586
21186W        W41466  10.905  16.264   4.453  0.2341 -0.0446  0.2414
21187W        W41467  14.690   7.935   4.600  0.1412  0.1206  0.0929
21188W        W41468  11.817  10.656  15.698 -0.1863  0.0524 -0.0721
21189W        W41469   8.589  14.291   2.086 -0.0045 -0.1294  0.0633
21190W        W41470   2.613  12.325  15.105 -0.0742  0.2224  0.2053
21191W        W41471  14.755  16.191   0.064 -0.0862  0.5709 -0.0787
21192W        W41472   3.069  16.209   2.307 -0.0446  0.0182  0.1214
21193W        W41473   7.077  12.855  14.808  0.1040 -0.3066  0.0179
21194W        W41474  12.543   8.114   2.513 -0.2825 -0.0706  0.2121
21195W        W41475   8.662   0.393  13.958  0.0042  0.2194 -0.2199
21196W        W41476  17.148  14.275   4.927  0.1440  0.1299  0.0087
21197W        W41477   2.130  10.082  16.604  0.0891 -0.1847  0.0944
21198W        W41478   7.377  16.270  15.186  0.1973  0.2406  0.0907
21199W        W41479   2.858  16.676   3.485 -0.3339 -0.0558 -0.0272
21200W        W41480  13.020   1.858   3.148  0.1348  0.1111 -0.1754
21201W        W41481   3.326  13.384   5.493 -0.0381  0.2273 -0.0312
21202W        W41482  17.256   0.897   2.336  0.0646  0.1170  0.1938
21203W        W41483  13.802   2.539  16.454 -0.0973  0.0740 -0.2276
21204W        W41484   9.099  15.220  15.412 -0.0061  0.1605 -0.1659
21205W        W41485   7.204  12.550   1.816 -0.2102  0.0661 -0.1021
21206W        W41486   5.231   5.275   2.471 -0.0911  0.1427  0.1475
21207W        W41487   4.467  12.189  12.696 -0.0324  0.3069 -0.1074
21208W        W41488   3.043  15.020  15.067  0.1338 -0.0492  0.2405
21209W        W41489   7.034   1.404   5.298  0.1396 -0.1492 -0.1346
21210W        W41490   3.649   5.796  13.245  0.2094 -0.0606  0.2099
21211W        W41491   1.482   5.893   0.998  0.3605  0.0873  0.1883
21212W        W41492  16.040   1.297   5.863 -0.1725 -0.0818 -0.5327
21213W        W41493   3.285   9.482   2.996  0.2132  0.0682  0.1078
21214W        W41494  16.973   9.262  14.033 -0.0354 -0.0011 -0.1568
21215W        W41495   4.036   0.395  12.142  0.1409 -0.0055  0.1331
21216W        W41496  14.959  13.050  16.925  0.4544 -0.1963 -0.0549
21217W        W41497  14.317   4.287  15.369 -0.3144 -0.2281  0.0359
21218W        W41498  12.348   4.186  15.569 -0.1725 -0.1231  0.1622
21219W        W41499   7.158   8.376   0.276  0.0337 -0.1999  0.1721
21220W        W41500  16.790   4.781  13.236 -0.2572  0.3572 -0.2232
21221W        W41501   8.400  10.076   4.997 -0.0620 -0.3618 -0.0926
21222W        W41502  14.654  13.718  15.543 -0.1181 -0.0259 -0.1705
21223W        W41503   9.979   8.085  14.817  0.1481 -0.0500  0.1718
21224W        W41504  11.378   6.547  14.440 -0.0711 -0.2401  0.3371
21225W        W41505  17.216   8.159  12.540 -0.1171  0.1606  0.2150
21226W        W41506  10.498   3.379   4.479  0.0650  0.1996  0.0282
21227W        W41507  12.822   2.944  13.745 -0.0506 -0.0576 -0.3113
21228W        W41508   9.983   2.846  15.428  0.3892 -0.0084 -0.0853
21229W        W41509   0.898  12.602  14.615 -0.0836  0.0406  0.0696
21230W        W41510   4.881   9.700  15.828 -0.1604 -0.0852 -0.0891
21231W        W41511   9.013   7.233  13.711  0.0284  0.0125 -0.1430
21232W        W41512  14.528  11.844  12.265 -0.1899  0.4304  0.1119
21233W        W41513   5.770  12.499   0.178 -0.0901 -0.0249  0.0049
21234W        W41514  16.429   0.664   2.915  0.2499  0.0962  0.1163
21235W        W41515  12.513   2.820   1.391 -0.0043 -0.1851 -0.1166
21236W        W41516   4.337   4.901  16.872  0.1894 -0.1006 -0.4283
21237W        W41517  10.729  11.537   0.377 -0.0190  0.1755 -0.0046
21238W        W41518   0.377   9.711   5.180  0.3248 -0.1432 -0.0765
21239W        W41519   5.479   3.062   4.589  0.0532 -0.0351 -0.0843
21240W        W41520  13.733  13.394   2.153 -0.1034 -0.0643  0.2440
21241W        W41521  16.133  12.197  15.905 -0.0685  0.3032 -0.1722
21242W        W41522   3.288   2.080  12.190 -0.1047 -0.0266 -0.0358
21243W        W41523  15.293  10.616  12.426  0.1084  0.1230  0.0705
21244W        W41524  12.443   2.587  12.776 -0.1998 -0.0419 -0.1131
21245W        W41525  15.528  17.413   3.504  0.0115 -0.1314 -0.0452
21246W        W41526   6.548   5.570  14.235  0.1401  0.1027  0.0563
21247W        W41527   1.330  14.200  14.587 -0.1802 -0.0135 -0.1326
21248W        W41528   3.362   9.235   5.066  0.0377 -0.0129 -0.0905
21249W        W41529  13.294   1.054  15.432 -0.1034  0.0605  0.3176
21250W        W41530  11.659   1.528   1.379 -0.3650  0.0767  0.2636
21251W        W41531  14.662   1.799  14.770 -0.1927 -0.0956 -0.4271
21252W        W41532   7.808  10.790  12.112 -0.0312 -0.1142 -0.2948
21253W        W41533   6.268   3.460   3.688  0.2615  0.1161 -0.0311
21254W        W41534  11.335  14.294  15.893  0.0690  0.1204 -0.0230
21255W        W41535   2.786   3.800   4.558 -0.1383  0.1560  0.1410
21256W        W41536   6.117   6.671  16.543  0.3014 -0.1429 -0.0176
21257W        W41537  11.891   4.913   1.963 -0.1250 -0.1576 -0.2832
21258W        W41538   5.119  17.190  12.291  0.0879 -0.1421  0.0069
21259W        W41539  10.577   1.615  15.277 -0.0236 -0.1045 -0.2090
21260W        W41540  15.309   9.910  13.110 -0.0362 -0.4182 -0.0113
21261W        W41541   9.200   2.744   2.276 -0.2284 -0.1910 -0.0351
21262W        W41542  11.016   6.936   4.958 -0.1659 -0.1753  0.0237
21263W        W41543   9.358   5.007   2.539 -0.2332  0.2484  0.1117
21264W        W41544  10.754   1.696   0.812 -0.0219  0.2283 -0.2917
21265W        W41545   1.893  10.701  12.826 -0.3714 -0.3390  0.1673
21266W        W41546  14.764   2.546   4.032  0.2051 -0.2074 -0.2675
21267W        W41547   9.875  11.530  13.631 -0.0911  0.2348 -0.2234
21268W        W41548   9.103  17.726  15.063 -0.3167  0.0770 -0.2226
21269W        W41549  10.438   4.322  13.359 -0.1770  0.3639  0.3544
21270W        W41550   6.117   8.957  14.554  0.0358 -0.0025  0.0374
21271W        W41551   3.846   5.709   3.837  0.2370  0.2915  0.2568
21272W        W41552   4.029  12.061  13.581 -0.0307  0.1464  0.1486
21273W        W41553   8.670   7.114  15.285  0.1529 -0.1306  0.1693
21274W        W41554   5.473   4.504  15.615  0.0333 -0.0782 -0.0593
21275W        W41555   0.411  13.214   2.429 -0.0199  0.0822 -0.0070
21276W        W41556  13.869  17.108   0.720 -0.0891  0.1166  0.0116
21277W        W41557   1.522   2.909  13.043 -0.1364 -0.1239 -0.1025
21278W        W41558  11.390  13.586   3.208 -0.0633  0.2991  0.3641
21279W        W41559  12.605   8.977   3.065 -0.0434  0.0045 -0.2012
21280W        W41560  13.237   5.997   4.030  0.0078  0.1017  0.2433
21281W        W41561  10.041  12.820  13.341  0.2467 -0.1032  0.0102
21282W        W41562   6.204   2.174   0.676 -0.0538 -0.0887 -0.1417
21283W        W41563  12.747  14.989   4.198  0.2699 -0.1532  0.1260
21284W        W41564  10.610  14.815  16.592  0.1505 -0.0935 -0.0063
21285W        W41565   2.688  15.952  14.945 -0.1733  0.0445  0.1457
21286W        W41566  13.338   8.365  13.065  0.0165 -0.0383  0.2776
21287W        W41567  11.541  15.848  12.288 -0.1962 -0.0576  0.0807
21288W        W41568   2.041   3.826   0.126  0.2606 -0.0562 -0.0839
21289W        W41569   8.641   7.428  14.373 -0.0245  0.0217  0.3309
21290W        W41570  13.625   6.916  14.838  0.1898 -0.1379 -0.3668
21291W        W41571   0.426  15.381  16.021 -0.0079 -0.3520  0.0972
21292W        W41572   6.005  11.855   1.719  0.2307 -0.2505  0.0800
21293W        W41573  10.992   0.218  12.911  0.1129 -0.3326 -0.1452
21294W        W41574   7.355   5.130   1.199  0.1347 -0.0029 -0.2542
21295W        W41575   5.718   4.741   0.110  0.1345  0.1313 -0.1169
21296W        W41576  14.756   2.626  16.255  0.1105 -0.1761 -0.0142
21297W        W41577  14.394  16.236  16.731 -0.0060  0.0941  0.0045
21298W        W41578  17.452   2.915  12.514  0.0409 -0.0439  0.0911
21299W        W41579   9.429  11.770   1.442 -0.0777  0.2563 -0.2729
21300W        W41580  16.828  11.915   1.884  0.2135 -0.0394 -0.0281
21301W        W41581   4.680   9.019   3.505  0.3109  0.0847  0.0384
21302W        W41582   0.504  10.065   2.245 -0.2211 -0.0081  0.0132
21303W        W41583  10.695  15.486  12.079  0.1115 -0.0028 -0.0485
21304W        W41584   4.947  13.659  11.176 -0.0334 -0.0609 -0.0748
21305W        W41585  15.550   5.901  12.718  0.2620 -0.5253  0.2226
21306W        W41586  16.635  14.705  15.649 -0.0390 -0.0915 -0.4633
21307W        W41587  17.310   5.525   2.867 -0.0808 -0.1889  0.0071
21308W        W41588  17.496  16.799   3.688 -0.2582 -0.1309  0.1484
21309W        W41589   8.006   4.293   4.538  0.1938 -0.0650  0.0517
21310W        W41590  10.518   3.179   1.257  0.1560  0.1367  0.0548
21311W        W41591   6.238  16.521   4.977  0.1348 -0.0668  0.1826
21312W        W41592   1.666   9.262   1.413 -0.1406 -0.0354 -0.0934
21313W        W41593  10.636  14.122   1.501  0.3651 -0.0556  0.2624
21314W        W41594   0.161  10.781   0.814 -0.1264  0.1662  0.0176
21315W        W41595  16.144   7.329  12.313  0.3251  0.1238  0.2233
21316W        W41596  14.489   7.109  15.694 -0.1365 -0.1331  0.0194
21317W        W41597   9.251   5.113   1.298  0.3943 -0.1381  0.1715
21318W        W41598  15.299   5.697  12.298 -0.0410  0.2441  0.0512
21319W        W41599  14.093   0.001   4.179  0.0496  0.1044 -0.1394
21320W        W41600  11.843  11.714   1.651  0.2395  0.0405  0.0918
21321W        W41601  14.363   1.907  12.296  0.1137  0.1468  0.0451
21322W        W41602   8.513   0.546   2.510 -0.1660  0.2109 -0.1218
21323W        W41603  17.732   7.984   0.804  0.2954 -0.0164  0.0907
21324W        W41604   2.816   7.418   2.299 -0.2615 -0.1192  0.0688
21325W        W41605   2.606   5.249  12.370  0.0570 -0.0900 -0.0683
21326W        W41606  14.279  12.514  14.211  0.2141 -0.0968  0.1215
21327W        W41607   0.463  13.248   3.136  0.2369  0.1361  0.2067
21328W        W41608  15.037  10.465   0.666 -0.1145  0.0431 -0.1196
21329W        W41609   1.625  10.034   3.654  0.0315  0.1726 -0.0036
21330W        W41610   2.991  13.495  13.902  0.3447  0.1192  0.2262
21331W        W41611  12.876   5.981   0.797 -0.0795  0.1330 -0.0919
21332W        W41612   0.415   8.565   1.903  0.0002  0.0389  0.0583
21333W        W41613  14.898  12.606   3.109  0.1514 -0.0022  0.2142
21334W        W41614  14.317  14.625   1.712  0.0402  0.0065 -0.2450
21335W        W41615   9.611   8.372  12.865 -0.0214 -0.1063  0.0657
21336W        W41616   9.740  11.378  15.860 -0.0051  0.4087 -0.2026
21337W        W41617   4.313  10.817   4.199 -0.0006 -0.0107  0.2763
21338W        W41618   1.007  12.363  16.128 -0.2659  0.1097  0.1770
21339W        W41619   0.704   3.399  15.659  0.0739  0.0955  0.0782
21340W        W41620  14.737   9.145  15.946 -0.2004 -0.1962 -0.0888
21341W        W41621  13.000  17.094   4.739 -0.1014 -0.1058 -0.1213
21342W        W41622   8.474  10.799   0.840  0.1286  0.2238  0.1403
21343W        W41623   3.261  15.984   3.600 -0.3115 -0.0323  0.1033
21344W        W41624   2.413  14.588  16.766  0.4119 -0.3348 -0.0457
21345W        W41625   4.504   5.631   2.996  0.1841 -0.2211  0.0626
21346W        W41626   4.115   7.083   0.562 -0.0363 -0.0549 -0.0915
21347W        W41627  11.130   6.651  15.262  0.2767  0.1960 -0.1728
21348W        W41628  16.926   4.202   4.952 -0.0698 -0.0375 -0.1635
21349W        W41629   4.357  13.547  16.531  0.1464  0.0075 -0.2781
21350W        W41630   3.637   0.655   4.095  0.3290  0.0162  0.3446
21351W        W41631  14.318   2.685   2.551 -0.1119  0.0472 -0.4095
21352W        W41632  15.712   3.400   3.347  0.1328 -0.2503  0.1041
21353W        W41633   1.353   4.616   4.281  0.3328 -0.0964 -0.1234
21354W        W41634   1.482   1.816  16.467  0.1783  0.1204  0.0996
21355W        W41635   9.088  14.907   4.738 -0.3294  0.0018  0.0763
21356W        W41636   2.619   8.036   3.342 -0.0520  0.3477 -0.2305
21357W        W41637  14.947   3.576   5.338 -0.0581  0.0826 -0.5270
21358W        W41638  17.641   8.396  12.801 -0.0704 -0.0417 -0.0856
21359W        W41639  13.269   7.381  16.171 -0.1473 -0.2182  0.3887
21360W        W41640  11.879   8.866  14.835 -0.1042  0.1550  0.1476
21361W        W41641  15.082  14.823   2.895  0.0863 -0.1921 -0.1743
21362W        W41642   0.613   5.971  16.981  0.0254 -0.0152 -0.0555
21363W        W41643  10.679  15.329   2.572 -0.0858 -0.0929  0.0617
21364W        W41644   1.935   7.499   3.818  0.2654 -0.1066 -0.2462
21365W        W41645  16.992  13.280   2.472  0.3572 -0.1074  0.1841
21366W        W41646   8.946   1.292  14.245 -0.1319  0.2644 -0.3940
21367W        W41647   4.895   5.489  14.260  0.0958 -0.0285  0.2495
21368W        W41648   2.472  16.153   2.549  0.0722  0.3132  0.1626
21369W        W41649   3.019   6.796  12.911  0.2629 -0.2411 -0.2695
21370W        W41650   3.299   8.358  14.038  0.1806 -0.1857 -0.3168
21371W        W41651   8.729   1.253   1.882 -0.0534  0.0664  0.0303
21372W        W41652   2.118  12.091   2.661 -0.0379  0.0063 -0.2158
21373W        W41653   2.546   9.283  14.625  0.4457  0.1773  0.2083
21374W        W41654   6.523  14.831  13.714  0.0590  0.1057  0.0644
21375W        W41655  15.996   9.164   4.514 -0.1837 -0.2744 -0.3670
21376W        W41656  10.117  15.898  14.834 -0.0017 -0.2739  0.2083
21377W        W41657  10.572  16.161   2.110 -0.1261 -0.0020 -0.0648
21378W        W41658  10.408  11.348   3.593 -0.0504  0.2622  0.0182
21379W        W41659   0.932   6.500  16.257 -0.1526 -0.0183  0.0160
21380W        W41660  17.420   9.433   4.452 -0.0144 -0.2215  0.1994
21381W        W41661   3.894   8.095   2.746 -0.2607 -0.1278 -0.1091
21382W        W41662  16.809   5.700   3.111 -0.0490 -0.0300  0.0194
21383W        W41663   6.040  10.761  13.607  0.0394  0.0337 -0.2970
21384W        W41664   1.170   2.739  15.046  0.3461 -0.1439  0.0733
21385W        W41665   6.763  13.158  14.428  0.0114  0.1465  0.1233
21386W        W41666   4.462  11.132   0.768 -0.3439  0.1917  0.0026
21387W        W41667  10.040   4.313   0.566  0.0479  0.1066  0.1285
21388W        W41668  13.801   5.910  14.045  0.2135 -0.2671 -0.0512
21389W        W41669   7.804   1.179   3.063 -0.2710  0.1265 -0.0695
21390W        W41670  11.242  13.160  16.480 -0.2442 -0.0864  0.0051
21391W        W41671   7.794   5.425  14.156 -0.2374 -0.4903 -0.3076
21392W        W41672  12.575   5.044   4.642 -0.1255  0.0854 -0.0436
21393W        W41673   6.054  13.573   2.033  0.0065  0.1917 -0.0444
21394W        W41674   2.564  10.943  15.528  0.0328 -0.0575  0.2590
21395W        W41675   6.824  13.457  15.394  0.0480  0.1074 -0.2381
21396W        W41676  16.330   1.193   1.231 -0.0461  0.0870 -0.1209
21397W        W41677   4.641  13.719   2.129 -0.0431 -0.0948 -0.1357
21398W        W41678   0.876   0.394   1.967 -0.0505 -0.2394 -0.0560
21399W        W41679   8.739  11.176   3.941  0.0979 -0.1971  0.0009
21400W        W41680  12.939   9.756   0.387 -0.1189 -0.1518 -0.2046
21401W        W41681  10.350  14.958   4.690 -0.2411  0.2581 -0.2541
21402W        W41682  11.460   7.856  17.020  0.0123  0.1399 -0.1533
21403W        W41683  11.402   2.768  14.944 -0.1373  0.0001  0.0164
21404W        W41684   4.398   5.307  12.289 -0.2517 -0.3454  0.0127
21405W        W41685   8.026   0.410  13.783  0.2835  0.2292  0.0255
21406W        W41686   7.282  11.991   3.282  0.2048 -0.1722  0.1983
21407W        W41687   1.850   8.307  15.716 -0.2593 -0.0021 -0.1241
21408W        W41688   9.200   5.836   0.562 -0.2950  0.1138 -0.0828
21409W        W41689  13.528   4.770   2.466 -0.1491  0.1823 -0.0462
21410W        W41690   4.084  12.472  13.386  0.4000 -0.2769 -0.1437
21411W        W41691  13.833  13.403   4.406  0.0836  0.1269  0.1425
21412W        W41692   4.722   9.451  15.052  0.3072 -0.5756 -0.3115
21413W        W41693   9.471  11.167   2.604 -0.2047  0.4855 -0.0459
21414W        W41694   9.294  13.488   4.678 -0.2244  0.0251  0.0125
21415W        W41695   8.016   8.872  13.015  0.1439  0.1004  0.2453
21416W        W41696  15.346   9.564   1.486  0.0354  0.1093 -0.0579
21417W        W41697  10.492  14.365   1.938  0.0046  0.0030  0.1748
21418W        W41698   1.241   7.989   1.416  0.3491  0.0385  0.1759
21419W        W41699  14.775   7.628  16.801  0.0728  0.1483 -0.1511
21420W        W41700   8.546   7.813  12.172  0.1208  0.1031 -0.0516
21421W        W41701  15.104   6.245   0.263  0.0827  0.2402 -0.0511
21422W        W41702  10.212   6.561   0.156  0.1095  0.0380 -0.0627
21423W        W41703  12.010  14.056  12.414 -0.2103 -0.0590 -0.1392
21424W        W41704   8.853  13.364   1.825  0.1591  0.2151  0.1203
21425W        W41705   8.543  12.233   0.592 -0.0988  0.0164  0.0572
21426W        W41706   5.174  11.765   1.324  0.3537 -0.1923 -0.0010
21427W        W41707   4.958  11.326   1.110  0.0909  0.0520  0.1040
21428W        W41708  16.618  14.288  15.217  0.1978  0.1898  0.1784
21429W        W41709   9.443  15.594   4.060 -0.2172 -0.3074  0.2278
21430W        W41710   7.687  10.296  12.157 -0.1822  0.1090  0.0187
21431W        W41711   0.065  13.432   2.842  0.0490 -0.1828 -0.0339
21432W        W41712   2.867   6.063  15.170  0.0704 -0.2355 -0.0299
21433W        W41713  11.269  10.246   4.850  0.1495  0.4031  0.1834
21434W        W41714  16.738  17.497  14.653  0.0983  0.1344  0.2741
21435W        W41715   2.976   1.895   2.400 -0.0550 -0.1636  0.0293
21436W        W41716   3.049  17.424   2.667  0.2126 -0.1109 -0.5463
21437W        W41717   5.919  15.854   0.127  0.1710 -0.0629  0.0864
21438W        W41718   7.657  13.345   1.097 -0.0359 -0.1461  0.0032
21439W        W41719   2.162   9.205  15.663  0.3116  0.3083  0.4077
21440W        W41720  13.711   0.707  13.180  0.0737  0.0929 -0.1216
21441W        W41721   5.913   8.718  15.818  0.0962 -0.4661  0.3274
21442W        W41722   1.865   4.252  16.618 -0.0227  0.1243 -0.2854
21443W        W41723   2.323   1.464   0.730 -0.0164  0.0027 -0.2328
21444W        W41724  12.070   5.963  16.538 -0.1763 -0.1755 -0.1149
21445W        W41725   5.009   3.249   3.422 -0.0433  0.2127  0.1791
21446W        W41726  16.621  11.828   1.434 -0.2669 -0.2230  0.3826
21447W        W41727   4.748  13.577   0.996  0.1074  0.1572 -0.2602
21448W        W41728   9.340   6.881  13.603 -0.0567 -0.3192 -0.0776
21449W        W41729   5.622   6.170   4.350  0.0800 -0.2678 -0.1299
21450W        W41730   9.659  12.762  12.476 -0.0753 -0.3773 -0.2421
21451W        W41731   3.782  15.305   2.520 -0.1562  0.2430 -0.1648
21452W        W41732   4.166  11.951   3.312 -0.0436 -0.1771  0.0632
21453W        W41733   1.781  11.887  15.271 -0.2309  0.1345  0.0738
21454W        W41734   2.814  11.040   0.538  0.1629 -0.2957 -0.1109
21455W        W41735   3.645   5.989   0.001 -0.1258  0.1519  0.1885
21456W        W41736   4.200   1.987  16.208 -0.0699  0.0625  0.0662
21457W        W41737   2.579   8.503  12.309  0.1001 -0.0769 -0.2835
21458W        W41738   9.391  13.526  15.949  0.1211  0.1567  0.2633
21459W        W41739  14.288   3.870   1.801  0.0365  0.1370  0.1572
21460W        W41740   4.988   7.538   4.176  0.0177 -0.3395 -0.0399
21461W        W41741   2.758  17.690  15.969 -0.1760 -0.2009 -0.0663
21462W        W41742   6.205   8.329   3.973  0.0736  0.2291  0.0752
21463W        W41743  10.536   7.000   2.047  0.1958 -0.0594  0.2974
21464W        W41744  15.919   3.016  15.286  0.1261  0.2968  0.1185
21465W        W41745   7.799  16.923  14.898  0.0490  0.1552  0.2403
21466W        W41746  14.988  14.843   3.430  0.2359 -0.0276  0.1850
21467W        W41747   7.821  12.848  15.658 -0.0514  0.0685  0.0725
21468W        W41748  15.522   5.098   0.549  0.0633 -0.0102 -0.1313
21469W        W41749   5.913   2.565   0.994  0.2787  0.3596 -0.0608
21470W        W41750   1.408  17.494   4.113  0.2777 -0.1111 -0.0733
21471W        W41751   1.649   6.391  12.863 -0.2141 -0.0535 -0.2100
21472W        W41752  15.149  12.586  14.401  0.0379 -0.2520 -0.1355
21473W        W41753   4.987   7.112   2.183  0.3564  0.0670  0.0531
21474W        W41754  15.504  17.413  13.912  0.2883  0.0514  0.0686
21475W        W41755   1.824   7.378   0.839 -0.1102  0.2352  0.0483
21476W        W41756   3.784  11.933  13.097  0.1784 -0.1937 -0.3291
21477W        W41757   8.320   0.782  16.452  0.1967 -0.2291  0.0636
21478W        W41758   1.642  13.079  14.344  0.3774 -0.2704 -0.0025
21479W        W41759  17.569  11.460   0.097 -0.1535 -0.0219 -0.2363
21480W        W41760   8.717  15.801   2.850  0.1910 -0.0088 -0.0342
21481W        W41761   8.331   4.808  14.700  0.2328  0.0525 -0.3968
21482W        W41762  13.631   0.005   3.816 -0.2181 -0.1748 -0.0540
21483W        W41763  12.011   8.850   0.074 -0.0308 -0.1025 -0.1947
21484W        W41764   4.642  10.527  14.360  0.2299 -0.1395  0.1258
21485W        W41765  12.648   9.712   1.858  0.0377 -0.0956 -0.1320
21486W        W41766  11.056  16.329   1.934 -0.2153 -0.2512  0.2045
21487W        W41767  12.991   8.049  13.076 -0.0391  0.2210 -0.0683
21488W        W41768  17.297  13.246  13.256 -0.1830 -0.1634 -0.1846
21489W        W41769   1.402   3.475  16.983 -0.0386  0.0794  0.2065
21490W        W41770  17.646   2.394   4.968 -0.2650 -0.3338  0.1849
21491W        W41771  17.696   7.989  13.132 -0.1108  0.1278 -0.1441
21492W        W41772  15.998   3.376   0.221  0.3260  0.0304 -0.0903
21493W        W41773   6.437   4.536  16.097 -0.1351  0.0264  0.1640
21494W        W41774  12.784   5.994   3.459 -0.3506 -0.1977  0.3877
21495W        W41775   3.909   7.263   0.946 -0.3242 -0.0555  0.3152
21496W        W41776  14.545  13.335  16.631  0.0280  0.0555 -0.1370
21497W        W41777   6.373  15.409   0.876  0.2254  0.1230 -0.2206
21498W        W41778   4.210   4.604   1.221 -0.3340 -0.1438 -0.0563
21499W        W41779   6.597  15.873   4.049 -0.2220  0.1959 -0.4688
21500W        W41780   0.055   0.902   3.843  0.1408  0.1364  0.1078
21501W        W41781   5.780  10.618   3.849 -0.2332 -0.1267 -0.2744
21502W        W41782   1.998  14.925  14.267  0.2778 -0.1520  0.1356
21503W        W41783  13.853   3.372   3.738 -0.1017 -0.1025  0.2607
21504W        W41784  14.638   9.633   3.855 -0.0343  0.0177  0.2241
21505W        W41785   7.758   3.683  14.580 -0.0166 -0.0247 -0.4250
21506W        W41786  16.916  11.599   0.997 -0.3468  0.0537  0.2054
21507W        W41787   4.019   6.553  13.082 -0.1315 -0.0054  0.0967
21508W        W41788  12.674   2.530   3.981  0.0330 -0.2611 -0.2959
21509W        W41789   9.265   0.317  16.883 -0.4975 -0.0401  0.0269
21510W        W41790   1.620  16.421   3.178 -0.0821 -0.0257 -0.1852
21511W        W41791  14.227   8.689  13.857 -0.1067 -0.1568 -0.0788
21512W        W41792   0.548   0.872  12.640 -0.1027 -0.0253 -0.3143
21513W        W41793   9.522   7.444  16.368  0.1605  0.0312  0.2022
21514W        W41794  15.273   1.410   4.454  0.2087 -0.1739 -0.0973
21515W        W41795   5.490   9.646   1.465  0.0351 -0.3247 -0.0081
21516W        W41796  11.134   3.666  15.846 -0.0341 -0.0878  0.2784
21517W        W41797  14.589   9.974  12.270 -0.1193  0.4157 -0.0722
21518W        W41798  13.394   4.666  12.546 -0.1168  0.0705 -0.4800
21519W        W41799  15.518   2.640  14.412 -0.2324 -0.0741  0.1071
21520W        W41800   6.161  11.317  14.999  0.0117  0.0956  0.2940
21521W        W41801   7.098  10.336   2.367  0.2221 -0.0475  0.0539
21522W        W41802   7.658   1.538  16.432  0.1892  0.1471 -0.1534
21523W        W41803   1.526   3.981   1.023 -0.1712  0.2697 -0.1119
21524W        W41804   6.082   0.316   2.463 -0.1333 -0.2224  0.4516
21525W        W41805  17.667  11.988   0.043 -0.0856  0.2384 -0.1273
21526W        W41806  11.887   9.426  16.271  0.0361  0.3014  0.5541
21527W        W41807   8.855   2.006  13.413  0.0142  0.0979  0.1529
21528W        W41808   4.724   1.016   3.527 -0.2531 -0.0522  0.3207
21529W        W41809   3.963   9.437   1.530  0.1332  0.2897 -0.0498
21530W        W41810   6.110   8.164   1.060 -0.0590  0.2994  0.2725
21531W        W41811   2.313  15.712   2.738 -0.1395 -0.3070  0.0943
21532W        W41812   0.265  10.668   1.824  0.1086  0.1542  0.2591
21533W        W41813  15.266   0.249  16.960 -0.0513  0.1862 -0.1864
21534W        W41814   2.163   1.413  15.295  0.1202  0.1067 -0.0891
21535W        W41815   3.561  11.145   0.617  0.1692 -0.1021  0.4087
21536W        W41816   5.084  17.585  14.083  0.0279 -0.0129  0.3181
21537W        W41817   7.798   7.595  13.739  0.0575  0.0468  0.2099
21538W        W41818  16.996   5.948  14.694  0.3171  0.0383 -0.2228
21539W        W41819   2.351  15.160  13.791  0.2552  0.1339  0.3383
21540W        W41820   2.042  12.271   3.945  0.1988  0.1790 -0.3142
21541W        W41821   7.394   6.099  13.230 -0.1329 -0.0058  0.0432
21542W        W41822  15.373   5.477  13.465 -0.1150 -0.5361 -0.0008
21543W        W41823  17.517   2.492   0.816  0.1303  0.1213 -0.4609
21544W        W41824   8.547   2.232  15.229  0.4806 -0.0874  0.2534
21545W        W41825   8.253   2.590   2.073  0.0571 -0.1675  0.1919
21546W        W41826  15.077  11.871  14.989  0.3629  0.0641 -0.0127
21547W        W41827   9.965  12.213  13.627  0.0719 -0.1817  0.0833
21548W        W41828  15.744  13.202  14.281  0.4309 -0.0524  0.1646
21549W        W41829  17.363   4.391  14.012  0.0039 -0.1243 -0.0861
21550W        W41830  15.725   4.742  12.376  0.1408 -0.0985 -0.1223
21551W        W41831   6.352   3.237  15.645  0.1348 -0.1379 -0.3808
21552W        W41832   1.555   0.368   0.283  0.0689  0.0071 -0.0918
21553W        W41833  11.411   4.146   4.591  0.0803 -0.4342  0.2836
21554W        W41834   6.948  14.801  13.981  0.0137 -0.2254 -0.1040
21555W        W41835   0.260  11.180   1.737 -0.1784  0.1209 -0.3691
21556W        W41836   6.239   2.635   2.444  0.0511  0.1155 -0.2004
21557W        W41837   4.996   3.681   2.147 -0.1989  0.1017  0.0509
21558W        W41838  10.865   5.100  15.052 -0.3011  0.0672  0.2397
21559W        W41839   4.627   8.036   0.252  0.0962 -0.2525  0.1333
21560W        W41840   7.980   7.080   4.082 -0.0270 -0.3691 -0.0332
21561W        W41841   6.154   2.270  15.572 -0.0676 -0.1414 -0.4280
21562W        W41842   1.545   7.858   2.559 -0.1845  0.0253 -0.0546
21563W        W41843  15.703  13.438  12.920  0.4853  0.1551 -0.0113
21564W        W41844   3.278   4.504  14.350 -0.1935  0.1275 -0.1068
21565W        W41845  11.171  15.087   2.663 -0.0150  0.2329  0.1127
21566W        W41846  13.595   9.749   4.734  0.1111 -0.0812  0.1535
21567W        W41847  16.721   6.532  13.414  0.2099 -0.2001 -0.3463
21568W        W41848  12.136  17.620  14.968  0.0407  0.0113  0.0335
21569W        W41849   6.490  14.140   4.462  0.1488  0.3126  0.0418
21570W        W41850   5.584  17.024  15.018  0.0068  0.0337  0.1481
21571W        W41851  11.681  11.908  12.174  0.0575 -0.3825 -0.2411
21572W        W41852   0.035   8.793  14.265  0.4472 -0.2968 -0.1924
21573W        W41853  10.658   8.612   5.114 -0.0225  0.2976 -0.1371
21574W        W41854   9.264   4.663  14.130 -0.0375 -0.1580  0.2403
21575W        W41855  13.984  15.354  15.897  0.0204  0.0870 -0.0914
21576W        W41856  16.372   8.040   1.405 -0.2788 -0.0679 -0.2780
21577W        W41857   1.731  17.356   3.699  0.0614 -0.2955 -0.1673
21578W        W41858   8.896   7.684  13.772  0.0572  0.4159  0.1340
21579W        W41859   4.675   9.156  13.535  0.0134 -0.1847  0.2896
21580W        W41860   5.444   4.460   0.456  0.0265 -0.1778 -0.3428
21581W        W41861   4.775   7.947  14.220  0.3285  0.1434  0.3472
21582W        W41862   4.605   4.667  14.700  0.2165  0.1308 -0.1532
21583W        W41863   2.387   4.538  14.554  0.1250 -0.2448  0.2576
21584W        W41864  14.983   8.124  14.348 -0.0352 -0.0735 -0.2074
21585W        W41865   6.538  10.935  13.317  0.4844  0.1283 -0.1266
21586W        W41866  12.014  15.471   1.660 -0.2184  0.1765  0.0586
21587W        W41867   6.699   2.456  12.566  0.1414 -0.2205 -0.3961
21588W        W41868   1.069   5.135  13.254  0.1056 -0.0935  0.0638
21589W        W41869  12.015   7.416  15.343 -0.0978  0.3179  0.0155
21590W        W41870   0.513  16.043  12.251  0.1732  0.0275 -0.1975
21591W        W41871   5.929   9.067   3.891  0.3298  0.1685 -0.0265
21592W        W41872   1.244  15.650  13.324  0.1959 -0.0685 -0.0478
21593W        W41873   3.162  11.329   1.334  0.1242  0.0433  0.2210
21594W        W41874   2.850   9.293   1.408 -0.0515 -0.1449  0.1648
21595W        W41875  12.240   7.921  15.978 -0.0244  0.2862  0.0466
21596W        W41876   9.845   6.076  13.607  0.0015  0.2483  0.1304
21597W        W41877   0.338  16.010   1.849 -0.1954 -0.0624 -0.2379
21598W        W41878   9.052   8.991  15.184  0.0884  0.1953  0.0544
21599W        W41879  15.480   0.196   3.432  0.0350  0.0117 -0.0192
21600W        W41880  17.012   5.417  12.771 -0.2225 -0.1422  0.1340
21601W        W41881  14.913  16.513   0.812 -0.3058  0.2810 -0.0029
21602W        W41882   0.366   2.756   0.879 -0.2545  0.1017  0.0620
21603W        W41883  17.324  11.580   3.123 -0.2450  0.1397 -0.0822
21604W        W41884   9.087  12.887   1.105 -0.0486  0.1816 -0.1258
21605W        W41885  15.816  16.874  15.480  0.0024  0.0423 -0.0026
21606W        W41886   0.945  12.482   3.125  0.1236 -0.2373  0.2460
21607W        W41887   5.214  15.056  16.386 -0.2600  0.1269 -0.0481
21608W        W41888  13.470   1.140  14.987  0.0676  0.3078  0.1654
21609W        W41889   6.709   4.128   1.524 -0.0226  0.0866 -0.0961
21610W        W41890  15.564   8.601   1.831 -0.0784 -0.0828 -0.1348
21611W        W41891   8.003  12.426   2.275 -0.0104 -0.1979  0.1566
21612W        W41892   2.003   9.292   1.824  0.1390  0.1380  0.4018
21613W        W41893  10.727  15.401   4.586  0.1286 -0.1634  0.1988
21614W        W41894  16.293   4.348   2.448 -0.1755 -0.0308  0.2131
21615W        W41895   1.800  11.498   4.725 -0.1096 -0.0550 -0.1105
21616W        W41896  15.605   7.372   0.885 -0.1229 -0.1172  0.1382
21617W        W41897  16.751   6.768  12.868  0.0579  0.1550  0.1711
21618W        W41898  14.155   3.055   0.800  0.0579  0.0501  0.0438
21619W        W41899  14.257  10.616   0.953 -0.0749 -0.0643  0.1526
21620W        W41900  10.858  13.332  13.576  0.0492  0.1102 -0.0536
21621W        W41901  15.689   7.896   2.461 -0.0137 -0.0702 -0.0462
21622W        W41902  11.590  13.134   0.876 -0.0071  0.1498  0.0532
21623W        W41903   3.252  13.757  12.664  0.1570 -0.0042  0.1149
21624W        W41904  11.048  13.755  13.218  0.1250  0.0905  0.1613
21625W        W41905  14.380  14.779   0.257 -0.1154  0.1436  0.1076
21626W        W41906   6.760  16.248   3.650 -0.2836 -0.1453 -0.0872
21627W        W41907   2.723   3.539   1.669  0.0841  0.0832 -0.0422
21628W        W41908   3.263   3.588   0.807  0.3124 -0.1556 -0.0443
21629W        W41909   2.512   8.886   2.440  0.3254 -0.0918  0.1878
21630W        W41910  16.905   9.678  13.275 -0.0770  0.0220  0.2378
21631W        W41911   0.179   4.636   3.883  0.2470  0.0796  0.1963
21632W        W41912  14.021   2.705   0.340  0.2112  0.2484  0.0621
21633W        W41913   7.961  10.562  16.217 -0.1962  0.3078 -0.1095
21634W        W41914   1.369  11.395   1.167 -0.0966  0.1183 -0.0208
21635W        W41915  14.988  14.914   2.359 -0.0146  0.1565 -0.0519
21636W        W41916   7.326   4.719  15.824  0.2653 -0.3502  0.1280
21637W        W41917  10.442   5.403   4.457 -0.1108  0.0584  0.1680
21638W        W41918  12.999   0.790  12.959 -0.0350 -0.0094 -0.3947
21639W        W41919  16.999   2.708   0.203  0.0980 -0.0413  0.0621
21640W        W41920  10.326   3.367   2.227  0.1756 -0.1574  0.2112
21641W        W41921  10.117   0.200   0.031  0.1537  0.7112 -0.0034
21642W        W41922   9.237   0.388  14.006 -0.0057  0.0480 -0.1197
21643W        W41923  16.996   2.111   4.726 -0.2625 -0.1539 -0.1709
21644W        W41924  10.380   7.420   2.330 -0.0271 -0.1013 -0.0601
21645W        W41925  10.208  17.205   0.637 -0.1993  0.1020 -0.1234
21646W        W41926  16.179   0.253  16.669 -0.0499 -0.0460 -0.0066
21647W        W41927   8.101  16.350   5.953 -0.0002  0.1860 -0.1725
21648W        W41928   8.454   2.823  16.745  0.1343  0.0425  0.0625
21649W        W41929   1.089  14.826  17.009 -0.2671 -0.5924 -0.0991
21650W        W41930  13.359  10.099  15.554 -0.1087  0.0799  0.1403
21651W        W41931  15.623  13.894   1.518 -0.2098 -0.2753  0.1157
21652W        W41932   2.141   2.228   4.968 -0.0178 -0.0301  0.0063
21653W        W41933  13.110  16.592  13.542 -0.2908  0.0681 -0.2374
21654W        W41934  14.368   5.779  16.872  0.1580 -0.1673  0.1355
21655W        W41935   4.966   5.136  13.416 -0.1244 -0.0064  0.1323
21656W        W41936  14.866   5.157  15.237 -0.0701  0.2097  0.1053
21657W        W41937   4.436  14.340   5.986 -0.0462  0.0467 -0.0928
21658W        W41938   1.204   0.130  16.105  0.3051 -0.0099 -0.5370
21659W        W41939   7.230  15.616  14.451 -0.0873 -0.0226 -0.0031
21660W        W41940  13.936   3.479   1.995 -0.0084 -0.0042  0.2381
21661W        W41941   2.238  11.254   1.204 -0.0209  0.0512 -0.0145
21662W        W41942   7.856   9.920  12.543 -0.0834  0.2370  0.3436
21663W        W41943  12.915  11.194   0.161  0.0021  0.1148  0.3858
21664W        W41944   8.125  15.020   1.602  0.1629 -0.1072 -0.5022
21665W        W41945  14.429   6.749   4.118  0.1006 -0.0771 -0.0023
21666W        W41946  12.156   3.340   1.393 -0.2157 -0.0825 -0.1558
21667W        W41947  14.545   5.799   4.003 -0.1426  0.1646  0.1887
21668W        W41948  14.843   1.544   1.457 -0.3363 -0.2632  0.0075
21669W        W41949   9.964   1.712  13.487 -0.0512  0.1554 -0.2959
21670W        W41950  15.748  17.459   2.136  0.0395 -0.2538  0.0759
21671W        W41951  14.430   9.142   1.327 -0.1306  0.0036 -0.0729
21672W        W41952   3.660   4.969  16.447 -0.0011  0.2409 -0.3296
21673W        W41953   1.574   8.022   3.094  0.1749 -0.0354 -0.4736
21674W        W41954   2.107   4.845   4.773  0.0490  0.0229 -0.3044
21675W        W41955   7.566  10.344  16.946 -0.0397  0.0591 -0.1107
21676W        W41956   8.385  10.264   4.534  0.2312 -0.0997 -0.2349
21677W        W41957  13.508   3.045   3.695  0.5126 -0.0513 -0.2040
21678W        W41958   6.672   6.002  11.993  0.3538  0.3816 -0.0910
21679W        W41959   0.860   0.085   3.893  0.2526  0.2419 -0.1758
21680W        W41960  11.417   5.157  15.037  0.0705 -0.3523  0.1321
21681W        W41961  11.547   8.739   4.764 -0.1233  0.0908 -0.1081
21682W        W41962  17.140  15.045  15.086  0.0649  0.1193  0.2013
21683W        W41963   2.495   0.964  14.202  0.2514 -0.0576 -0.0246
21684W        W41964   1.288   3.745   0.508  0.2187 -0.1331  0.0019
21685W        W41965   7.060   4.056   1.919 -0.2509  0.0647  0.0309
21686W        W41966   3.744  14.077   3.752  0.0384  0.0755 -0.2388
21687W        W41967  15.640   9.116   3.020  0.2830 -0.1226 -0.0425
21688W        W41968   1.521  13.491   2.242  0.1249 -0.0225 -0.0823
21689W        W41969  14.085  13.586  13.474 -0.1825  0.1303 -0.2772
21690W        W41970  13.316  17.039  12.309 -0.1232  0.4308 -0.1944
21691W        W41971   7.243   0.211   1.991  0.0834 -0.1486 -0.1440
21692W        W41972   8.021   1.176  12.447 -0.0970 -0.0265 -0.0871
21693W        W41973  15.834  15.961  12.514  0.0460  0.0326 -0.1885
21694W        W41974  11.040  11.694   3.804 -0.1268 -0.0695  0.0869
21695W        W41975   4.769   6.319  15.422 -0.0130  0.1346 -0.1044
21696W        W41976   8.264  12.348  13.753 -0.0555  0.1656  0.0405
21697W        W41977   0.633  11.050   0.432 -0.1872 -0.0679  0.0948
21698W        W41978  10.074  11.660  12.770  0.2549 -0.0311 -0.1118
21699W        W41979   7.784  14.980  13.535  0.0098 -0.1938 -0.0277
21700W        W41980   8.066   6.160  11.550  0.0310  0.3905 -0.2899
21701W        W41981   8.691   0.016   2.495  0.0997  0.2518  0.0728
21702W        W41982  14.775   0.127   0.176 -0.3387 -0.0537  0.2168
21703W        W41983   3.044  11.372   2.842 -0.1802 -0.2688 -0.2975
21704W        W41984  10.383   4.472  16.395  0.2334  0.0252  0.2969
21705W        W41985  12.333  11.865   3.502 -0.0194  0.0795  0.3172
21706W        W41986  12.739   0.969   4.387 -0.2133 -0.3548 -0.2084
21707W        W41987  12.769   7.760   0.954  0.2370  0.3271  0.0801
21708W        W41988  13.124  10.871   1.777 -0.0892 -0.1504  0.2070
21709W        W41989   3.746  14.067   1.959 -0.0425  0.1313  0.3661
21710W        W41990  17.689   7.920  12.556 -0.1485 -0.2992 -0.2755
21711W        W41991   1.401  13.517   1.685  0.2030  0.1310  0.2982
21712W        W41992   4.780   9.302   6.014 -0.2725 -0.1813  0.3024
21713W        W41993  12.339   1.816   4.629  0.2113 -0.0532 -0.4004
21714W        W41994   5.317   2.189   2.496 -0.0862 -0.0380  0.1157
21715W        W41995   1.648  11.537   3.131  0.0059 -0.0101  0.1638
21716W        W41996  16.496   3.737   1.698  0.3628 -0.2740  0.1856
21717W        W41997  11.324   7.236   3.174 -0.1823  0.1285 -0.1844
21718W        W41998  14.443   7.042  14.691 -0.1310 -0.1971  0.0726
21719W        W41999   2.808   7.565   0.412 -0.0488  0.2345 -0.2934
21720W        W42000   5.878  15.990   3.297  0.0587 -0.1941  0.1005
21721W        W42001   8.187   8.874  15.333 -0.1927 -0.2595  0.2307
21722W        W42002  10.368  15.722   1.271  0.1331 -0.2146 -0.0651
21723W        W42003  10.331   9.644   0.700 -0.2008 -0.2168  0.0206
21724W        W42004   1.173   7.916   3.743  0.1517 -0.0641 -0.2552
21725W        W42005   3.831   5.790  15.249 -0.0437  0.2463 -0.1003
21726W        W42006  14.080   1.547  11.795 -0.1354  0.3253  0.2829
21727W        W42007  11.379   4.072   0.161 -0.0497  0.0823 -0.1663
21728W        W42008  14.167  10.317   3.662 -0.2176  0.1136 -0.1058
21729W        W42009   2.641   6.624   1.398 -0.1418 -0.2177  0.1362
21730W        W42010   5.418  14.454   2.087  0.1589 -0.0459  0.1475
21731W        W42011  15.347   7.191   0.139  0.3230  0.2613 -0.1260
21732W        W42012  12.860   0.964   3.193 -0.0599 -0.0797  0.1358
21733W        W42013  10.268  17.178  15.817 -0.3668 -0.2143  0.0338
21734W        W42014   2.404   1.092  13.565  0.0811 -0.1296 -0.4969
21735W        W42015  12.626  15.209   1.508  0.2827  0.0708  0.0534
21736W        W42016  12.147   4.650  15.300  0.1806 -0.0764 -0.2993
21737W        W42017  13.162   1.865  12.819 -0.2618  0.0812  0.0590
21738W        W42018   2.458  12.876  14.262 -0.3462 -0.1922  0.0075
21739W        W42019  10.117   5.908   1.100  0.2472  0.3266 -0.0775
21740W        W42020   9.967   8.836  12.683  0.0761  0.3084 -0.4303
21741W        W42021  17.288   7.114  16.083 -0.1191  0.0955  0.4056
21742W        W42022   4.171  13.752  13.111 -0.0789 -0.0649 -0.0423
21743W        W42023  16.665   6.763   2.375 -0.0884  0.1496  0.2944
21744W        W42024  16.209   5.166  13.748  0.0861  0.1430  0.2077
21745W        W42025  14.100   7.352  12.150 -0.0416  0.2433  0.1244
21746W        W42026  13.765   2.678   4.030  0.0447  0.1092  0.5044
21747W        W42027   4.984  17.533   5.491 -0.1396  0.2515  0.0242
21748W        W42028  16.327  10.371  14.434 -0.0112  0.0818 -0.0384
21749W        W42029  13.518   2.474  15.210  0.2116  0.0032  0.1231
21750W        W42030  16.454  13.238  14.456 -0.1966 -0.0131 -0.0663
21751W        W42031   9.069   3.583  12.168  0.2133  0.0415  0.1238
21752W        W42032  14.341  16.225  16.199  0.1455  0.0594  0.1693
21753W        W42033  10.016   5.213  15.323  0.0645  0.0673 -0.0149
21754W        W42034  14.525  17.440  13.763  0.0462 -0.2083  0.0586
21755W        W42035   1.835  16.433  12.022  0.0360 -0.2044  0.0487
21756W        W42036  16.607  10.513   0.942 -0.0967  0.0218  0.1471
21757W        W42037   2.110  11.972  14.153  0.0097  0.3344  0.0301
21758W        W42038   3.635  16.985  15.559 -0.0831  0.2194  0.0638
21759W        W42039  12.556  16.174   1.488  0.1080  0.0897 -0.2422
21760W        W42040  10.742   9.902   2.057 -0.0022 -0.0593  0.0851
21761W        W42041   5.599  11.419   3.316 -0.2007 -0.0950 -0.4597
21762W        W42042   3.937  17.046  12.930  0.0676  0.0659  0.0656
21763W        W42043   5.347   9.257   2.253  0.1987 -0.0540  0.2523
21764W        W42044   7.622  11.029  16.856  0.1968 -0.1297  0.0589
21765W        W42045   5.445   1.112   4.533  0.0786 -0.0205  0.2591
21766W        W42046   6.116   5.025  14.992  0.2561 -0.1948 -0.0137
21767W        W42047   8.284   5.207   0.177 -0.0518 -0.0647  0.1678
21768W        W42048   6.690  11.678   4.009  0.1907 -0.1784  0.0690
21769W        W42049   8.483  12.836  14.016 -0.1170  0.0945 -0.0249
21770W        W42050   0.253  12.673   1.889 -0.1843  0.1149 -0.0842
21771W        W42051  14.957   4.259  15.115 -0.2826 -0.0867 -0.0923
21772W        W42052   4.106   6.073   3.443 -0.0098  0.0860 -0.0554
21773W        W42053   2.624   9.716  13.691  0.1510  0.0375  0.4570
21774W        W42054   4.643  13.824   3.739 -0.0808  0.0941 -0.0726
21775W        W42055  14.861   8.773   3.292  0.1211 -0.0964  0.1601
21776W        W42056  12.653  14.143   3.819 -0.0515  0.1418  0.0540
21777W        W42057  10.511   4.147  12.657 -0.2900 -0.2095  0.2601
21778W        W42058   2.008  10.841  16.785 -0.1762 -0.1460 -0.0389
21779W        W42059  11.193  14.876  13.326  0.1504 -0.3108  0.2873
21780W        W42060   3.561  14.603  16.046  0.1280  0.4829 -0.3252
21781W        W42061  11.080  14.549   4.884 -0.1708  0.1265  0.0881
21782W        W42062  13.943  13.357  15.044  0.1286  0.0010  0.2681
21783W        W42063   8.186  13.122   3.834  0.3772 -0.0429  0.1163
21784W        W42064  13.456  15.867  11.629  0.2871  0.1893  0.0332
21785W        W42065   0.783   4.950   2.455 -0.1187  0.0029  0.1041
21786W        W42066   7.330  10.163   1.298 -0.0285 -0.2041  0.0785
21787W        W42067   7.083   9.581  12.389 -0.1479 -0.0309 -0.0596
21788W        W42068  13.781  14.670   1.336 -0.0412 -0.1812 -0.0208
21789W        W42069  17.478  14.576  12.927 -0.0094 -0.1638 -0.2470
21790W        W42070   8.352  13.526   2.689 -0.2396 -0.0994 -0.0796
21791W        W42071  15.600  11.734  14.797 -0.0565 -0.1736  0.0227
21792W        W42072  15.481  13.108  16.649 -0.1490  0.1261 -0.0028
21793W        W42073   9.066   0.887   4.805 -0.0392  0.0964 -0.0826
21794W        W42074   3.821  13.116  15.186 -0.0571 -0.2118 -0.0911
21795W        W42075  17.475  11.848  14.414 -0.0375 -0.0578  0.1124
21796W        W42076   7.944   1.751  12.191 -0.2934 -0.3615 -0.0354
21797W        W42077   5.757   0.481  13.124  0.0769 -0.0818 -0.0405
21798W        W42078  12.785   4.933   0.800 -0.0904  0.0809  0.2463
21799W        W42079  10.813   5.641   4.129 -0.0378 -0.2839  0.0604
21800W        W42080  15.896  12.401   4.099 -0.0075  0.2648 -0.4057
21801W        W42081  10.613   8.180   4.792  0.1453  0.0030  0.3480
21802W        W42082  15.665   4.732   4.273  0.0833  0.3362  0.0339
21803W        W42083   8.204  10.696   0.395  0.4484 -0.2104 -0.0385
21804W        W42084   6.888   2.797   1.031 -0.2258  0.1663  0.1849
21805W        W42085   2.077   4.274  13.812  0.0602 -0.0229 -0.2531
21806W        W42086   2.787   9.810   4.768  0.1627 -0.2550  0.1697
21807W        W42087   3.778  14.861   2.283 -0.1841 -0.0274  0.0846
21808W        W42088  16.582  17.057  15.411  0.4225 -0.0464  0.0216
21809W        W42089  10.046   7.360   1.859  0.1129 -0.0580 -0.1315
21810W        W42090  14.472  11.136   0.388  0.0236  0.2725  0.1935
21811W        W42091   1.299  10.620   4.202 -0.0697 -0.2145  0.0081
21812W        W42092  13.998  16.562  15.990  0.0303 -0.0081  0.2011
21813W        W42093  12.865   6.646   1.492 -0.0730 -0.2834 -0.0207
21814W        W42094   7.440   4.973   0.113  0.1057  0.2263  0.0889
21815W        W42095  14.847   8.623   3.783  0.1695 -0.1781  0.0432
21816W        W42096   2.321   3.772   2.984 -0.1944  0.1455  0.3051
21817W        W42097   0.042  10.276   2.071 -0.0450  0.0276 -0.2227
21818W        W42098   0.752   4.618   2.927  0.0269 -0.3776 -0.0033
21819W        W42099  14.665  15.406  15.501  0.0490  0.1191 -0.0258
21820W        W42100  12.525  13.374   4.466 -0.1142 -0.1024 -0.0503
21821W        W42101   4.479   1.834   2.415 -0.0089 -0.2706  0.0368
21822W        W42102   7.163  16.317   4.486  0.0420 -0.0335 -0.3166
21823W        W42103   8.754   3.955  16.985  0.2242 -0.3004  0.3501
21824W        W42104   8.350   4.600  16.535 -0.0732  0.1335 -0.0561
21825W        W42105   3.037  11.134  14.679 -0.2434 -0.2294 -0.0906
21826W        W42106   8.323   1.859   2.145  0.0838  0.1884 -0.0380
21827W        W42107  10.387  16.624   3.667  0.0833 -0.1790 -0.0423
21828W        W42108   6.571  14.504  14.190  0.1186 -0.1321 -0.1763
21829W        W42109   5.782   8.618   3.671  0.0235  0.0638  0.0545
21830W        W42110   2.251   3.204   0.990 -0.1875  0.0620 -0.2636
21831W        W42111  10.481  10.995  15.903 -0.1341  0.0653 -0.0621
21832W        W42112  14.786   1.099   2.176  0.0745 -0.1634 -0.0632
21833W        W42113  16.369   0.138   3.603  0.1480  0.0990 -0.0897
21834W        W42114   9.204   3.158  13.653  0.1819 -0.1248 -0.0589
21835W        W42115  11.716   6.651   2.026 -0.2045 -0.1605 -0.2884
21836W        W42116  14.178  15.254  13.896  0.0625 -0.0864  0.0506
21837W        W42117   1.379   7.624   4.393  0.0683 -0.2377  0.0760
21838W        W42118   4.134   5.034  13.218  0.1786 -0.1103 -0.1158
21839W        W42119   5.742   4.317   3.189  0.1000 -0.4000 -0.1727
21840W        W42120   1.785   5.167  13.526 -0.1134 -0.3373  0.1513
21841W        W42121  12.649   9.501   2.946 -0.2723  0.2471  0.0265
21842W        W42122  12.327   6.957   0.614 -0.1212 -0.0545 -0.0260
21843W        W42123  12.800   8.628  11.897  0.1417  0.2261 -0.0190
21844W        W42124   8.662   8.597   1.412 -0.0705 -0.0608  0.0945
21845W        W42125   9.317   5.571   4.738  0.0140  0.0364 -0.2362
21846W        W42126   9.262   8.509   3.986  0.0623  0.0849  0.0994
21847W        W42127   2.720   4.174   3.012  0.2279 -0.0361 -0.1113
21848W        W42128   8.429   1.249   4.848  0.1894 -0.0215 -0.1996
21849W        W42129   8.720  10.016  16.495 -0.0334  0.3506 -0.1150
21850W        W42130   6.729   0.633  13.587 -0.2083 -0.1392 -0.5988
21851W        W42131   4.538   2.002   0.495 -0.1399 -0.3049  0.0097
21852W        W42132  12.123   5.247   4.730  0.1689 -0.0950 -0.0243
21853W        W42133   7.574   2.700  13.135 -0.1157 -0.0084 -0.2995
21854W        W42134   8.918  11.309   4.728 -0.2225 -0.1668  0.0822
21855W        W42135  11.826  10.592  13.568 -0.2235  0.2147 -0.0010
21856W        W42136   7.001  15.596  13.340 -0.0318 -0.1142 -0.0139
21857W        W42137  12.898   1.358   2.781  0.0374 -0.0049 -0.0221
21858W        W42138   8.648  13.687   1.447 -0.0526 -0.1478  0.2164
21859W        W42139  12.571   0.545   4.924  0.3700  0.2199  0.1055
21860W        W42140  13.676   8.816   1.018 -0.1018  0.0075  0.0698
21861W        W42141  15.677  11.072   1.667 -0.0541 -0.1310 -0.2212
21862W        W42142   1.141  16.304   4.192  0.0322  0.2952 -0.3422
21863W        W42143  15.299   9.033   3.466  0.1586  0.1786 -0.1293
21864W        W42144  10.960  12.730   3.480 -0.2651  0.2199  0.0482
21865W        W42145   7.888  12.678   3.657  0.2427 -0.1080 -0.0721
21866W        W42146   1.044   2.901   2.555  0.0954  0.2158 -0.2349
21867W        W42147   6.573  11.187  14.433  0.0651 -0.0055 -0.2072
21868W        W42148  10.526   0.800  12.230  0.0248 -0.3005 -0.0060
21869W        W42149   1.131   7.248  12.886 -0.0914  0.1260  0.2495
21870W        W42150  13.885  16.582  13.015 -0.0370 -0.2571  0.3747
21871W        W42151   9.985  16.672   0.825 -0.3249  0.1016  0.0224
21872W        W42152   8.795   0.874   0.707 -0.1544 -0.2849 -0.2686
21873W        W42153  13.496   8.758  16.283  0.0186 -0.0640 -0.1704
21874W        W42154  14.803  11.273  14.273  0.0735  0.2699 -0.1471
21875W        W42155  17.413  12.171   4.350 -0.0579  0.3450  0.0149
21876W        W42156   4.543   7.467   2.256  0.1225  0.1897 -0.1705
21877W        W42157   8.215   6.827   0.435 -0.2166  0.2463 -0.2127
21878W        W42158   6.862  12.074   0.113  0.2216  0.4636  0.2702
21879W        W42159   7.633   1.059   0.914 -0.1318 -0.1286 -0.0343
21880W        W42160  11.715   5.090   1.551 -0.1301 -0.1249 -0.4254
21881W        W42161   1.054   4.266   1.332  0.1104 -0.0536  0.0998
21882W        W42162   5.692  15.080   2.854  0.2719  0.1183  0.0755
21883W        W42163   6.615  13.105  14.909 -0.1156 -0.2051  0.0581
21884W        W42164   9.402   9.965   0.490 -0.2891 -0.1370 -0.0587
21885W        W42165   4.851  10.894   2.018  0.0319 -0.2651 -0.0656
21886W        W42166   8.075  17.370  16.334  0.0158 -0.1700 -0.0923
21887W        W42167  11.816  16.266   0.895  0.3763 -0.1207 -0.1622
21888W        W42168   0.646   0.344   4.727  0.0039  0.0134  0.4522
21889W        W42169  12.238  16.325  13.430  0.4317  0.0225 -0.2530
21890W        W42170   2.723   2.754   0.552 -0.3404  0.1174 -0.0836
21891W        W42171   1.918   3.738   4.297  0.1159  0.0202 -0.1326
21892W        W42172   9.173  14.007  12.714 -0.1924 -0.0234  0.1276
21893W        W42173   9.518  10.561   0.021  0.3432 -0.0473  0.1076
21894W        W42174   3.786  14.198  13.802 -0.0117  0.2009  0.2637
21895W        W42175   6.252  12.147   0.870 -0.2841  0.1828  0.1606
21896W        W42176  12.996  15.107   2.824 -0.0588 -0.0571  0.2080
21897W        W42177  11.489   4.753  13.627 -0.0740  0.1121 -0.0894
21898W        W42178   8.615   5.533  15.306  0.1652  0.2145  0.2215
21899W        W42179   2.748   9.083   4.528  0.1022  0.0611  0.1570
21900W        W42180   5.884   7.106   2.028 -0.0240 -0.0604 -0.2900
21901W        W42181  12.413  14.529  13.583 -0.0387 -0.0938 -0.1000
21902W        W42182   4.855   4.039  15.315 -0.1859  0.0455  0.1252
21903W        W42183  16.516   4.541   1.211 -0.2234  0.0111 -0.0972
21904W        W42184  12.395  11.365   3.346 -0.1215 -0.1048 -0.5639
21905W        W42185  16.596  11.947   2.686  0.2574 -0.1511 -0.2737
21906W        W42186  13.155   4.483  13.410  0.0876 -0.1413 -0.0679
21907W        W42187   6.811   9.008   3.955  0.1091  0.2434  0.1956
21908W        W42188  11.410  10.144   0.527  0.2136 -0.1442 -0.0286
21909W        W42189  16.625  16.006  14.071  0.0165 -0.0985 -0.0718
21910W        W42190  10.020   7.393   3.871 -0.1689 -0.1714 -0.4562
21911W        W42191   4.223  11.716  15.812 -0.1660  0.0111  0.0060
21912W        W42192   3.542  12.960   4.603  0.1086  0.0623  0.0179
21913W        W42193  11.959   0.761   1.791 -0.0727  0.2511  0.2461
21914W        W42194   3.926  13.744   1.471  0.1009  0.1238  0.0926
21915W        W42195  16.275   6.583  13.937 -0.2637 -0.0137 -0.0121
21916W        W42196   1.065  16.467  13.928 -0.0133 -0.2398  0.0184
21917W        W42197   8.783   3.525  13.508  0.0780 -0.1472 -0.0856
21918W        W42198  17.453   8.108  14.488 -0.3657  0.0045 -0.2578
21919W        W42199   5.445   3.799  13.445 -0.2696  0.1036  0.4358
21920W        W42200   9.794   4.861   2.775 -0.2908  0.1372  0.0626
21921W        W42201   7.359  17.317   1.327 -0.0497 -0.0064  0.0476
21922W        W42202  12.941   2.937   3.775 -0.0709  0.1204 -0.0989
21923W        W42203   3.578   2.743   1.063 -0.0623  0.2040  0.1339
21924W        W42204  11.127  15.736   3.284 -0.3866  0.1655  0.0365
21925W        W42205   5.790   4.593   1.714  0.1490 -0.2693  0.0524
21926W        W42206   8.691   9.962   1.218  0.1420 -0.1243 -0.2435
21927W        W42207  16.306   5.689  15.569  0.1526  0.2542 -0.1127
21928W        W42208  15.037   4.147  12.260 -0.3981  0.2398 -0.0500
21929W        W42209   9.662   2.145  12.104 -0.2512  0.1825 -0.1300
21930W        W42210  13.660  16.122   1.760 -0.2391  0.0390  0.2123
21931W        W42211   9.633  15.052   3.914  0.1986  0.1506  0.0173
21932W        W42212   6.334  10.385  16.981 -0.2413 -0.0688  0.4214
21933W        W42213   3.712  14.622  12.726 -0.0432 -0.1934  0.1137
21934W        W42214  11.489   3.137  13.568  0.2108 -0.0650 -0.0821
21935W        W42215  11.492   0.770   3.432 -0.2277 -0.1539 -0.1058
21936W        W42216   4.748  11.011  12.332  0.1704  0.1568 -0.0677
21937W        W42217  11.641   7.420  12.226 -0.0169  0.0283 -0.0363
21938W        W42218   5.223  14.869  14.744 -0.1657  0.0858 -0.0539
21939W        W42219   0.839   8.543   2.392  0.1461 -0.1009 -0.3042
21940W        W42220  14.472  17.311  16.665 -0.1225 -0.1490  0.0006
21941W        W42221   4.797  10.525  12.393 -0.2048  0.2304  0.1554
21942W        W42222   7.402   9.168  14.106 -0.0710  0.0359 -0.0863
21943W        W42223   6.811   7.834   1.318  0.0581  0.0343 -0.0779
21944W        W42224  11.874   0.587  13.054  0.1793  0.2777  0.0413
21945W        W42225  10.159  14.281  11.810  0.2569 -0.0908 -0.1229
21946W        W42226   9.040  15.991  14.055  0.0857  0.1831  0.1870
21947W        W42227  13.369   6.853  16.276  0.2123 -0.2902  0.1930
21948W        W42228   1.063   2.096  16.210  0.0949  0.1685 -0.2753
21949W        W42229  14.470  15.321  16.637 -0.0654 -0.1388 -0.2189
21950W        W42230  10.939  11.218   0.038  0.0628 -0.2151  0.0718
21951W        W42231   9.182   8.589  14.894  0.0189  0.0824 -0.0404
21952W        W42232  14.861   3.076  13.044 -0.1466  0.1609 -0.0754
21953W        W42233  17.253  10.017   1.180  0.0524  0.4166  0.0686
21954W        W42234   1.925   8.602   5.782  0.3096 -0.2085  0.2170
21955W        W42235   0.297  11.052   2.229  0.0036  0.1539  0.0105
21956W        W42236   2.208  15.173  13.289  0.1994 -0.3004 -0.1278
21957W        W42237   0.181   6.098   2.402  0.0767  0.1952  0.2383
21958W        W42238   6.068   9.432  14.259  0.0584 -0.0207 -0.1721
21959W        W42239   8.365   9.797   3.357  0.2906  0.3549  0.0395
21960W        W42240   7.465   7.340   2.836 -0.1853 -0.0161 -0.2323
21961W        W42241   3.884   4.866  12.782 -0.4198  0.1580 -0.1207
21962W        W42242  15.261  11.966  13.207 -0.3758  0.0370 -0.3597
21963W        W42243   6.852  13.353   5.214  0.0552  0.0051  0.0927
21964W        W42244   0.586   3.025  14.684 -0.1711  0.2911 -0.0635
21965W        W42245  17.320  14.932  13.374  0.1519  0.0910 -0.0108
21966W        W42246   5.480  10.269   3.694  0.0653 -0.3356  0.2288
21967W        W42247   4.088   6.070  13.310  0.2340 -0.3654 -0.2804
21968W        W42248   6.175   9.905   0.165 -0.0250  0.2541  0.0715
21969W        W42249  10.908  17.459  12.816 -0.0301  0.3059 -0.1273
21970W        W42250  17.358  10.850  13.614 -0.1187  0.1788  0.1512
21971W        W42251  14.992  16.080   1.097  0.0368 -0.0414 -0.0002
21972W        W42252   9.809   7.947  14.214  0.3289 -0.3594  0.1048
21973W        W42253  11.088   0.473   3.321 -0.2389 -0.2195  0.2135
21974W        W42254  12.349   8.665  13.913  0.0494 -0.3731 -0.0075
21975W        W42255  11.202  14.839  16.742  0.0905 -0.0324 -0.2353
21976W        W42256   8.656  10.909   2.189  0.3447  0.0296  0.1650
21977W        W42257  10.752  12.761  13.146  0.1519  0.0387  0.3791
21978W        W42258   0.483   4.490  13.067 -0.1320 -0.0205  0.0346
21979W        W42259  11.391   6.702  16.500  0.0585 -0.1011  0.0867
21980W        W42260  13.106  10.348   1.550 -0.0704  0.1385 -0.1911
21981W        W42261   2.107   6.106   1.702  0.0858  0.1819 -0.1858
21982W        W42262   3.880  11.759   0.851 -0.3550  0.0859 -0.3246
21983W        W42263   8.984  13.846   1.122 -0.1983 -0.0270  0.2470
21984W        W42264  11.441  10.434   3.649  0.1041  0.0318  0.1587
21985W        W42265   5.924   6.528   2.016 -0.2665 -0.0301  0.0618
21986W        W42266   0.097   5.658  14.405  0.1608 -0.3063  0.0816
21987W        W42267   6.724   8.746   4.429  0.2442 -0.0344 -0.1024
21988W        W42268  16.962  10.513   2.703  0.1811  0.0858 -0.0809
21989W        W42269  13.884  11.615   2.695  0.2485  0.3783 -0.0150
21990W        W42270  15.500  12.572  13.503 -0.1413 -0.4248  0.4808
21991W        W42271   8.095   6.474  16.448  0.0589  0.2025  0.0155
21992W        W42272   8.963   1.195   1.392  0.5648 -0.1155  0.1521
21993W        W42273   8.744   8.236  15.018  0.1504 -0.0402  0.0571
21994W        W42274   0.415   5.954  14.105 -0.0575  0.0881 -0.4970
21995W        W42275   4.320  14.459  15.730  0.2818  0.0029  0.1081
21996W        W42276   7.728  11.283  16.310  0.0149 -0.0704 -0.0111
21997W        W42277  14.350  17.315  11.186 -0.2861 -0.0458 -0.0136
21998W        W42278  16.938  13.410  12.827 -0.3452 -0.1289 -0.0136
21999W        W42279   8.141  10.533  15.759  0.0531 -0.0205  0.1745
22000W        W42280  10.127  16.412  13.941  0.0929 -0.1670  0.1098
22001W        W42281   3.817  17.364   0.399  0.1060  0.2283 -0.0061
22002W        W42282   6.501   8.324  16.647 -0.4615 -0.2222  0.0905
22003W        W42283   3.379   7.882  14.567 -0.0386 -0.1235 -0.1219
22004W        W42284  12.917  15.612   2.387  0.3864 -0.1725  0.2293
22005W        W42285  11.139   8.536  14.291 -0.0459 -0.0694 -0.1691
22006W        W42286   3.589   0.457   1.768  0.0970 -0.3336  0.1349
22007W        W42287  12.169   2.483  14.552 -0.2932  0.2180  0.4717
22008W        W42288   6.773  16.360  14.169 -0.1194 -0.3137 -0.0367
22009W        W42289   3.473   3.253   4.316 -0.1453 -0.1925  0.1964
22010W        W42290  13.641   2.066   4.900  0.1369 -0.1413  0.1832
22011W        W42291   9.366  11.524  16.144  0.2460 -0.0592 -0.0884
22012W        W42292   5.633   8.297  15.608 -0.1300  0.1213  0.1544
22013W        W42293   1.924   1.354   4.241  0.4285  0.4828  0.1663
22014W        W42294  10.543   7.096  14.094  0.2080 -0.0780 -0.0167
22015W        W42295   7.338  16.390   0.710  0.0614  0.2616  0.1128
22016W        W42296  13.213   8.490  15.275 -0.2453  0.0653  0.0036
22017W        W42297  12.018  13.677   1.784 -0.1341 -0.1160  0.1869
22018W        W42298  16.165   5.127   4.637 -0.1542 -0.0873 -0.1065
22019W        W42299   6.472   3.003   3.619 -0.1603  0.0844  0.1597
22020W        W42300  10.759   2.269  14.576  0.0576 -0.0462  0.3013
22021W        W42301  15.493  15.541   1.547 -0.0222  0.0210 -0.1255
22022W        W42302   2.939   9.710   0.657  0.0935 -0.0189 -0.0746
22023W        W42303   4.162  15.488   3.491 -0.1197  0.0494  0.2600
22024W        W42304   6.220   7.160  16.577 -0.2440  0.1832  0.1000
22025W        W42305  15.963   8.937  13.403  0.1877  0.1424  0.2500
22026W        W42306   5.916  11.077   0.190 -0.0482  0.2027 -0.0219
22027W        W42307  13.964   4.650  16.207 -0.0403  0.0086  0.3627
22028W        W42308   1.444  14.688  14.641 -0.1477 -0.1005  0.4138
22029W        W42309  11.653  10.129  16.600 -0.1059 -0.0327 -0.2994
22030W        W42310   7.234  13.950   4.232 -0.3163  0.2630 -0.1091
22031W        W42311  16.517  14.229  12.146  0.0037  0.2179 -0.1236
22032W        W42312  14.959  12.348  14.969  0.0103 -0.2939 -0.4467
22033W        W42313   2.171   0.771   1.356  0.0895 -0.0200 -0.1841
22034W        W42314  13.099  15.345   1.402 -0.4674  0.0261 -0.0645
22035W        W42315   5.547   4.251   1.428  0.2679  0.1913  0.3819
22036W        W42316  15.652  11.835  16.631  0.1519  0.1255 -0.2467
22037W        W42317  16.681   5.907   4.786  0.2912  0.0915  0.2271
22038W        W42318   6.467  17.689   2.301 -0.2938  0.0174 -0.1048
22039W        W42319  14.836  13.990  16.891  0.2861  0.0280  0.4045
22040W        W42320   3.367  15.880  13.505 -0.3415  0.0043  0.0728
22041W        W42321   0.146   7.508   0.307  0.1143  0.0393 -0.2504
22042W        W42322   3.182   7.855  15.062  0.1849 -0.0553  0.3136
22043W        W42323   5.786   7.880   0.093 -0.0985  0.3501 -0.0440
22044W        W42324  10.314   1.831   3.209  0.0508  0.0283  0.1436
22045W        W42325   2.099   1.839  15.605  0.4258  0.4918 -0.1993
22046W        W42326   0.217   8.910   2.451  0.1489  0.0979 -0.1141
22047W        W42327   2.040   8.897   0.541  0.1905  0.0488 -0.1199
22048W        W42328   2.971  13.266   2.885  0.1362 -0.3086  0.2327
22049W        W42329   4.813   4.377  13.361 -0.1350  0.1338 -0.0438
22050W        W42330   7.034   6.959  12.673  0.0932  0.3402 -0.2408
22051W        W42331   5.549   5.084   3.646  0.1877 -0.0571 -0.2490
22052W        W42332   6.030   0.047  12.989 -0.2300  0.0881 -0.1417
22053W        W42333  10.187   6.009  16.581  0.0373  0.0266 -0.1582
22054W        W42334   1.489  11.010  13.285 -0.0983  0.1081 -0.1390
22055W        W42335   3.696  12.652   0.501 -0.1291  0.0190 -0.3279
22056W        W42336  14.858   7.309  14.919 -0.1310 -0.1405  0.2424
22057W        W42337   0.450  17.673  15.793 -0.2825  0.1841 -0.0952
22058W        W42338   5.198   6.955   3.467  0.1852 -0.1489  0.1961
22059W        W42339  13.261  15.761   1.858  0.3561 -0.1125  0.1762
22060W        W42340  15.882   0.863  15.576 -0.0207 -0.1435 -0.1559
22061W        W42341  16.045   0.878  12.889 -0.0136 -0.0973  0.0007
22062W        W42342   8.686  10.940  16.395  0.2353  0.0192  0.2551
22063W        W42343   0.332   1.029   3.452  0.1715 -0.0330  0.0365
22064W        W42344   3.109  13.683   0.938 -0.0158  0.2628 -0.1632
22065W        W42345  16.105   9.274   3.982  0.1353  0.4437 -0.1357
22066W        W42346  14.809   6.420  16.883  0.0326  0.1550  0.3907
22067W        W42347   3.318   5.281  16.940  0.0511 -0.1336 -0.1962
22068W        W42348   8.339   1.598  12.463  0.2132 -0.0266 -0.0431
22069W        W42349  11.870   3.817  14.099 -0.1458  0.0124 -0.1497
22070W        W42350   7.953  10.972  13.863  0.1710 -0.1287  0.2425
22071W        W42351   1.088  15.474   4.725 -0.2078 -0.1166 -0.2481
22072W        W42352  15.399   8.436   4.390  0.0860 -0.0378  0.0995
22073W        W42353  13.781   4.930   2.037  0.0868 -0.3103 -0.2194
22074W        W42354   9.238  16.313   1.902 -0.0358  0.0241  0.1728
22075W        W42355   7.136  14.245  16.869 -0.0908  0.1947  0.0657
22076W        W42356   2.113  11.392   3.302 -0.0685 -0.1173  0.1298
22077W        W42357   7.700   9.072  16.426 -0.0799 -0.1263  0.1109
22078W        W42358   5.641  14.838  13.781 -0.1407  0.1760 -0.0984
22079W        W42359  10.094   8.632   3.692  0.0129  0.2144  0.0253
22080W        W42360   5.005  10.885  14.273 -0.1878  0.0965 -0.0102
22081W        W42361  11.822   9.558   3.570  0.1808  0.1333 -0.0945
22082W        W42362   2.067  13.844   5.150 -0.0848 -0.0148  0.2055
22083W        W42363   6.455   3.169  12.380  0.2784  0.1332  0.0437
22084W        W42364   1.724  11.224  14.147  0.1094  0.3449  0.2200
22085W        W42365  16.243   7.587  16.593 -0.1133 -0.2217  0.3214
22086W        W42366  12.496  15.884   2.413 -0.0464 -0.3464  0.0253
22087W        W42367  16.930  16.905  16.548 -0.1225 -0.2309  0.0436
22088W        W42368  12.039  10.400  14.009  0.0682  0.0139  0.0245
22089W        W42369  15.344   2.998  14.097 -0.0676  0.0590  0.2499
22090W        W42370   5.464   3.858   1.048  0.1692  0.0436  0.0760
22091W        W42371   6.080  11.002   3.619 -0.0561  0.1365  0.0214
22092W        W42372   2.039  14.414   0.039  0.1272  0.0468 -0.0223
22093W        W42373  12.289  16.183   1.903 -0.0859 -0.0612 -0.1103
22094W        W42374  15.506   4.345  15.683  0.2445  0.0649 -0.0918
22095W        W42375  16.421  13.008   3.508  0.2964 -0.1167 -0.0251
22096W        W42376  13.840   5.618  13.013  0.0115 -0.2109 -0.0984
22097W        W42377   9.861  13.088   0.400  0.3104 -0.0627 -0.1334
22098W        W42378   1.549  16.788  12.357 -0.0768 -0.0933 -0.1838
22099W        W42379  16.741  10.188   3.789 -0.0383  0.0091 -0.1096
22100W        W42380  14.507  12.920  13.036  0.0274 -0.0520  0.0335
22101W        W42381   3.834   7.179   3.290 -0.1533 -0.1091 -0.1017
22102W        W42382  12.470  13.491  14.300 -0.1389 -0.0971  0.0401
22103W        W42383   8.944  12.517  14.153 -0.0041  0.0420  0.0386
22104W        W42384  16.722  13.712   2.984 -0.2730  0.0921 -0.0634
22105W        W42385  14.007   2.188   0.979  0.1224 -0.1273 -0.1458
22106W        W42386   6.638  16.357   2.035  0.0176 -0.1024 -0.0292
22107W        W42387   6.094  10.078  15.481  0.4743  0.0128 -0.4103
22108W        W42388  17.599   5.189   1.388  0.0806 -0.1246 -0.0615
22109W        W42389  17.452   8.011  13.925  0.1403  0.5193  0.1300
22110W        W42390   3.209   5.699   1.600 -0.0687 -0.2053 -0.0539
22111W        W42391   1.832   0.858   4.264 -0.0846  0.0081  0.1008
22112W        W42392  14.684  14.260  16.486  0.0438  0.1316  0.1083
22113W        W42393   2.254   9.074   1.449  0.1700  0.1751  0.0988
22114W        W42394  15.529   5.437  14.433 -0.2148 -0.2769 -0.0782
22115W        W42395   1.023   3.366   4.236 -0.1780 -0.1077 -0.3579
22116W        W42396   9.530   7.512  13.098  0.2058  0.0209  0.1249
22117W        W42397   6.786   0.644   3.458  0.1485 -0.0640  0.0504
22118W        W42398   3.118   0.703   1.551  0.0161  0.1205  0.2490
22119W        W42399  11.665  12.391   0.521  0.2849 -0.2141 -0.0039
22120W        W42400   4.346   6.010   4.232 -0.3044  0.0443 -0.3024
22121W        W42401   3.291   4.236   2.123 -0.0415 -0.3990 -0.0870
22122W        W42402   9.361   5.897   3.678  0.1012  0.2118  0.0437
22123W        W42403   7.076  14.758  15.843  0.2984  0.0593  0.0131
22124W        W42404  15.201   7.023   2.008 -0.3133  0.0866  0.0046
22125W        W42405   1.631   8.528   3.598  0.1648  0.1550 -0.2311
22126W        W42406   7.102  17.692  15.966 -0.0383 -0.1046  0.2785
22127W        W42407  14.573   6.761   3.262  0.0699 -0.2238 -0.0230
22128W        W42408  17.563   3.553   2.953 -0.4044  0.1181 -0.1695
22129W        W42409   9.768  10.675   3.329  0.0176  0.1169 -0.0797
22130W        W42410  14.358   0.005   0.522 -0.0313  0.1835  0.1318
22131W        W42411   9.998   0.204  14.649  0.0789  0.0456  0.1537
22132W        W42412   1.909   3.276   2.283 -0.1754 -0.3661  0.1670
22133W        W42413   9.167   0.541  12.982 -0.0861  0.0417 -0.0677
22134W        W42414  10.400   4.099  15.870 -0.0383  0.0076 -0.1708
22135W        W42415   0.456  16.789  15.886  0.2017 -0.0534  0.1757
22136W        W42416  14.449   4.777  15.198  0.0223 -0.2139 -0.0198
22137W        W42417   7.190  17.257   2.355 -0.2089  0.0017 -0.0380
22138W        W42418  11.733   8.105   1.808  0.0298  0.1418  0.0243
22139W        W42419   9.078  17.417  16.099  0.1166  0.2113 -0.1033
22140W        W42420  17.529   5.242  14.401  0.0692 -0.2541 -0.0885
22141W        W42421  12.340  15.378   2.647  0.0747 -0.0936  0.0297
22142W        W42422   8.250  11.841  16.462 -0.3728  0.1528  0.0261
22143W        W42423  16.985   4.356   2.999 -0.1007  0.1825  0.0949
22144W        W42424   6.745   0.856   0.769 -0.1851  0.0071  0.0481
22145W        W42425  11.947   2.909   1.075  0.1825 -0.0059  0.1306
22146W        W42426   8.999  14.445  13.922 -0.0203 -0.0337 -0.4570
22147W        W42427  14.673   1.471  16.788 -0.2318 -0.0959  0.0984
22148W        W42428  11.345   0.577   0.486  0.1024  0.3117  0.1281
22149W        W42429   8.008   2.243  15.046 -0.2438 -0.2705 -0.0520
22150W        W42430   7.568   5.759  16.370  0.0333 -0.2548  0.0121
22151W        W42431   6.271   3.487  14.786 -0.1372  0.1628  0.2402
22152W        W42432  12.570  14.052   5.208  0.2014  0.0111 -0.1181
22153W        W42433   6.721  15.942   4.528 -0.1007 -0.2533 -0.3460
22154W        W42434   3.217   7.340   4.956  0.3711  0.0000 -0.0138
22155W        W42435   0.010  15.452  15.243 -0.2430 -0.1235 -0.0388
22156W        W42436   6.601   7.501   2.817  0.1667 -0.1542  0.1243
22157W        W42437   9.907   5.552   0.764  0.2734  0.0749  0.0956
22158W        W42438  15.722  13.597  15.214 -0.1556 -0.0534  0.1050
22159W        W42439   7.218   3.147   4.376 -0.3572  0.1175 -0.2519
22160W        W42440  12.782   8.209   0.100  0.2203 -0.0101 -0.2872
22161W        W42441   9.481  13.760   0.980  0.2610  0.0776 -0.1794
22162W        W42442   3.788  15.150  12.591  0.2274  0.1791 -0.1522
22163W        W42443  10.632   0.404  11.795 -0.0971  0.0648 -0.0236
22164W        W42444   8.008  17.201   2.996 -0.1767 -0.1170  0.0359
22165W        W42445  16.412   2.669   4.276 -0.3189  0.2688  0.1668
22166W        W42446   7.528   3.350  15.241 -0.2839  0.0642  0.1729
22167W        W42447   4.658   7.565  12.844  0.1622  0.1363 -0.1324
22168W        W42448   0.697   4.486   3.868 -0.0688 -0.3397  0.1855
22169W        W42449   4.542   6.996   1.923 -0.1139  0.1723  0.1636
22170W        W42450   7.983  15.959   4.079 -0.2725  0.1654  0.0576
22171W        W42451  13.230   4.513   5.014 -0.0980  0.1173  0.1605
22172W        W42452  13.129   6.424  12.843 -0.2447  0.1530  0.1654
22173W        W42453   6.953   8.416   3.911  0.2416  0.3969 -0.3072
22174W        W42454   5.071  16.589  13.911  0.0673 -0.1007  0.0135
22175W        W42455   7.914   4.483   1.718  0.2073  0.0161  0.1060
22176W        W42456  17.169  14.572  16.573 -0.0385 -0.1607  0.2524
22177W        W42457  10.585   9.754  12.379 -0.1857  0.1515 -0.0122
22178W        W42458   6.507  10.124   3.612 -0.1648  0.0482 -0.1569
22179W        W42459  11.836   6.054   3.264  0.1607  0.0783 -0.1307
22180W        W42460   0.030   5.085  15.878 -0.2428  0.1730 -0.0062
22181W        W42461   6.928  10.438  12.616  0.0578 -0.1185  0.1353
22182W        W42462   9.783   3.745   3.689 -0.0910  0.1598 -0.0565
22183W        W42463  12.351   0.086   2.529 -0.0707  0.1579 -0.1411
22184W        W42464   5.277   9.846   2.820 -0.0619  0.3071  0.2603
22185W        W42465  16.691   9.989   1.125 -0.1573  0.1273  0.1226
22186W        W42466   4.129   5.998   1.384 -0.3946 -0.1987  0.2663
22187W        W42467  16.071   2.780  11.058  0.2161 -0.2916 -0.4239
22188W        W42468  16.142  10.174   0.307  0.0039 -0.0065 -0.2418
22189W        W42469  12.166   1.768   4.144 -0.1255 -0.2781 -0.2427
22190W        W42470   0.607   5.415   4.996 -0.0525  0.0081  0.2165
22191W        W42471   9.634   1.415   4.228 -0.1749  0.1394 -0.0858
22192W        W42472   9.680  10.892   0.895 -0.1470  0.0535  0.2008
22193W        W42473  15.382  13.085   0.552 -0.2232 -0.0340 -0.0045
22194W        W42474   1.666   9.435  12.897  0.2430  0.2038  0.0186
22195W        W42475   3.675  16.665  16.886  0.0992 -0.0382  0.0475
22196W        W42476   3.591  15.667   3.263  0.0354 -0.0076  0.1344
22197W        W42477  11.018   7.714  14.397 -0.2292  0.0735  0.0284
22198W        W42478   7.937   2.086   4.275  0.1616  0.4394 -0.1464
22199W        W42479   3.405  13.742  16.330 -0.1278  0.2155  0.0709
22200W        W42480   1.705   6.785   4.937 -0.1594  0.1624 -0.0286
22201W        W42481  12.443   8.699   1.786  0.2792 -0.2557  0.1746
22202W        W42482   9.897   8.805   3.289 -0.0728 -0.0580  0.0197
22203W        W42483  17.536   1.488  15.563  0.1281  0.1205 -0.0088
22204W        W42484  14.859   9.939   3.534 -0.2661 -0.0510  0.1838
22205W        W42485   8.013  15.347  13.772  0.3496 -0.1535 -0.3184
22206W        W42486  16.148  15.625  15.484 -0.1838 -0.0628  0.2460
22207W        W42487   9.273  17.139   2.789  0.0130  0.0478  0.0771
22208W        W42488   8.119  10.991  16.450 -0.0640 -0.1150 -0.1737
22209W        W42489  10.780  17.692  15.321  0.0969  0.2877 -0.0427
22210W        W42490   2.399   7.799   4.662 -0.1856 -0.1076  0.0721
22211W        W42491   4.450  14.489  16.509 -0.0043  0.0102 -0.1154
22212W        W42492   0.412  14.514   2.260 -0.2175 -0.0890 -0.3063
22213W        W42493   3.212  10.448  14.392 -0.1179 -0.1897  0.1612
22214W        W42494  13.458  11.883  13.880 -0.2882 -0.1757  0.0269
22215W        W42495   8.163   0.226   2.789 -0.4076  0.1905 -0.0451
22216W        W42496  10.422   1.899  14.301 -0.1457 -0.0822  0.1487
22217W        W42497  16.483   1.922   1.934  0.1705 -0.3003 -0.0060
22218W        W42498  17.280  10.143  16.926  0.1668 -0.0892 -0.0736
22219W        W42499  17.099   5.009   1.321  0.0032  0.0731 -0.1941
22220W        W42500  11.910   4.461  12.855  0.2065 -0.4458 -0.0290
22221W        W42501   1.021   0.756   4.588 -0.0481 -0.1419  0.1301
22222W        W42502  12.428  14.930   2.890 -0.1370  0.1283 -0.0547
22223W        W42503   8.942  16.910  14.435  0.0595  0.3674 -0.0079
22224W        W42504   0.381   3.713   3.459 -0.2253 -0.1777 -0.0967
22225W        W42505  12.187  12.509  16.491  0.1725 -0.0349  0.0219
22226W        W42506  17.553   4.638   1.353  0.3335 -0.1149 -0.4095
22227W        W42507  11.526   0.862  16.298 -0.0896  0.2736 -0.1716
22228W        W42508   3.229  11.507   2.154  0.0882 -0.0764 -0.0972
22229W        W42509   9.246  13.828  14.493  0.0601 -0.0448  0.0060
22230W        W42510   5.770   5.514  15.680  0.0183 -0.2212  0.0353
22231W        W42511   4.449   5.458  15.539  0.1121  0.1227 -0.3663
22232W        W42512   0.067  13.809   4.449 -0.1887 -0.0360 -0.0156
22233W        W42513  17.399   5.266   4.236 -0.2491  0.0978 -0.0530
22234W        W42514  13.524   9.046  14.156  0.0225  0.2661 -0.0765
22235W        W42515   7.004  13.545   1.589  0.3296 -0.3122 -0.0462
22236W        W42516   1.974  12.017   1.899 -0.2365 -0.0445 -0.1527
22237W        W42517   2.822   0.043   1.235  0.2809  0.1247 -0.2087
22238W        W42518  16.815   7.197  16.108  0.1484 -0.0853 -0.1845
22239W        W42519   9.891  13.314   3.905  0.0991 -0.0519  0.2371
22240W        W42520   4.490  14.932   0.784  0.1283 -0.0389  0.0653
22241W        W42521  16.982   2.684   1.477  0.1793  0.1244 -0.1408
22242W        W42522   4.979   9.648  16.764 -0.1615  0.2168  0.1114
22243W        W42523  17.610   5.928  14.773  0.1500 -0.1226  0.4408
22244W        W42524   9.815  16.041   4.220 -0.1195 -0.0935 -0.4348
22245W        W42525  10.335   7.326  14.910  0.2230 -0.0265 -0.3835
22246W        W42526   2.543  13.118  13.425  0.0157 -0.0050 -0.0623
22247W        W42527   2.343  13.940  16.123  0.0249  0.0351 -0.1345
22248W        W42528   3.703   6.482  12.153  0.1311  0.0122 -0.1372
22249W        W42529   3.833  10.904  13.003 -0.0008 -0.0563 -0.2809
22250W        W42530   7.306   0.555  15.394  0.0700 -0.0675 -0.0166
22251W        W42531   1.715   3.173  13.984  0.0444  0.2137  0.0910
22252W        W42532   4.434   5.496  13.978  0.0076 -0.2041 -0.2860
22253W        W42533  15.682   1.288   2.065 -0.2109 -0.1731  0.1809
22254W        W42534   6.467   8.059  16.235  0.0182  0.1774 -0.1052
22255W        W42535   8.216   8.546   3.408  0.2155  0.0037 -0.1439
22256W        W42536   7.313   6.442  13.610  0.1586 -0.2921  0.0686
22257W        W42537  15.773  17.442   4.648 -0.1100 -0.1536 -0.1614
22258W        W42538   3.870  15.625   4.790  0.2016  0.0133 -0.0436
22259W        W42539   4.814  14.480   2.538 -0.0934 -0.1659 -0.2279
22260W        W42540  15.314  13.057  15.283 -0.1706  0.0408  0.0552
22261W        W42541   2.315   9.296  16.166  0.1616  0.0412 -0.1772
22262W        W42542   3.498   0.279  14.602 -0.3999 -0.0426 -0.0172
22263W        W42543   0.657   3.824   4.270 -0.3552  0.0101 -0.4381
22264W        W42544   9.619  11.511  12.538 -0.1749 -0.0522 -0.1257
22265W        W42545   3.980   5.647   4.355 -0.0047 -0.0457  0.0926
22266W        W42546  15.441   6.712  16.071 -0.1582 -0.2144 -0.0646
22267W        W42547   9.286   4.039   0.945 -0.3906  0.0513  0.0039
22268W        W42548   7.543   2.616   4.316  0.1026 -0.4176 -0.2480
22269W        W42549   7.643  16.097  11.077  0.0688  0.0837 -0.1021
22270W        W42550   7.112   5.400  16.272 -0.4316 -0.0486 -0.2325
22271W        W42551   3.830   7.876  16.662 -0.3293  0.1262  0.0465
22272W        W42552   6.834  14.461   3.156 -0.0220  0.0172 -0.2507
22273W        W42553  10.270  10.023   2.347 -0.0013  0.0048  0.1580
22274W        W42554  10.970  15.645  11.687 -0.2878 -0.3344  0.0575
22275W        W42555   8.595  13.769  14.939 -0.1303 -0.0261 -0.0186
22276W        W42556   6.728  11.926  13.116  0.2876 -0.0616  0.1328
22277W        W42557  13.582  16.747   0.502  0.2857  0.2290 -0.2186
22278W        W42558   6.086  10.403  13.933 -0.0717 -0.1807  0.3153
22279W        W42559  16.988   4.673  16.123 -0.3262 -0.0505  0.0756
22280W        W42560   2.066   4.782   1.646 -0.2120  0.2881 -0.0716
22281W        W42561  15.887   3.986   2.370  0.0827 -0.2002  0.0381
22282W        W42562  15.704  10.975   2.963  0.0114 -0.1315  0.0354
22283W        W42563  16.977   9.688  14.952  0.2252  0.2112  0.0158
22284W        W42564   5.503  16.399   3.227 -0.0695  0.1981  0.1647
22285W        W42565  15.376   6.249   3.498 -0.2426 -0.0657  0.1453
22286W        W42566   6.639   3.076  14.161  0.0048  0.2119  0.1160
22287W        W42567   7.276   5.570  14.106  0.2197 -0.0152 -0.2765
22288W        W42568  17.134  15.415  16.420 -0.2417  0.1070 -0.1787
22289W        W42569  13.628   8.761  15.411  0.1297 -0.3088  0.0417
22290W        W42570   4.567   7.203  15.684  0.1931 -0.1021 -0.3059
22291W        W42571  14.060  17.222  16.271  0.0255  0.2961  0.0877
22292W        W42572   1.152   5.565  13.117 -0.0663 -0.0449  0.0853
22293W        W42573   5.677  12.601   1.310 -0.1278 -0.0938  0.2586
22294W        W42574  15.049   0.622  16.042  0.0171  0.0455 -0.1041
22295W        W42575  11.368  16.853   2.279  0.1463  0.1329  0.0699
22296W        W42576   4.492  16.534   0.176  0.0037  0.0927 -0.0349
22297W        W42577  14.238   9.065  13.482 -0.0604 -0.0670 -0.0842
22298W        W42578  16.446   2.959   5.168 -0.1442  0.0306 -0.2737
22299W        W42579   5.210   4.717  13.135  0.1220  0.0116 -0.2405
22300W        W42580   4.638   7.831  16.325 -0.1835  0.0439 -0.1393
22301W        W42581  13.481   6.432   0.069  0.0369  0.0234 -0.1012
22302W        W42582  14.157   5.600  15.457  0.2143 -0.1815  0.2811
22303W        W42583  15.062   4.391   0.131  0.4265  0.0178  0.2180
22304W        W42584   9.631   4.031   2.425 -0.0607 -0.2528  0.0505
22305W        W42585   8.951  14.492   3.742 -0.0042 -0.1977  0.2599
22306W        W42586   4.056  12.411   3.511  0.0494 -0.4173 -0.0566
22307W        W42587  13.117   1.759   5.038 -0.1332  0.0430  0.4865
22308W        W42588   7.797   1.454  13.315  0.0548  0.1702 -0.0906
22309W        W42589   1.393  12.958   4.866  0.1301 -0.2460  0.0930
22310W        W42590   1.752   0.817  16.173 -0.3097  0.0485 -0.0622
22311W        W42591   9.232   0.982   0.445 -0.3078  0.0927  0.1175
22312W        W42592   1.910  16.800   3.047  0.3425 -0.3678 -0.3356
22313W        W42593  16.603   9.351   1.797 -0.2111  0.1616  0.0666
22314W        W42594  11.690   6.966   2.418 -0.1500  0.3096 -0.2843
22315W        W42595   7.593   9.786  16.104  0.1155  0.0784 -0.1656
22316W        W42596  10.551   3.588   0.311  0.1377 -0.0659 -0.2350
22317W        W42597  11.334   8.940  14.552 -0.1448 -0.0409  0.1536
22318W        W42598  16.314  10.120  12.543 -0.1440  0.0804 -0.0967
22319W        W42599  14.464  13.629   1.081 -0.0079  0.2252 -0.1148
22320W        W42600   7.617  17.651   2.188 -0.2730 -0.1454  0.1045
22321W        W42601   2.495   6.359   1.790 -0.3146 -0.1325  0.1790
22322W        W42602   5.911   6.035   1.994 -0.1864  0.0296 -0.0365
22323W        W42603  10.878  16.474  15.893 -0.1839  0.0609  0.0921
22324W        W42604   5.172   1.463  13.691  0.2250  0.0517 -0.1638
22325W        W42605   7.379  16.452   2.885 -0.0778 -0.1106 -0.0086
22326W        W42606   4.160   4.530  15.421 -0.0286 -0.3458  0.1647
22327W        W42607   4.234  15.229   1.039 -0.0220 -0.2143  0.2807
22328W        W42608   7.980  12.370  14.154  0.1667 -0.3803  0.0808
22329W        W42609   1.895  17.408  14.996  0.0210  0.2875 -0.1862
22330W        W42610   1.533  12.831  16.782 -0.0997  0.0438 -0.0419
22331W        W42611   8.798  16.441  11.694  0.5977  0.0051  0.0027
22332W        W42612   6.784   6.772   3.695 -0.3308 -0.0890  0.2326
22333W        W42613   3.353  15.416  14.747 -0.1220 -0.1384 -0.1085
22334W        W42614   9.534  17.367   4.273  0.2116  0.1536  0.1821
22335W        W42615  15.174   0.194   2.668  0.0458  0.2562  0.0607
22336W        W42616   2.769  17.492   0.381  0.0436  0.2539 -0.0222
22337W        W42617  13.941  10.118   2.570 -0.1489  0.0160  0.0946
22338W        W42618  17.253   3.786   2.643 -0.2219 -0.0685  0.2162
22339W        W42619  16.516   0.706  16.405 -0.1499 -0.2802 -0.2802
22340W        W42620  16.928   2.927  12.738  0.0440 -0.2369 -0.1317
22341W        W42621  16.837  12.678   1.770  0.3970 -0.1041 -0.0809
22342W        W42622  15.593  14.428  13.717 -0.2298  0.0173 -0.1985
22343W        W42623   0.319  12.355  14.825 -0.1711 -0.0682  0.1954
22344W        W42624   7.972   4.226  12.689 -0.2652 -0.0692  0.1236
22345W        W42625   2.885   1.171   1.961  0.1087 -0.1903 -0.2400
22346W        W42626   2.436   5.217   2.892 -0.0012  0.0487  0.0192
22347W        W42627  12.878   0.291  15.066 -0.1992  0.3065 -0.2191
22348W        W42628  15.143   3.935   1.448 -0.3398  0.2151  0.0763
22349W        W42629   9.513   5.091  12.921 -0.0176 -0.1984  0.2965
22350W        W42630   8.134  11.768   2.247 -0.0924  0.1550  0.3854
22351W        W42631  13.750   9.558  16.952  0.2769  0.0732  0.1919
22352W        W42632   3.905   1.064  14.185  0.2111  0.1305 -0.0498
22353W        W42633   7.031   6.426  15.842  0.1520 -0.2014 -0.1151
22354W        W42634  12.497  12.779   0.875  0.0252  0.3554  0.1429
22355W        W42635  12.349   9.879  13.727 -0.0258  0.1189  0.0435
22356W        W42636   8.227   2.542   0.649  0.0272 -0.3529  0.1289
22357W        W42637  17.022  10.911  16.873 -0.1110  0.0286 -0.1002
22358W        W42638   4.926  11.782  12.797 -0.0576  0.1280  0.1075
22359W        W42639   4.686   0.084  13.327  0.1800 -0.2291 -0.0710
22360W        W42640  11.866  14.110   1.457 -0.0303  0.2648 -0.4115
22361W        W42641  13.573  17.058  15.393  0.0041  0.1696 -0.1271
22362W        W42642   2.941  11.988   2.987 -0.3964  0.3829 -0.4211
22363W        W42643  17.270   9.447  13.567  0.0961  0.2025 -0.1538
22364W        W42644   6.913  17.521  13.027  0.0738 -0.0874 -0.1857
22365W        W42645  16.578   3.251  14.794 -0.1313 -0.0449  0.1247
22366W        W42646  10.747  11.718   4.698 -0.0471  0.0301  0.0427
22367W        W42647  16.872   0.881   0.283  0.2437 -0.0266 -0.0577
22368W        W42648   6.065   0.538   1.590  0.0739  0.3041  0.1820
22369W        W42649  10.179   5.272   1.530 -0.0865 -0.2035 -0.1286
22370W        W42650  11.178  11.447  15.217 -0.0783  0.0902  0.1290
22371W        W42651   5.207  12.077  14.857  0.2394  0.0997 -0.1798
22372W        W42652  16.807   9.541  12.592  0.0480  0.0446 -0.0786
22373W        W42653   3.492  17.543   2.893  0.2929 -0.0496 -0.0179
22374W        W42654  14.136   7.066  13.497  0.0788  0.1898  0.3021
22375W        W42655   9.765   1.990   2.006 -0.1034  0.0988  0.0248
22376W        W42656   7.638   8.742   2.500 -0.2655 -0.0328 -0.0712
22377W        W42657  12.369   4.637   1.007 -0.0477  0.0946 -0.3403
22378W        W42658   7.444   6.618  16.950  0.0179  0.0447  0.1032
22379W        W42659   4.671  15.742  14.059  0.2056 -0.1566  0.1546
22380W        W42660  11.497  12.193  13.938 -0.2223  0.0476  0.2940
22381W        W42661   2.861  13.412   3.957  0.2329 -0.1543  0.1310
22382W        W42662   1.733   6.540  12.398 -0.0461 -0.1641  0.0471
22383W        W42663  13.859  10.408   1.221  0.2839  0.0231  0.1532
22384W        W42664  15.723   3.359   4.753  0.3979 -0.1771  0.1194
22385W        W42665   1.740   6.438   1.015  0.2081 -0.1082  0.1672
22386W        W42666   4.890   4.797   1.878 -0.0724 -0.0167 -0.1422
22387W        W42667  13.627   8.993  12.406  0.2341  0.0036  0.0833
22388W        W42668   8.201  11.453  15.201  0.3025  0.3581 -0.1879
22389W        W42669   3.529   6.341  13.964  0.0553  0.1707 -0.1347
22390W        W42670  14.508   0.495  13.320  0.0100  0.0569 -0.0904
22391W        W42671  16.294   5.625  13.472 -0.1744  0.0952 -0.1283
22392W        W42672   3.871   1.383  12.585 -0.1199 -0.1198  0.2802
22393W        W42673   4.676   3.293   4.844  0.0683  0.0733 -0.1289
22394W        W42674  15.846  16.361  14.587 -0.2472  0.1392  0.2514
22395W        W42675   6.164  12.137   2.776 -0.2500  0.1475  0.3327
22396W        W42676   8.449  10.579  16.910 -0.1342  0.2276 -0.1579
22397W        W42677  12.170   5.655  16.193  0.3050 -0.4332  0.1104
22398W        W42678   4.271  17.039   3.339 -0.2292  0.1583  0.0343
22399W        W42679   9.181  15.630  13.797 -0.0647  0.2494  0.0313
22400W        W42680  14.898   7.658  12.520 -0.0722  0.0724  0.0832
22401W        W42681  10.021  16.481  16.894  0.1670 -0.0785  0.0727
22402W        W42682   0.956  16.157  16.678  0.2345  0.0819  0.0488
22403W        W42683  11.025   5.166   3.993 -0.0450  0.0616 -0.1840
22404W        W42684  15.304   1.614   3.633  0.1748  0.1762 -0.1161
22405W        W42685   7.114   7.421  15.973  0.4358  0.1700 -0.2560
22406W        W42686   5.123   0.699   4.687 -0.0760 -0.1635  0.1644
22407W        W42687  14.777   9.405   0.364 -0.1020  0.0487 -0.1411
22408W        W42688  11.193  17.319   3.990 -0.0250  0.1428  0.1054
22409W        W42689   1.451   4.681  14.224 -0.0484 -0.3386 -0.1840
22410W        W42690  17.386  13.860   0.598  0.0159  0.0701  0.0833
22411W        W42691   5.087   8.884   2.484 -0.1490  0.0980 -0.1168
22412W        W42692   6.579   3.657  15.685 -0.0703  0.3331 -0.2022
22413W        W42693   9.877  13.840   3.801  0.1649  0.2320 -0.0996
22414W        W42694  12.546   4.341   2.825 -0.0326 -0.0716  0.0709
22415W        W42695   3.019  15.945  16.823 -0.1503  0.0592  0.0218
22416W        W42696   7.664  17.380  13.552 -0.1215 -0.1403  0.1087
22417W        W42697   0.855   1.998   2.096  0.0592 -0.0715 -0.0858
22418W        W42698  15.893  12.602   0.048 -0.0404  0.1298  0.3764
22419W        W42699   0.483  16.509  16.748 -0.2551 -0.0351  0.4451
22420W        W42700  11.597  14.465   1.711 -0.1136 -0.1326  0.1229
22421W        W42701  10.232  16.603  13.424 -0.0991  0.1249  0.4050
22422W        W42702   7.560  13.969   3.828  0.2233 -0.3188  0.1448
22423W        W42703   5.361   3.004  14.586  0.1251  0.3036 -0.2222
22424W        W42704   5.822   4.042   3.642 -0.0610 -0.1304 -0.2856
22425W        W42705   7.880   5.395  16.888  0.0404 -0.1393  0.0109
22426W        W42706  16.522   5.331   4.951 -0.1499  0.0896 -0.0847
22427W        W42707   7.320   9.423   2.219 -0.0759 -0.0206 -0.0680
22428W        W42708  10.807  11.112  13.356 -0.0316 -0.0788 -0.2694
22429W        W42709  11.575   1.994  15.252  0.1483 -0.0723  0.1904
22430W        W42710  12.376   2.014   3.323  0.4132 -0.0279  0.4066
22431W        W42711   1.450   5.653  16.572 -0.3872  0.5272 -0.1058
22432W        W42712  11.564   7.280  15.785 -0.0211  0.1754  0.2653
22433W        W42713  12.595   2.611   4.625 -0.1391  0.0512 -0.1145
22434W        W42714  14.978  16.404  16.211 -0.2347 -0.0740 -0.0368
22435W        W42715   1.735   0.940  16.708  0.1734 -0.1022 -0.2927
22436W        W42716   8.580  17.308  16.375  0.0481  0.0231  0.0698
22437W        W42717   4.135  12.479  13.868 -0.1178 -0.1534  0.1789
22438W        W42718   5.546   9.252   4.157 -0.0317 -0.4971 -0.0550
22439W        W42719   9.441   7.540   1.301 -0.0083 -0.2275 -0.0241
22440W        W42720   9.153   7.979  14.866  0.3752  0.2490  0.1778
22441W        W42721   3.082   3.920   1.744 -0.2322  0.1315 -0.0042
22442W        W42722   0.060   7.522   2.275 -0.0614  0.0057 -0.0606
22443W        W42723   0.656  14.355   2.707 -0.3143  0.0928 -0.1741
22444W        W42724  10.634  10.993   0.891  0.2891 -0.3809  0.0546
22445W        W42725  10.398   8.902  14.621  0.1326  0.2896  0.1368
22446W        W42726   9.541   4.320  13.570 -0.1954  0.2395 -0.3354
22447W        W42727  10.347   0.441  13.347 -0.0873  0.0185 -0.2059
22448W        W42728  13.344   4.882   3.169 -0.1085  0.2584  0.0320
22449W        W42729   1.465  13.404  13.769  0.4103 -0.0308 -0.2713
22450W        W42730  17.177  15.074  12.834  0.2037  0.0543 -0.0865
22451W        W42731  14.105  12.325  16.182  0.2933  0.0712  0.2809
22452W        W42732  16.009  10.025   3.897  0.1254 -0.0750 -0.1569
22453W        W42733  13.184  13.856   0.241 -0.1431  0.2372  0.0903
22454W        W42734   9.375  14.233   1.073  0.2761 -0.0362  0.1925
22455W        W42735  15.903  15.771  13.354 -0.0767  0.0453 -0.1867
22456W        W42736   5.642   1.626  14.294 -0.2188  0.0257 -0.1365
22457W        W42737  14.874  15.000   4.359 -0.2781 -0.0854 -0.0660
22458W        W42738   8.340  12.760  16.254 -0.5728  0.0495 -0.3905
22459W        W42739  13.259   8.733  12.159  0.0118 -0.5455 -0.1668
22460W        W42740   7.577   6.291  12.471 -0.2687  0.1969  0.1116
22461W        W42741   5.503  10.450   1.733 -0.0648 -0.1116  0.2920
22462W        W42742   3.032   3.654  16.042 -0.0123  0.0630 -0.1476
22463W        W42743   8.594  15.195   1.576 -0.0425 -0.0488 -0.0737
22464W        W42744  12.900   4.095   1.273  0.1319  0.0878 -0.2187
22465W        W42745  12.202  14.529   0.536 -0.0365  0.0924 -0.0177
22466W        W42746   0.574  16.339  13.739 -0.1098 -0.1820 -0.1748
22467W        W42747   8.871   5.679   1.839 -0.0429 -0.2751 -0.1896
22468W        W42748  11.709  17.478   4.202  0.0376  0.1119 -0.4703
22469W        W42749   3.613  10.718   1.700 -0.3600 -0.3012  0.0472
22470W        W42750   8.359  13.362   1.750  0.1164  0.1561 -0.2071
22471W        W42751  10.331   7.640   4.592  0.0857 -0.1249 -0.1446
22472W        W42752   4.511  17.050  13.650 -0.1180  0.0317  0.1007
22473W        W42753   6.243   1.539   4.732 -0.1768 -0.0954  0.1813
22474W        W42754   6.347   8.823   4.116  0.3388 -0.2350  0.2300
22475W        W42755  14.069  13.470   3.314  0.0293  0.1524 -0.0736
22476W        W42756   6.188  16.105   3.758  0.0394  0.0284 -0.1473
22477W        W42757  12.564   4.613  16.573  0.1471 -0.0806 -0.0509
22478W        W42758  14.138  12.670   1.176 -0.2867 -0.0643  0.0926
22479W        W42759  13.624  14.265   2.322  0.1720 -0.0224  0.1157
22480W        W42760   0.414  17.320   0.165  0.1379 -0.0713 -0.0184
22481W        W42761   6.448  15.443  12.783  0.0566  0.0870  0.0139
22482W        W42762  10.682  10.282  13.016  0.0438  0.0491 -0.0413
22483W        W42763  14.111  17.722   1.394 -0.0879  0.0851  0.0175
22484W        W42764  10.496   4.406   0.996  0.0105 -0.0550 -0.0798
22485W        W42765  13.186   3.956   3.046  0.0739  0.1550 -0.1437
22486W        W42766   8.376   6.666  13.058  0.1907  0.1326  0.0805
22487W        W42767  11.891  17.528   4.637  0.3695  0.0973  0.1417
22488W        W42768   7.741  15.624  12.317  0.0263  0.0734  0.2860
22489W        W42769   8.328   9.005  12.523  0.3791  0.0340 -0.1999
22490W        W42770  10.518  17.046  14.602  0.1360 -0.1696 -0.1113
22491W        W42771   9.511   2.059   1.549  0.0930  0.1311  0.0667
22492W        W42772  11.676   0.599  14.822 -0.1125 -0.2557  0.1084
22493W        W42773   5.255  11.705  16.559 -0.1672  0.0969  0.1868
22494W        W42774   5.053   1.151  15.504 -0.1024  0.1635  0.0473
22495W        W42775  14.295   3.041   1.355 -0.2203 -0.0193  0.0653
22496W        W42776  15.537   0.164  13.924  0.1895 -0.1341  0.2114
22497W        W42777  10.965  14.774   4.436  0.0484  0.0089  0.0137
22498W        W42778   9.002  14.277  15.310 -0.3039 -0.1609  0.0880
22499W        W42779  14.064   4.710  15.519  0.5122 -0.1006 -0.0058
22500W        W42780  14.014   4.571  15.031  0.0520  0.0499  0.0261
22501W        W42781   0.671  15.079  16.773 -0.1087 -0.4168  0.2024
22502W        W42782  13.114   6.962  13.121  0.3262  0.0517 -0.0063
22503W        W42783  10.040  14.954   4.308  0.1295  0.1268  0.0365
22504W        W42784   3.443   6.922  14.464 -0.2255  0.0775 -0.0011
22505W        W42785   2.976  12.599  17.018 -0.3085  0.2883 -0.3427
22506W        W42786  12.435   8.546  14.815 -0.0686 -0.0509 -0.1244
22507W        W42787   7.399  17.547  14.618 -0.0992  0.1935  0.2463
22508W        W42788  13.269   6.148   1.882 -0.0281 -0.1282 -0.0325
22509W        W42789  14.837   4.494   3.650 -0.1152 -0.0567  0.2182
22510W        W42790  14.194  13.919   3.487  0.1062  0.5393 -0.1712
22511W        W42791   9.219   9.789  16.584 -0.2005  0.0889 -0.0147
22512W        W42792  10.965  15.323  13.401  0.0666 -0.1056  0.0590
22513W        W42793  16.633  15.624   0.758  0.1489  0.1517 -0.1059
22514W        W42794  17.577  12.170  12.507 -0.2206 -0.0400  0.3859
22515W        W42795   2.940   9.568  14.501 -0.3364  0.2880  0.1090
22516W        W42796  14.486  13.495   2.937  0.2598  0.2298  0.2458
22517W        W42797  17.407   4.208  15.422  0.1648 -0.0607 -0.0480
22518W        W42798   5.630   9.787  16.490  0.1656 -0.0332  0.0308
22519W        W42799  16.341   5.943   3.090  0.0001 -0.1217  0.0846
22520W        W42800   8.258   0.108   0.080 -0.1741  0.0580 -0.2630
22521W        W42801  12.040   1.778   1.591 -0.0344  0.1050  0.2657
22522W        W42802   5.758   3.395  14.364  0.0590  0.0269  0.1638
22523W        W42803  11.137   8.581  16.398  0.0145  0.0433  0.1629
22524W        W42804   6.813   5.872   0.014  0.1773  0.2280 -0.0820
22525W        W42805   7.023  12.333  12.322 -0.0827 -0.2854  0.3252
22526W        W42806  17.499   0.796   4.785 -0.2102 -0.2739 -0.0988
22527W        W42807   6.118   8.048   4.421  0.1579 -0.1505  0.3237
22528W        W42808   2.504  15.834   3.180  0.0425  0.2089  0.0092
22529W        W42809   3.079  10.472   4.354  0.1134  0.2034 -0.1294
22530W        W42810   4.005  14.464   4.115  0.1327 -0.0419 -0.0042
22531W        W42811   7.281   8.036  16.556 -0.0012 -0.0194  0.1201
22532W        W42812   4.868   9.824   4.431  0.0548 -0.0493  0.0079
22533W        W42813   1.592  13.015  13.489  0.1512  0.1394 -0.1036
22534W        W42814   7.132  13.106   3.991  0.1293  0.3922  0.0170
22535W        W42815  13.292   9.393  12.353  0.0219  0.0666  0.1639
22536W        W42816   5.395  16.102   4.606  0.1445 -0.0187  0.0895
22537W        W42817   4.657  13.487  13.071 -0.0720  0.3720  0.2083
22538W        W42818   1.558  17.651  15.736  0.0973  0.0162 -0.0914
22539W        W42819   9.400   8.077   0.192 -0.0352  0.0807 -0.1219
22540W        W42820   5.962   7.116   4.035  0.0576  0.0270  0.0030
22541W        W42821  17.524  11.533  12.259 -0.2836  0.0885  0.2097
22542W        W42822   7.046   3.850   1.174 -0.0339  0.0298  0.0907
22543W        W42823  12.734   3.126  16.701 -0.3180 -0.1713  0.2140
22544W        W42824   4.335   8.002  16.774 -0.0683  0.1452 -0.0024
22545W        W42825  14.220  11.254  14.350 -0.0753 -0.0185  0.2509
22546W        W42826   7.993   9.932  14.455  0.1678 -0.0015 -0.2396
22547W        W42827  13.587   9.880   3.061  0.0217  0.1731 -0.1418
22548W        W42828   0.391  15.110   4.436  0.0835 -0.0167 -0.1013
22549W        W42829  15.970   6.218   0.061  0.0649  0.1114 -0.0429
22550W        W42830   6.279   0.870  14.223 -0.2521 -0.1180  0.0997
22551W        W42831   5.067   0.307   3.688  0.1951 -0.0161 -0.1222
22552W        W42832   7.411  10.696  12.362  0.0803 -0.0546 -0.0151
22553W        W42833   4.871  12.170   2.293 -0.1983 -0.1124  0.2226
22554W        W42834   0.359  11.691   1.320  0.0910 -0.0072  0.0402
22555W        W42835   4.135   3.376   2.901 -0.3633  0.0227  0.0392
22556W        W42836   9.838  11.125   0.474  0.1199 -0.3639 -0.0495
22557W        W42837  12.122   3.635  12.991  0.3243  0.0012 -0.0052
22558W        W42838  12.682  15.007  13.628  0.2861  0.1616 -0.1491
22559W        W42839  17.044  17.150   3.529 -0.1272 -0.0242  0.3813
22560W        W42840  14.027  11.999   3.169 -0.1853 -0.1168  0.0729
22561W        W42841  10.844   7.309  14.718  0.2841  0.0841  0.1780
22562W        W42842   2.795  14.347  11.010 -0.0034 -0.1764  0.2917
22563W        W42843  16.140   6.470  13.357  0.1297  0.0255 -0.1162
22564W        W42844   8.833   6.176   2.015  0.1044  0.0144  0.0294
22565W        W42845  15.570   2.566  13.302  0.3250  0.2474 -0.1829
22566W        W42846   8.595  15.542   1.213  0.0314 -0.0873  0.0630
22567W        W42847   3.221  15.569  12.365 -0.1005  0.0740  0.2817
22568W        W42848   5.169  13.705   3.163 -0.1266  0.2905  0.1844
22569W        W42849   6.625   7.610  15.914 -0.1193  0.0366 -0.1787
22570W        W42850   4.336   8.583  16.446  0.1517  0.2065  0.4436
22571W        W42851   5.144   7.262  13.856 -0.1903  0.2355 -0.2251
22572W        W42852   2.353  16.707   4.983  0.2000  0.0644  0.1283
22573W        W42853   5.604  11.463  12.350  0.0013 -0.0542  0.0957
22574W        W42854  12.196  11.342   1.704  0.2503  0.0537  0.0357
22575W        W42855  17.731   9.998  13.706  0.4978  0.1196 -0.1205
22576W        W42856  12.983  11.904   4.693  0.1116 -0.0962 -0.3289
22577W        W42857   0.334   6.944   1.298  0.1692  0.0074 -0.1370
22578W        W42858   6.391  12.993  15.352  0.2603 -0.0961  0.2239
22579W        W42859  12.237   3.967   0.111  0.1123 -0.0873 -0.0732
22580W        W42860  16.859  14.037   5.730  0.0504 -0.0397  0.2141
22581W        W42861  16.337   6.543  12.933 -0.1548 -0.1378  0.3135
22582W        W42862  14.107  17.492   5.083 -0.0951  0.1442 -0.3011
22583W        W42863   7.837  15.434   4.811 -0.1740  0.2062  0.0420
22584W        W42864   5.422  12.930  16.381  0.0398  0.0909  0.0798
22585W        W42865   1.347   2.224   2.175 -0.2023 -0.0305  0.0619
22586W        W42866  14.320   8.025   4.302 -0.0661 -0.1120 -0.0142
22587W        W42867  15.153  15.848  16.858 -0.2334  0.0438 -0.2677
22588W        W42868   2.037  10.962   1.542  0.1786 -0.1287 -0.3534
22589W        W42869  16.429   2.304  12.408 -0.0414  0.2120 -0.0654
22590W        W42870   8.137   4.396  12.184 -0.2362  0.0654 -0.1738
22591W        W42871  10.811   1.882   3.038  0.0161  0.0883  0.3036
22592W        W42872  13.587  10.427   4.067 -0.2691 -0.2115 -0.0566
22593W        W42873  12.859   5.344   0.423  0.0934 -0.2644  0.0326
22594W        W42874   7.713   7.015  15.663  0.3922  0.0969 -0.1819
22595W        W42875  16.117  12.620   3.352  0.0967 -0.0321 -0.3373
22596W        W42876   4.791   8.629   1.679 -0.0643  0.1391 -0.3776
22597W        W42877  12.467   4.491   2.353 -0.0376  0.0331 -0.3765
22598W        W42878  17.095  12.044  12.687 -0.0471  0.0481 -0.1402
22599W        W42879  12.257  16.333  12.863  0.3415  0.0869  0.0668
22600W        W42880   4.338   6.845  15.970  0.1396 -0.1153  0.1723
22601W        W42881   9.970  12.703   1.602 -0.1832  0.4395 -0.1636
22602W        W42882  13.145   7.268  16.870  0.2009  0.1088  0.3723
22603W        W42883   2.697  16.823   3.011 -0.0572 -0.0414  0.0340
22604W        W42884  15.731   0.613   4.682  0.0954  0.1257  0.1783
22605W        W42885  13.315   4.771   1.949 -0.0689  0.3829  0.1553
22606W        W42886  14.880   2.349   4.499 -0.0468 -0.0037 -0.1188
22607W        W42887  11.758  11.703  16.754  0.3638  0.0533 -0.0583
22608W        W42888  12.616  17.153  16.610  0.1325  0.1161 -0.2222
22609W        W42889   0.016   1.738  16.329 -0.1039 -0.3696  0.1429
22610W        W42890   9.555  12.330  15.251  0.0607  0.1116  0.0912
22611W        W42891   7.614   2.027  13.488  0.0741 -0.0169  0.2016
22612W        W42892  12.450  17.591  15.966  0.1836 -0.0580 -0.0423
22613W        W42893  10.399   4.344  14.907  0.1480  0.1082  0.2523
22614W        W42894  17.698  14.497  13.488 -0.1265  0.1166 -0.0335
22615W        W42895  16.709  13.274  13.776  0.0056  0.0204  0.0974
22616W        W42896   6.140  14.526  12.668  0.0763 -0.2434  0.3006
22617W        W42897   7.602   9.500  12.511 -0.1917  0.3697 -0.4203
22618W        W42898  16.978   6.426   2.673 -0.1879  0.2462  0.1814
22619W        W42899  13.630   5.450  14.151  0.0573  0.2381  0.3572
22620W        W42900   1.451   3.529   2.979 -0.1900  0.1173 -0.0999
22621W        W42901  12.121   6.629   2.962  0.1557 -0.1238  0.2598
22622W        W42902   7.379  13.959  12.290  0.1316 -0.2767 -0.0240
22623W        W42903   3.305  12.127   4.211  0.1006  0.0419 -0.1681
22624W        W42904  17.093  14.152   2.266  0.3566 -0.0181  0.0811
22625W        W42905   7.476   2.153   3.284 -0.1046 -0.1775  0.0324
22626W        W42906   9.644  17.470  16.004 -0.5414  0.0545 -0.2770
22627W        W42907  13.758   2.387  14.541 -0.0611  0.0062 -0.0125
22628W        W42908  11.130  13.919   0.097 -0.2453 -0.2999 -0.1101
22629W        W42909  14.589   3.931  14.997  0.2897  0.1570  0.0431
22630W        W42910  11.936   7.059   0.077  0.0442  0.1790  0.1437
22631W        W42911   5.930   7.762  15.052 -0.1040 -0.0399 -0.0501
22632W        W42912  16.846   0.238  12.658 -0.1422  0.3543 -0.0467
22633W        W42913   8.962   9.232   2.326  0.2095  0.0321 -0.0387
22634W        W42914   9.429   9.318  15.311 -0.2663  0.2157  0.2055
22635W        W42915   9.015  12.777  16.222 -0.2565  0.1861  0.1833
22636W        W42916  16.545  11.722  14.339  0.1893 -0.3650 -0.1887
22637W        W42917  11.978  12.718   0.700 -0.0033 -0.0324  0.0991
22638W        W42918   8.493   4.207  12.507  0.0769  0.3414  0.1816
22639W        W42919   5.716   5.666  14.221 -0.1138  0.0216  0.0164
22640W        W42920  11.964   7.908  15.138 -0.2086 -0.0359  0.3561
22641W        W42921  14.020   0.990  16.107  0.1145  0.2873 -0.0274
22642W        W42922  15.682   3.383  12.586 -0.1220  0.0415 -0.2310
22643W        W42923  10.638  17.611  15.873 -0.4370  0.1925 -0.0239
22644W        W42924   5.790   0.495   1.998 -0.2026 -0.1259  0.4156
22645W        W42925  14.512   1.447  12.087  0.1720  0.3393  0.1578
22646W        W42926   6.290  16.221   4.397  0.0591  0.1195  0.1677
22647W        W42927   9.909  10.644  12.598  0.0822 -0.0643 -0.1690
22648W        W42928  12.384   2.366   1.082  0.1843  0.1529  0.0258
22649W        W42929  12.002  14.633  16.313  0.3350 -0.1644  0.0801
22650W        W42930   4.501  12.168   3.622 -0.1164  0.0314 -0.2323
22651W        W42931   6.762   4.713  14.466  0.2831  0.0586  0.0375
22652W        W42932   1.959   2.248   2.091 -0.1617 -0.2344 -0.0629
22653W        W42933  12.288   0.876   4.568  0.3855  0.1374  0.2273
22654W        W42934   2.555  14.568  15.587 -0.0225  0.3847  0.0978
22655W        W42935   7.959   5.715  11.805 -0.1019  0.0025  0.2589
22656W        W42936   7.288   7.674  13.525 -0.4409 -0.0714 -0.0055
22657W        W42937   7.143  10.914  15.010 -0.1747 -0.0926  0.1284
22658W        W42938  10.271  12.348   3.783  0.1547 -0.0508 -0.2966
22659W        W42939   6.933   6.755   2.195 -0.0721 -0.2936  0.1448
22660W        W42940  11.025   1.665   0.400  0.0074  0.4804 -0.1918
22661W        W42941   4.715   5.443  14.817 -0.0261  0.2575 -0.1692
22662W        W42942   8.518  14.047   1.088  0.2289 -0.1292  0.2331
22663W        W42943  12.804  14.914  15.577  0.3789  0.2379 -0.1886
22664W        W42944   0.405  10.329  15.137  0.0267 -0.1083 -0.0393
22665W        W42945   0.470   1.473  16.455  0.0013  0.0985  0.0925
22666W        W42946   3.904  13.469   3.149 -0.1042 -0.0123  0.1387
22667W        W42947   6.853   9.239   1.321 -0.0232 -0.1548 -0.0070
22668W        W42948  10.994  14.708  10.703  0.1011 -0.1393 -0.0062
22669W        W42949   1.059   4.139   0.873  0.0033 -0.1316 -0.0101
22670W        W42950  14.500   0.037  13.116 -0.0130  0.1351  0.0554
22671W        W42951  15.731   6.372  16.729  0.2116 -0.2971  0.0891
22672W        W42952  17.021  12.257  16.535 -0.2154  0.0099  0.0058
22673W        W42953   9.047   0.463   0.318 -0.0440 -0.0554  0.0814
22674W        W42954  11.109   0.543  13.859 -0.2331  0.0230  0.0677
22675W        W42955  16.525   4.882   3.912 -0.2711 -0.0834  0.2126
22676W        W42956   4.837  13.297   4.026  0.1971  0.0778  0.0053
22677W        W42957   9.390  16.808   1.833 -0.2355  0.0215  0.1906
22678W        W42958   3.403   2.448  15.443  0.4037  0.3854 -0.0382
22679W        W42959  15.594  12.040  11.287  0.0281 -0.0920  0.1800
22680W        W42960   1.142   8.069   4.407  0.0747 -0.0528 -0.0244
22681W        W42961  17.407   9.685  14.009  0.0843 -0.1528 -0.1970
22682W        W42962   5.569  14.119   4.188 -0.1205 -0.0088  0.2041
22683W        W42963   7.103   7.212  14.945 -0.0430  0.3071  0.0574
22684W        W42964   6.892  15.074  16.332 -0.0651  0.1736 -0.1352
22685W        W42965  16.446   3.362  14.013 -0.2246 -0.4809 -0.1673
22686W        W42966   9.575  16.466   4.028  0.4895 -0.1482 -0.0986
22687W        W42967  14.046   6.281   1.908  0.3029  0.0301  0.0119
22688W        W42968  14.586   8.412   0.154 -0.2237  0.2809  0.2971
22689W        W42969   8.398  11.419  16.152 -0.2220 -0.4200  0.0020
22690W        W42970  15.797   6.517   4.178  0.1972  0.3611 -0.1005
22691W        W42971   1.001   6.857   3.493 -0.1533 -0.1588 -0.0694
22692W        W42972  15.211  13.609  14.546  0.1552 -0.6044  0.0161
22693W        W42973  16.941   1.253   2.376 -0.0296  0.0797  0.3057
22694W        W42974  16.685  14.158   3.314 -0.1102 -0.0308 -0.0618
22695W        W42975  15.210   4.801   1.719 -0.2022  0.0352 -0.6362
22696W        W42976  14.850   2.189  15.116 -0.0633 -0.0958 -0.0850
22697W        W42977   7.814  15.094   1.281 -0.0030 -0.0460 -0.0297
22698W        W42978   0.654   6.800   0.664 -0.2207  0.2321 -0.2218
22699W        W42979   7.699   0.396   1.944  0.1778  0.1322  0.2043
22700W        W42980   6.243   2.920  13.976 -0.1931 -0.0261 -0.0003
22701W        W42981   2.817  15.423  12.728  0.0057  0.0967  0.1082
22702W        W42982   5.146   1.757  15.109 -0.1935  0.0473  0.1619
22703W        W42983   7.516   1.151   4.434 -0.1415 -0.1581 -0.3366
22704W        W42984  17.310   0.545  12.609  0.1471 -0.2439 -0.1966
22705W        W42985   6.262   8.615   1.060  0.2657 -0.1621 -0.1474
22706W        W42986   1.813   0.969  14.953 -0.0118 -0.0030  0.1137
22707W        W42987  16.362   6.968   3.096 -0.0036  0.0523  0.0464
22708W        W42988   6.350   2.150  13.483 -0.3532  0.2347 -0.2495
22709W        W42989   0.557  16.536  15.006  0.0602  0.1397 -0.2359
22710W        W42990   2.036  17.344   0.493 -0.1116 -0.1193  0.2900
22711W        W42991   7.732  16.355   3.351 -0.2892  0.1808 -0.1247
22712W        W42992  12.699  15.449  15.762 -0.0538  0.2190 -0.1167
22713W        W42993  13.735  12.300  13.996  0.5079  0.0927 -0.1347
22714W        W42994  13.016  13.610  13.066  0.1411 -0.0461  0.2705
22715W        W42995   1.195   6.122   3.982  0.0849  0.0711  0.1384
22716W        W42996  16.216   2.631  16.282  0.2024  0.0549 -0.1361
22717W        W42997   5.575  17.394   4.209 -0.0745  0.0644 -0.2059
22718W        W42998   5.798   1.101   2.320  0.0894 -0.0837  0.1134
22719W        W42999  13.870   1.811  12.231  0.1885  0.0717  0.1328
22720W        W43000  16.776  12.498   2.609 -0.1985  0.3890 -0.2025
22721W        W43001  15.827  11.794  15.627 -0.1394  0.1399 -0.0198
22722W        W43002   7.273   8.465  13.575  0.1542 -0.5125 -0.1137
22723W        W43003  15.779   0.182   4.217  0.0004  0.4353 -0.3201
22724W        W43004  12.959  14.602   0.725  0.1197 -0.0439 -0.0551
22725W        W43005  11.734   7.536  14.752  0.1126 -0.0880 -0.1268
22726W        W43006   1.929   2.817   3.984  0.0132 -0.1965 -0.0258
22727W        W43007  12.482  16.062  15.295  0.2068  0.0513  0.1947
22728W        W43008   5.785   4.821  14.690 -0.1334  0.1709  0.0084
22729W        W43009   7.857   5.220  13.140 -0.0550  0.3388  0.0475
22730W        W43010   4.742   3.627   1.600 -0.0292  0.0488  0.3344
22731W        W43011   7.903  12.463  15.293 -0.1113  0.1181  0.0105
22732W        W43012   3.081  17.056   1.747 -0.1655 -0.4176 -0.1177
22733W        W43013   9.050   5.503   3.890 -0.1622 -0.1068 -0.2810
22734W        W43014   2.825  15.800   1.143  0.2355 -0.1119 -0.0420
22735W        W43015  10.507   2.349   2.732  0.0473 -0.0355  0.2340
22736W        W43016  10.510   1.572   3.911  0.0462 -0.1649  0.0770
22737W        W43017   6.120   6.765   2.940 -0.0581  0.2086  0.0795
22738W        W43018  15.947   8.320   3.675 -0.0477 -0.1131 -0.0323
22739W        W43019   4.942  12.555  13.407  0.0765  0.3192 -0.2052
22740W        W43020  14.986   1.844   1.044 -0.1350 -0.0286  0.0907
22741W        W43021   5.787   9.394   2.005  0.2306  0.0700  0.2953
22742W        W43022  16.556  13.048  15.468 -0.1072 -0.0300 -0.0367
22743W        W43023  10.973  12.802  13.698  0.2440 -0.2179 -0.1429
22744W        W43024  17.010  16.217  14.466 -0.0961 -0.1750 -0.3312
22745W        W43025   4.629  11.641   0.866  0.1019  0.0778 -0.0503
22746W        W43026   1.167   9.608  14.607 -0.0506 -0.0369  0.0419
22747W        W43027  13.103  11.563  15.011  0.1065  0.4034 -0.2799
22748W        W43028  12.804   7.624  15.497  0.2222  0.1418  0.2765
22749W        W43029   2.143   0.261  13.243  0.1152 -0.0370  0.3471
22750W        W43030  13.965  12.551   4.202  0.1447 -0.6421  0.0258
22751W        W43031  11.335  10.193   4.048 -0.1012  0.1353 -0.0886
22752W        W43032  11.791  10.608   1.942  0.1448 -0.2022  0.4377
22753W        W43033  16.698  10.640  12.387  0.2156 -0.0553 -0.0032
22754W        W43034   1.031   4.208   4.177 -0.1344 -0.2978 -0.4393
22755W        W43035   1.150   0.460  14.416 -0.0562 -0.2146  0.0726
22756W        W43036  10.219  15.640   5.030 -0.1949 -0.1148  0.0388
22757W        W43037   9.052  17.211   3.704 -0.2785 -0.0408 -0.0559
22758W        W43038   3.772  14.251  15.574  0.1412  0.1341 -0.3523
22759W        W43039  13.109   0.899  14.409 -0.2052 -0.0416 -0.2839
22760W        W43040  10.814  17.416  13.582 -0.0839  0.4052 -0.1630
22761W        W43041   0.341  14.990  15.504  0.3476  0.3781  0.0345
22762W        W43042   7.191  17.703   4.434 -0.2454  0.1079  0.1466
22763W        W43043   6.069  11.887  14.119  0.0983 -0.0400  0.1457
22764W        W43044   1.704   1.788  13.903  0.3884  0.1675 -0.2070
22765W        W43045   0.872   9.986  14.061  0.1839  0.0279  0.2064
22766W        W43046  16.192  16.196  13.418  0.1736 -0.0258 -0.0783
22767W        W43047  17.473  12.152   4.850  0.0099  0.0447  0.4398
22768W        W43048   3.789  15.337   1.348  0.0907  0.0521 -0.0639
22769W        W43049  10.111  10.225  13.926 -0.2122 -0.1053 -0.1445
22770W        W43050   1.355   0.593  15.922 -0.0963 -0.3290  0.0247
22771W        W43051  12.072   2.074  15.185  0.0298  0.0107 -0.1127
22772W        W43052  13.023   5.798   4.601 -0.3548 -0.2321  0.0913
22773W        W43053  13.202   3.148  15.447  0.1390  0.2321  0.1170
22774W        W43054   3.521  15.592  15.868 -0.0864  0.0944 -0.2698
22775W        W43055  16.866  12.637   3.241 -0.0219 -0.1298  0.2143
22776W        W43056   7.416  13.121  12.591 -0.0040 -0.2620 -0.4188
22777W        W43057  16.276  11.850  16.472 -0.3875  0.0095  0.3614
22778W        W43058   4.399  15.521  16.401  0.3672 -0.0812 -0.3330
22779W        W43059  13.607  11.278  12.404 -0.1492  0.0516  0.0887
22780W        W43060  12.193   6.217  15.485 -0.2120  0.1496 -0.1870
22781W        W43061   4.215  12.120   0.723  0.1562  0.1513  0.1008
22782W        W43062   5.531   1.472  12.858  0.3798 -0.1712  0.0215
22783W        W43063   1.117  14.677  13.253 -0.0471 -0.0098  0.0230
22784W        W43064   6.680   5.085  15.602 -0.3019 -0.2814 -0.2479
22785W        W43065   0.353   9.051  14.540  0.0686  0.4455 -0.0713
22786W        W43066   1.859   0.690  13.042 -0.0059 -0.1107  0.1371
22787W        W43067   1.031  15.881   2.908 -0.0728  0.3787 -0.1511
22788W        W43068   0.955  15.332   1.786  0.0013 -0.2541  0.2804
22789W        W43069  12.880   0.203   4.568 -0.0881  0.0972  0.2228
22790W        W43070   4.396  11.307  12.133  0.4216  0.2332 -0.4078
22791W        W43071  12.474   0.730   1.517  0.2396 -0.2486  0.0913
22792W        W43072  15.628   7.444   2.220  0.2084 -0.2484  0.4814
22793W        W43073   1.539  15.926   1.354  0.2767 -0.0485  0.2856
22794W        W43074  17.728   3.646  12.998 -0.1919 -0.5238  0.1223
22795W        W43075   1.564   5.328   4.548  0.1857  0.0309 -0.1240
22796W        W43076   8.096   8.714   5.187  0.3427 -0.0307 -0.3313
22797W        W43077  16.106   3.934   3.943 -0.0841  0.0049 -0.0844
22798W        W43078   7.969  13.830   1.169 -0.0889  0.1809 -0.1138
22799W        W43079  13.600  13.914   2.726  0.0039 -0.2053  0.0959
22800W        W43080  13.837   5.238  14.634  0.2679 -0.2005 -0.1169
22801W        W43081  14.032   3.329  13.000  0.1539  0.1232 -0.1891
22802W        W43082  12.235  12.324  13.412  0.2288 -0.1360  0.1448
22803W        W43083   9.644   4.783  13.386 -0.1755 -0.0788  0.3203
22804W        W43084  16.279  16.244   1.309 -0.1512 -0.0212 -0.0554
22805W        W43085   7.363  15.984  13.640 -0.0131  0.1331 -0.0939
22806W        W43086   0.447   4.590  15.569 -0.2759  0.0323 -0.1422
22807W        W43087  10.299   8.752   2.257  0.0036 -0.0615 -0.2036
22808W        W43088  15.080   2.304  16.386 -0.1560 -0.2023  0.0278
22809W        W43089   0.660  13.671   3.473 -0.0708 -0.2343 -0.2268
22810W        W43090  16.226   6.190  16.478  0.0642  0.1284  0.1203
22811W        W43091  13.927  10.897  15.318 -0.0842 -0.0187  0.2935
22812W        W43092   1.493   8.217  14.765 -0.1401 -0.0631 -0.1225
22813W        W43093   4.101  10.395   3.261  0.2862 -0.1670 -0.1083
22814W        W43094   2.267  17.440   3.838  0.1823 -0.2165  0.0107
22815W        W43095   4.151   3.546   3.982 -0.1742  0.3417  0.2118
22816W        W43096   4.893  11.904  13.422 -0.1435 -0.2427  0.0103
22817W        W43097   1.893  14.037   3.880 -0.0440  0.1612  0.1432
22818W        W43098   8.799   9.551   4.221  0.3642  0.1568 -0.2426
22819W        W43099   9.053   8.017   3.171  0.0930  0.1209  0.0577
22820W        W43100   4.828  16.777  12.515 -0.1332 -0.0472  0.1073
22821W        W43101  15.945  15.766   0.243 -0.1198  0.1089  0.2273
22822W        W43102  14.111  15.707  14.764  0.2965  0.3269  0.0986
22823W        W43103  11.879  17.066   4.436 -0.1892  0.0605  0.2533
22824W        W43104   4.541  14.639  13.139  0.0058  0.1666  0.0560
22825W        W43105  13.744   6.198   1.487  0.2113  0.0785  0.0367
22826W        W43106  14.032   5.649  14.903 -0.3707  0.1364 -0.0322
22827W        W43107   7.343   8.438   4.960 -0.1343  0.2617  0.1570
22828W        W43108   5.577   0.193   4.227 -0.0178  0.0576 -0.0754
22829W        W43109  15.298   1.376  14.496 -0.0121 -0.1044  0.2592
22830W        W43110  16.815   3.647  14.104  0.0185  0.0660 -0.1110
22831W        W43111  13.924   2.102   4.158  0.2030 -0.2897  0.4224
22832W        W43112   6.499   3.856   2.014 -0.0361  0.4522 -0.2153
22833W        W43113  11.479  11.637   0.864 -0.1337 -0.0249  0.1719
22834W        W43114  15.765  15.374   3.325  0.0093 -0.1148  0.0056
22835W        W43115   8.306   2.257  15.659 -0.1807  0.2761 -0.1576
22836W        W43116  16.502  10.821  16.130  0.1032 -0.0685  0.0245
22837W        W43117   6.860   3.050   4.729  0.1243  0.1097 -0.1891
22838W        W43118   2.206   8.790  14.482  0.4980  0.0223  0.2605
22839W        W43119   7.381   3.540  13.081 -0.1472  0.1950 -0.0966
22840W        W43120   3.826   8.396   2.283 -0.2617  0.1029  0.0093
22841W        W43121   1.507   2.638   4.430 -0.0178  0.1097 -0.0079
22842W        W43122  13.328  14.831   1.490  0.0677 -0.1345  0.0934
22843W        W43123   0.620   6.513   3.122  0.1523 -0.0366 -0.1380
22844W        W43124   0.032   9.170  15.289 -0.0343 -0.1938  0.1624
22845W        W43125   9.517   7.803   0.806 -0.0225 -0.2722  0.1284
22846W        W43126  16.988   2.899  13.254  0.1632 -0.0184 -0.0228
22847W        W43127   9.934   5.579  16.480 -0.1370 -0.4297  0.1685
22848W        W43128  11.653  16.885  13.828  0.0430  0.4164  0.1333
22849W        W43129   0.698  16.435  15.560  0.1315  0.3670  0.2209
22850W        W43130   1.812  16.238  12.949  0.1122 -0.1744 -0.1122
22851W        W43131   4.168   6.709   0.229 -0.0524  0.0112 -0.2951
22852W        W43132  14.639   5.333  13.018 -0.1433  0.2870 -0.2437
22853W        W43133   9.846   7.325   0.964  0.1510 -0.0291  0.1668
22854W        W43134   2.617   5.155  14.063  0.1333 -0.0215  0.2542
22855W        W43135  14.440   7.360   0.181  0.0928  0.1542 -0.2430
22856W        W43136  12.930   1.319  16.272 -0.0071  0.0603 -0.0181
22857W        W43137  12.691   1.116   0.718 -0.0407  0.1094  0.3058
22858W        W43138  17.543  15.413  14.374  0.0708 -0.0746 -0.1581
22859W        W43139   1.548   2.639  14.195 -0.0694  0.1139  0.1430
22860W        W43140  11.446   0.220  13.217  0.0182 -0.1039  0.2026
22861W        W43141  12.781  12.774  15.148  0.0792  0.0597 -0.1224
22862W        W43142  13.278   8.754  15.802  0.1417 -0.0982 -0.0414
22863W        W43143  15.228  16.268  13.954  0.0574 -0.1087 -0.2653
22864W        W43144  16.089  11.464  13.505 -0.1315  0.0045  0.0332
22865W        W43145   6.817   3.788  15.009 -0.0471 -0.0695  0.0801
22866W        W43146   4.951  14.716   1.081 -0.0579 -0.2705 -0.1918
22867W        W43147  14.730   1.994   0.636  0.0313 -0.0009  0.1421
22868W        W43148  13.490   7.033   0.166  0.0293 -0.0491 -0.0573
22869W        W43149   5.259   0.440   2.850 -0.3300 -0.0909 -0.2194
22870W        W43150   2.488   4.854   1.151  0.1269 -0.0922  0.1271
22871W        W43151   7.936   6.809   0.047 -0.2454  0.1205 -0.0539
22872W        W43152  12.780   7.918   0.477 -0.0478  0.1288 -0.1755
22873W        W43153   1.179  10.279   3.878  0.2349  0.0956  0.0896
22874W        W43154   7.705  13.601   0.318  0.1607 -0.0084 -0.1256
22875W        W43155  13.419  13.782   4.496  0.2346 -0.0623  0.0624
22876W        W43156   2.966  13.448   3.392 -0.1194 -0.3303  0.2416
22877W        W43157   1.336   1.741   4.826 -0.3269 -0.0310  0.1039
22878W        W43158   6.012   2.986  16.563 -0.1716 -0.0723  0.1157
22879W        W43159  10.189   8.830  16.038 -0.0339  0.3538 -0.4030
22880W        W43160   1.643  10.584  13.486 -0.3427  0.0131 -0.0915
22881W        W43161   3.106   8.957  16.060 -0.0467  0.0487 -0.0634
22882W        W43162   9.583   7.036   3.645  0.1545  0.2336 -0.0133
22883W        W43163   9.458   7.317   3.228 -0.0420 -0.1859 -0.0333
22884W        W43164   1.710   5.132  14.008 -0.1538  0.0905 -0.0097
22885W        W43165  12.390   2.841   2.866  0.2074 -0.0918 -0.1512
22886W        W43166  14.930   7.229   3.402 -0.0415 -0.0042  0.0724
22887W        W43167   3.526   2.651   2.935  0.1199  0.0471  0.2365
22888W        W43168   6.886   0.834  14.770 -0.2327  0.1555  0.1350
22889W        W43169  16.931  10.029   2.296  0.3039  0.0974 -0.2087
22890W        W43170   0.416   5.036   2.808 -0.4524 -0.0533  0.1214
22891W        W43171  14.352  15.523   2.187  0.2026 -0.0102  0.0810
22892W        W43172   4.124   9.600  14.198 -0.0277 -0.0925 -0.0930
22893W        W43173  11.828  10.793   3.706  0.0667  0.1905  0.0131
22894W        W43174   6.101   2.792  13.142 -0.2643  0.2543 -0.1840
22895W        W43175  16.000   9.528  14.810  0.4284 -0.1386 -0.0794
22896W        W43176  12.491   2.294  16.130 -0.0233 -0.1684  0.1164
22897W        W43177   4.978  10.794  14.891  0.0292  0.0946  0.1141
22898W        W43178   3.252   4.876  16.075 -0.0440 -0.0304  0.1787
22899W        W43179  11.217   5.189  16.802  0.1263  0.2685 -0.1083
22900W        W43180  12.529   9.786  11.724 -0.1209  0.0286 -0.3259
22901W        W43181   3.863   8.514  15.903 -0.0633 -0.0632 -0.2916
22902W        W43182  16.517   5.893  12.531 -0.0020 -0.0515  0.2761
22903W        W43183   0.649  11.736   4.672 -0.3146 -0.0266  0.0780
22904W        W43184  14.527   8.093  14.620 -0.1706  0.1972  0.3611
22905W        W43185  16.504  12.813   2.922 -0.0821 -0.2231  0.1724
22906W        W43186   3.978   5.427   3.006  0.0398  0.0987 -0.1563
22907W        W43187   5.407   5.338  16.999  0.0025  0.2552 -0.2347
22908W        W43188   3.126  15.202   0.675 -0.1597  0.1212 -0.4195
22909W        W43189   9.160  16.690  15.892 -0.2100 -0.1674  0.0463
22910W        W43190   3.908  14.993  14.157 -0.0138 -0.5356 -0.0736
22911W        W43191  12.314  17.177   1.956 -0.3771  0.2316  0.1128
22912W        W43192   9.567  15.595  16.611 -0.0298  0.1356 -0.2195
22913W        W43193  15.709   7.306  14.402  0.2349  0.0131  0.3368
22914W        W43194   1.281  11.835  15.871 -0.0236 -0.0399  0.1936
22915W        W43195   7.140   4.082   0.611  0.0800 -0.1547  0.1856
22916W        W43196   4.292   2.608   3.271  0.3127 -0.2039  0.0098
22917W        W43197  10.285   7.962   2.401 -0.0312 -0.0326  0.1509
22918W        W43198   0.592  13.561  16.785  0.0911 -0.0625 -0.2358
22919W        W43199  15.442   8.919  12.610 -0.0016 -0.0539  0.0988
22920W        W43200   0.734   2.216  15.784  0.0059  0.0762 -0.4580
22921W        W43201  12.864   9.312   0.249  0.1361  0.0897 -0.2232
22922W        W43202   8.565  17.384  12.752 -0.3887  0.0286 -0.1759
22923W        W43203  15.454   5.878  13.156  0.0150  0.1901 -0.3775
22924W        W43204  10.496   2.134  16.866 -0.2954 -0.1801  0.1536
22925W        W43205  16.456   3.208  12.554  0.0297 -0.0857  0.0412
22926W        W43206   3.746  10.433  15.125  0.0026  0.1651  0.2044
22927W        W43207  13.705  17.706   4.503  0.0784  0.3651 -0.0289
22928W        W43208   1.101   1.203  13.935 -0.2114 -0.0006  0.0699
22929W        W43209   4.041  16.822  15.875  0.0948  0.1207 -0.0983
22930W        W43210   4.501   4.839  12.445 -0.2201  0.3794  0.1612
22931W        W43211  16.088   4.992   3.676 -0.0616  0.0753  0.0653
22932W        W43212   8.595   2.086  14.019  0.0649  0.1936 -0.6099
22933W        W43213   2.269  11.082  12.967  0.3146 -0.1344 -0.0868
22934W        W43214   8.448   5.961   3.599  0.2741 -0.2718 -0.0151
22935W        W43215   6.979  16.874   1.472  0.2716  0.1106 -0.0311
22936W        W43216  11.762  10.751  16.635  0.0987 -0.1576  0.3427
22937W        W43217  12.603   8.060  14.392 -0.0014  0.0805 -0.1449
22938W        W43218   2.624   9.689  12.260  0.1019 -0.0563 -0.1001
22939W        W43219   0.257  10.433   3.670  0.1065 -0.1042  0.0005
22940W        W43220   3.795   4.378  14.223  0.1563 -0.0634 -0.0443
22941W        W43221   8.713   6.951  16.355 -0.2927 -0.0407  0.0500
22942W        W43222   8.079   7.794   4.155  0.1980  0.0591 -0.1306
22943W        W43223   6.967  16.349   3.159  0.1017 -0.3495 -0.1902
22944W        W43224   8.326   3.527  15.602  0.0402 -0.0260 -0.1342
22945W        W43225   6.824   5.400   1.969 -0.0764  0.1200  0.1984
22946W        W43226  16.046  14.633   3.123  0.1501  0.1987  0.1274
22947W        W43227   1.961   7.229   3.396  0.1806  0.1555  0.0277
22948W        W43228   7.551   9.801  12.933 -0.0064 -0.1192 -0.1085
22949W        W43229   7.815   6.378   2.934  0.0051 -0.1828  0.1183
22950W        W43230   2.759   1.138  12.964 -0.1485 -0.0534  0.1958
22951W        W43231  16.528   8.446  14.189 -0.0335 -0.2002 -0.1023
22952W        W43232   0.611  12.591   0.202 -0.0964 -0.0005  0.0775
22953W        W43233   0.877   6.261   1.577 -0.1005 -0.2421 -0.0747
22954W        W43234  11.929  11.095  16.945  0.3369  0.0612  0.3117
22955W        W43235  14.693   3.475   4.880 -0.1777 -0.0473 -0.1188
22956W        W43236  14.510   1.772  12.975  0.0910 -0.2265  0.0454
22957W        W43237   1.660   3.010   4.756  0.1674  0.0979 -0.0184
22958W        W43238   2.707   9.781   2.042 -0.0594 -0.1267 -0.2403
22959W        W43239   9.323  17.597   2.558 -0.0316  0.2345  0.0859
22960W        W43240  17.718  10.883  12.896  0.0393  0.2506 -0.0983
22961W        W43241   6.439   3.901   2.530 -0.3125  0.0496 -0.1240
22962W        W43242  17.004  16.690   3.504 -0.0946  0.1044 -0.2900
22963W        W43243  11.674   9.458  14.004  0.1513  0.0137 -0.0242
22964W        W43244   8.042   5.141  12.634  0.2716  0.1362  0.2879
22965W        W43245   9.440   2.967   0.544  0.0086  0.0545  0.2601
22966W        W43246   8.812  15.195   2.123 -0.1270 -0.1433  0.0704
22967W        W43247   3.594  17.623  16.174  0.3417 -0.3307 -0.3706
22968W        W43248   4.167   0.708   1.143  0.0633 -0.2212 -0.1373
22969W        W43249  10.084   7.067  15.800  0.4253  0.2335 -0.1902
22970W        W43250  12.014   8.416  13.317 -0.1244  0.1498  0.0329
22971W        W43251  14.071   9.903  16.575 -0.1443  0.1764  0.0307
22972W        W43252  16.114   6.826   3.528  0.0402  0.0495  0.0601
22973W        W43253  17.034   4.066  15.966 -0.0690 -0.0471  0.0726
22974W        W43254  11.567  15.419   0.468  0.0336  0.0526 -0.0213
22975W        W43255   5.240  16.703  12.303 -0.1903  0.0503  0.1707
22976W        W43256   7.698  17.388   3.587  0.3779 -0.1998 -0.1921
22977W        W43257   2.471   4.757   1.904 -0.1205 -0.1469  0.1355
22978W        W43258   9.516   8.301   2.968  0.0317  0.1587  0.0799
22979W        W43259  15.424  16.563  15.802 -0.0338  0.0282 -0.0790
22980W        W43260  12.260   0.295   4.588 -0.1632  0.1829 -0.0346
22981W        W43261   4.763   7.569  14.571 -0.1422  0.3018 -0.3157
22982W        W43262   8.280   8.246   1.394 -0.0897  0.0881  0.1292
22983W        W43263  10.623   2.573  16.707  0.2206 -0.0905 -0.0150
22984W        W43264   8.218  17.342   0.858 -0.0298 -0.2669  0.1276
22985W        W43265  15.733  11.065   4.084 -0.0678 -0.0040  0.0466
22986W        W43266  16.353  11.976  12.591  0.4659 -0.0901 -0.3442
22987W        W43267   6.531  17.360   0.067 -0.0619 -0.1567 -0.1362
22988W        W43268  15.086   9.369   3.739 -0.0125 -0.0044 -0.3200
22989W        W43269   0.686   5.817  12.503 -0.0712  0.1055  0.0562
22990W        W43270  11.249   6.504   0.860  0.0762 -0.2559  0.0193
22991W        W43271   4.395   5.054   2.194  0.0670  0.0314  0.0720
22992W        W43272  13.278   9.047   5.021 -0.0095 -0.0700  0.2490
22993W        W43273   8.306   0.599  15.981  0.0770  0.1882 -0.1601
22994W        W43274   4.052  12.164   1.176  0.3356  0.2283  0.1238
22995W        W43275   6.778   0.332  16.308  0.0441  0.1535 -0.0913
22996W        W43276   1.519  16.479  13.705  0.1622  0.0063  0.5262
22997W        W43277   1.814   2.378  14.946 -0.2541  0.2128  0.1123
22998W        W43278  11.932   2.334  12.641  0.0772  0.2101 -0.0551
22999W        W43279   0.089   3.343   0.102 -0.0504 -0.0775 -0.2205
23000W        W43280   4.608   7.184  13.204 -0.0610 -0.0314 -0.2694
23001W        W43281   1.028  16.377  13.449  0.1460  0.0057  0.1869
23002W        W43282   2.040   7.868  15.554  0.2255 -0.1732 -0.1925
23003W        W43283   3.205  16.444  16.773 -0.0598 -0.0344 -0.0807
23004W        W43284  17.645   6.148  14.281 -0.1888 -0.0641 -0.0056
23005W        W43285   0.749  17.623  12.642  0.2147  0.0859  0.2377
23006W        W43286   7.871  12.534  13.401 -0.0372  0.0935 -0.0602
23007W        W43287  13.513   1.097  14.270 -0.1235  0.0753  0.1027
23008W        W43288   6.062   8.507   2.125 -0.0374 -0.3588 -0.1516
23009W        W43289  11.688  12.256   4.622  0.1153  0.1117  0.2715
23010W        W43290   7.355  12.340   3.947  0.1925 -0.3193  0.2537
23011W        W43291   5.072   4.481   1.506 -0.1222  0.1012 -0.0885
23012W        W43292  17.550  16.010   1.943 -0.2080  0.3659  0.3147
23013W        W43293   4.467   2.475   3.850  0.0269 -0.1909 -0.1588
23014W        W43294   9.567  15.451  14.704 -0.0616  0.1731  0.1791
23015W        W43295  15.931  11.137  15.011 -0.0837  0.2872 -0.1776
23016W        W43296  10.052  10.173  14.734 -0.3503  0.0425  0.3405
23017W        W43297   1.317   2.173  16.804 -0.1401  0.5235 -0.0045
23018W        W43298   7.804   5.559   2.614 -0.0644  0.1395  0.2614
23019W        W43299   2.294  11.686   0.884 -0.2653  0.1142 -0.1054
23020W        W43300   2.368   0.697   3.103 -0.0889  0.2420 -0.1416
23021W        W43301  17.002   3.198  14.086  0.2578  0.0476  0.0981
23022W        W43302  10.245   4.211   1.384  0.2161 -0.2361 -0.1327
23023W        W43303  16.642   2.288   2.372 -0.4155  0.0498  0.0151
23024W        W43304   5.587   5.765  15.174 -0.1006  0.1808  0.1548
23025W        W43305  12.554   7.611  12.473  0.4139 -0.0412 -0.5511
23026W        W43306   2.090  17.405  16.545 -0.0804 -0.0952  0.3878
23027W        W43307   8.394   5.465  11.617 -0.0684  0.1170  0.0951
23028W        W43308   2.694  16.603   2.312  0.0823  0.1023  0.1279
23029W        W43309   8.515   9.440   4.722 -0.0064  0.3128  0.1511
23030W        W43310  10.215   4.630  14.483 -0.0613 -0.2459  0.1587
23031W        W43311   2.042   9.662  15.857  0.0603 -0.6514 -0.0018
23032W        W43312  16.655  16.108   0.965 -0.0563 -0.0291  0.8224
23033W        W43313   8.003  10.465   4.226 -0.0710 -0.1846  0.2730
23034W        W43314   6.086   2.752   3.342 -0.1359 -0.3154  0.1711
23035W        W43315   7.535  15.862   0.181  0.1558 -0.0464 -0.0881
23036W        W43316  14.554  10.189  12.782 -0.1069 -0.0651  0.1218
23037W        W43317  12.108  10.075   4.154 -0.0122  0.0583 -0.1743
23038W        W43318   7.550  17.084   4.916  0.1881  0.0016 -0.0424
23039W        W43319   9.885  15.539  14.327 -0.1516 -0.2256 -0.1413
23040W        W43320   4.040   4.987   0.460 -0.0207  0.4762 -0.0100
23041W        W43321  13.896  12.956  12.159 -0.1193  0.0734 -0.2257
23042W        W43322   2.037  15.463  16.937 -0.2371 -0.0412  0.0447
23043W        W43323   5.658   5.489   1.369 -0.2203 -0.1020  0.5816
23044W        W43324  15.449  15.886  13.143 -0.0594 -0.2093 -0.0490
23045W        W43325  15.078   7.503   4.322  0.2286 -0.1590 -0.0600
23046W        W43326   9.633  17.336  16.543  0.0915  0.0530 -0.0538
23047W        W43327   6.856   0.864   1.609  0.2877  0.1606 -0.1195
23048W        W43328   3.173   4.327  14.794  0.0273  0.0117  0.1668
23049W        W43329  15.069  10.164  12.183 -0.0180  0.1199  0.0408
23050W        W43330   3.249   3.838  12.265 -0.4201 -0.0415  0.0346
23051W        W43331   2.633  10.987   2.661 -0.1300  0.1569 -0.1504
23052W        W43332   8.763  13.304  13.040 -0.0132  0.0858 -0.2122
23053W        W43333   4.627   3.605  13.726 -0.4501  0.1052 -0.0131
23054W        W43334   2.584   4.162   4.848  0.0411 -0.1144 -0.0809
23055W        W43335   7.567   7.647  16.941  0.1590 -0.0318  0.0280
23056W        W43336  15.099   5.291  16.671 -0.1567 -0.0739  0.1320
23057W        W43337  12.566   6.789   4.890  0.2267  0.0703  0.3170
23058W        W43338   5.482  16.911  16.261  0.1515 -0.2404  0.0948
23059W        W43339  14.104   6.726  14.771  0.0068 -0.1979  0.0166
23060W        W43340   9.594  14.304   1.780 -0.1088  0.0105 -0.0188
23061W        W43341  12.729  15.015  12.144  0.2480 -0.0769  0.0684
23062W        W43342  10.708  14.828   2.581  0.1692  0.0921  0.2260
23063W        W43343   6.685  14.596   0.124 -0.1807  0.0930  0.1631
23064W        W43344  10.400  12.833   0.650  0.0969  0.0427  0.0636
23065W        W43345   6.873  14.414   4.125 -0.2141  0.2222  0.2202
23066W        W43346   6.421   0.489   4.727 -0.1318  0.1411  0.0022
23067W        W43347   8.101  16.802   1.586  0.0540 -0.2741  0.2004
23068W        W43348  13.402   5.759  16.404 -0.1517 -0.3158  0.2873
23069W        W43349   9.355   7.952   2.160 -0.1105 -0.1854  0.0840
23070W        W43350   7.581   0.644  13.640 -0.1377  0.3805 -0.2566
23071W        W43351  15.032  11.356   1.860 -0.0173 -0.0305  0.0403
23072W        W43352   6.665   5.885  15.125  0.1310  0.0805  0.3261
23073W        W43353  14.239  16.802  12.069  0.2293  0.0307 -0.0885
23074W        W43354  16.495   9.119  16.386  0.1155 -0.1772  0.2859
23075W        W43355   0.750  17.592  16.751 -0.0001 -0.0093 -0.0336
23076W        W43356   5.438   4.577  12.315  0.2507 -0.0693  0.1765
23077W        W43357  17.411  15.198   0.404 -0.1134  0.2019 -0.0788
23078W        W43358   0.197  10.790  16.718 -0.2393 -0.2164  0.1687
23079W        W43359   1.857   6.622  15.429  0.0992  0.1738 -0.0481
23080W        W43360   7.079   8.797  13.891 -0.2206  0.1063 -0.3766
23081W        W43361   4.649   0.013   3.302 -0.2949  0.1334  0.1422
23082W        W43362  10.223   1.300  15.095  0.0013  0.3835  0.0564
23083W        W43363  16.544  17.007   1.080 -0.4044  0.3217 -0.3233
23084W        W43364   4.504   1.727  13.202 -0.0037 -0.1380  0.0967
23085W        W43365  16.834   1.802  14.625 -0.0748  0.1240  0.0827
23086W        W43366   0.074  10.072   4.868 -0.1030  0.0284  0.1444
23087W        W43367  14.425   5.136  15.547  0.0556 -0.0387 -0.2084
23088W        W43368   4.133   5.388   1.733 -0.2417  0.0080  0.2021
23089W        W43369  14.106  11.318  16.034 -0.1284 -0.1613 -0.1253
23090W        W43370   3.924   0.813   3.594 -0.0651  0.0205 -0.1677
23091W        W43371  15.789   7.367  15.431 -0.3835  0.2120 -0.0357
23092W        W43372   1.387  14.945  13.822  0.1624  0.0673  0.3319
23093W        W43373  15.704   3.116  14.517 -0.1157 -0.0602 -0.1016
23094W        W43374   8.669   8.618   4.180 -0.3453 -0.0888  0.0396
23095W        W43375  17.385   4.703   3.756 -0.2318 -0.1396  0.1770
23096W        W43376   4.276   0.140  14.945  0.2841 -0.0568  0.0077
23097W        W43377   9.323   5.436   3.383 -0.0123 -0.0464  0.4873
23098W        W43378   1.707   7.760  14.011  0.0942  0.1370 -0.0921
23099W        W43379   2.383   4.071  15.508  0.0673 -0.3819  0.2376
23100W        W43380   1.432   6.890  14.224  0.1448  0.0448 -0.0334
23101W        W43381  13.821   0.934   4.023 -0.0728 -0.1170  0.1304
23102W        W43382   2.091   9.936  13.851 -0.0615  0.1034  0.1501
23103W        W43383  10.956   4.679   3.941  0.0954  0.0598  0.1328
23104W        W43384   0.112   9.510   1.474  0.4216 -0.1992 -0.4250
23105W        W43385  12.672   1.501  12.494  0.0382 -0.0575  0.1035
23106W        W43386  17.583  16.273   0.147  0.0334  0.0671  0.1725
23107W        W43387   8.037  15.984  16.112 -0.1739 -0.0328 -0.3034
23108W        W43388  11.429   7.394   0.214 -0.2113 -0.1555 -0.2141
23109W        W43389   5.315   8.954  16.321  0.2491  0.0916  0.2476
23110W        W43390  13.332  15.376  16.361  0.0258 -0.3928  0.1435
23111W        W43391   8.418  14.138  12.931 -0.1833 -0.2490  0.0148
23112W        W43392   2.023  16.196  15.836 -0.2398  0.0446  0.0494
23113W        W43393   1.060   7.669  13.753 -0.0922  0.1332 -0.0009
23114W        W43394  13.861  12.080  15.682 -0.0398 -0.1038 -0.0285
23115W        W43395  16.640  15.486  16.736  0.3066  0.1332  0.0281
23116W        W43396   7.977  15.230  15.999 -0.0618  0.0320  0.1985
23117W        W43397  10.187  10.116   2.841  0.4394 -0.0600  0.0025
23118W        W43398   2.260  11.265   2.493 -0.2868 -0.0453 -0.2740
23119W        W43399  11.939   7.081  13.941 -0.1860 -0.2863 -0.0482
23120W        W43400   1.181   1.198  13.361  0.0527 -0.0004  0.1110
23121W        W43401  11.222   7.366   4.344 -0.1088  0.2431 -0.1553
23122W        W43402  16.474   3.270   3.209 -0.3604  0.1475  0.1315
23123W        W43403  14.098   9.690   4.934  0.0091 -0.2332  0.1431
23124W        W43404   9.025  10.715  17.006  0.3888 -0.0331 -0.1582
23125W        W43405  12.026  14.038   3.603  0.4089  0.3327  0.2363
23126W        W43406   5.094  17.564   0.523 -0.0133 -0.0234  0.0646
23127W        W43407  14.836   7.443  15.902  0.0818  0.0310 -0.2725
23128W        W43408   4.851  11.371  16.537  0.3153  0.0063  0.0745
23129W        W43409   6.557   5.356   4.617 -0.1398 -0.1774 -0.1210
23130W        W43410  17.020  17.626  15.903  0.1584  0.1468 -0.0552
23131W        W43411   6.914  12.131   1.700 -0.1975 -0.0274 -0.1526
23132W        W43412   0.225  13.371  15.555 -0.0442  0.0853 -0.1315
23133W        W43413   4.028   1.600   0.572  0.0673  0.0660 -0.0957
23134W        W43414   8.854   1.787   2.209  0.1664  0.2379 -0.3064
23135W        W43415  12.801  15.989   4.166 -0.0012 -0.1104 -0.2010
23136W        W43416   9.897  16.485   4.503  0.1333 -0.0347 -0.0606
23137W        W43417   4.886   4.072  16.781  0.1774 -0.3577 -0.0659
23138W        W43418   4.837   0.930   1.599 -0.2362  0.2428 -0.2483
23139W        W43419   6.366   9.158   4.715 -0.1734 -0.1635 -0.1295
23140W        W43420   7.834   8.241   1.713  0.2830 -0.1455  0.0948
23141W        W43421  16.487  11.134  14.600  0.0391 -0.0363  0.0757
23142W        W43422  16.519   6.368   4.867  0.1588 -0.0909  0.1418
23143W        W43423  13.394   4.077   4.621 -0.2225  0.0864 -0.1339
23144W        W43424   0.088  12.911   4.315 -0.1718 -0.1536 -0.0852
23145W        W43425   8.947  17.567   1.547 -0.1732 -0.0755 -0.1349
23146W        W43426  10.843  13.490  16.346 -0.2385 -0.0755 -0.1574
23147W        W43427   3.575   7.745  13.850 -0.0612  0.1496 -0.2938
23148W        W43428   8.218  12.571   0.266 -0.1560 -0.2400 -0.2888
23149W        W43429   5.802  15.054  15.379  0.0881  0.0664  0.0679
23150W        W43430   0.532  11.243   4.133  0.1323  0.3134  0.2542
23151W        W43431  14.529  14.765  13.628  0.0314 -0.5500  0.2440
23152W        W43432   9.287   4.863  12.096  0.0312  0.0048  0.2830
23153W        W43433  14.172  12.659   1.683 -0.1328 -0.5845 -0.1655
23154W        W43434  11.516   1.027  13.211  0.0754 -0.0697  0.2587
23155W        W43435   1.563  11.803   2.701 -0.0612 -0.1434  0.0183
23156W        W43436   8.811   8.004  14.183  0.1060 -0.0654 -0.0316
23157W        W43437  15.921   4.732   1.222 -0.1537  0.1287 -0.2173
23158W        W43438  15.750   7.402   3.807  0.1355 -0.1955 -0.0013
23159W        W43439  12.847   8.250   1.041 -0.0280  0.0867 -0.0173
23160W        W43440  16.667   1.836   4.434  0.4136  0.1518 -0.1577
23161W        W43441  10.398   0.647   0.822 -0.3671  0.1653  0.0964
23162W        W43442   9.554   0.522   3.055 -0.0262  0.0393 -0.1753
23163W        W43443  16.713   6.455  15.384 -0.0661  0.1771 -0.1334
23164W        W43444  13.523   2.238   3.880 -0.1748 -0.1892  0.0523
23165W        W43445   1.604   3.168  15.772 -0.1944 -0.3131  0.0633
23166W        W43446  10.594  16.668   4.906  0.1423  0.1202 -0.3450
23167W        W43447   6.713  12.599  16.151 -0.0062  0.1904 -0.1341
23168W        W43448  15.814   5.211  14.046  0.2734  0.0451 -0.1232
23169W        W43449   2.447  14.248  13.583  0.0348  0.0246  0.0180
23170W        W43450   8.041   5.818  15.980 -0.1238 -0.2474  0.0049
23171W        W43451  16.854   3.662  14.988 -0.3489 -0.0844 -0.1423
23172W        W43452   7.903  11.279  12.030 -0.0415 -0.3599 -0.1369
23173W        W43453   4.220   5.357  12.748  0.1680  0.0868  0.0312
23174W        W43454   1.503   0.956  12.366 -0.1863 -0.0319 -0.1454
23175W        W43455   1.752   3.635  15.691 -0.1608  0.2616  0.0820
23176W        W43456   6.824   8.018   0.523 -0.2700  0.2270  0.4453
23177W        W43457   0.937   3.330   2.890 -0.0511  0.2608 -0.0901
23178W        W43458   6.653  13.927  15.967 -0.3510 -0.1311 -0.1483
23179W        W43459   5.548   1.742   2.868 -0.1168  0.0747  0.0031
23180W        W43460   3.632   5.966   1.530 -0.2156  0.0208  0.0861
23181W        W43461   7.405   8.595  16.640 -0.0481  0.1704  0.0232
23182W        W43462   1.088  10.482   0.830 -0.2253  0.2462  0.0947
23183W        W43463  16.766   5.997  15.576  0.2275 -0.1830  0.2162
23184W        W43464  17.046  14.046  11.924  0.4491  0.1462 -0.1569
23185W        W43465  11.080   4.318   1.623 -0.3325  0.2051 -0.1310
23186W        W43466   6.991  13.012  15.308  0.0738  0.3491 -0.1756
23187W        W43467   6.250  12.824   4.017 -0.1906  0.3057 -0.4598
23188W        W43468   4.075   5.143  14.121 -0.3564  0.1154  0.2747
23189W        W43469  11.906   3.000   4.542 -0.1416  0.0013  0.0402
23190W        W43470   8.465  16.676  16.589 -0.2793  0.2674 -0.2360
23191W        W43471   5.205   1.371   0.774 -0.1234 -0.2129  0.0783
23192W        W43472   8.707  15.630   1.795  0.1733 -0.2343  0.1784
23193W        W43473  16.486   7.950  13.611  0.0117 -0.3037 -0.0876
23194W        W43474   0.939   1.491   2.761 -0.0793  0.2701 -0.1944
23195W        W43475  10.699  17.127  15.511  0.0229  0.0683 -0.1706
23196W        W43476   0.890   3.415  12.699 -0.0320 -0.1084  0.1789
23197W        W43477   0.418  14.156   1.228 -0.1054 -0.0146  0.1772
23198W        W43478  13.695   7.042  13.104 -0.1636  0.2538  0.1558
23199W        W43479   2.006   1.918  15.088 -0.1209  0.0824 -0.1918
23200W        W43480   2.503  17.564   4.648 -0.1312  0.0278 -0.0757
23201W        W43481   5.081   9.610  15.381 -0.0986 -0.1579 -0.2290
23202W        W43482   6.991   9.801   0.235  0.0930  0.1993 -0.0212
23203W        W43483  12.480   5.566   4.839  0.1685 -0.1645 -0.0093
23204W        W43484  11.434  11.469   1.359  0.1431  0.0432 -0.0381
23205W        W43485   1.927  15.176   2.433  0.2074 -0.1443  0.0140
23206W        W43486  10.989  12.603  12.721  0.2324 -0.0817  0.3934
23207W        W43487  15.408  11.847  12.452  0.2187 -0.0183  0.1460
23208W        W43488  10.130   1.611   3.617  0.0337 -0.0130 -0.1805
23209W        W43489   2.738   3.656   2.683  0.0706  0.0227 -0.1752
23210W        W43490  17.176  12.313   1.926 -0.1967 -0.2002 -0.0501
23211W        W43491   4.926  11.770  15.240 -0.0372  0.0771  0.0100
23212W        W43492   9.994  10.039   4.734  0.2092 -0.1266 -0.0107
23213W        W43493   2.618   7.052   4.856  0.0738 -0.2283  0.0368
23214W        W43494  11.992   3.529  14.737 -0.0898 -0.0974  0.2104
23215W        W43495   4.779  10.334  14.832  0.1923 -0.2914 -0.2032
23216W        W43496   9.475  12.845  14.793  0.2723  0.3222  0.2730
23217W        W43497   3.874  16.539  13.360 -0.0381  0.0827 -0.0425
23218W        W43498   4.090  14.946   2.700 -0.2517 -0.2684  0.0216
23219W        W43499   0.637   3.972  14.967  0.2167  0.1425 -0.0670
23220W        W43500   4.910   8.707  13.591  0.0089  0.0125 -0.3239
23221W        W43501  13.129   1.282  16.760 -0.2354  0.1235 -0.0393
23222W        W43502  15.073  17.677  13.926  0.0463 -0.1592 -0.2015
23223W        W43503   4.217  14.758  13.474 -0.1059 -0.0517  0.0769
23224W        W43504  17.206  14.466   1.428  0.0542 -0.2230 -0.1369
23225W        W43505  15.459   2.887  12.883  0.3794 -0.3039 -0.1204
23226W        W43506   4.457  10.455  16.985 -0.0609  0.1681  0.1566
23227W        W43507  14.449  10.962   1.212 -0.0305 -0.3173 -0.3769
23228W        W43508  11.560   8.204   2.297 -0.0082 -0.0874  0.1517
23229W        W43509  17.543  15.533   0.750  0.0047 -0.0025  0.1054
23230W        W43510   2.320   0.467   2.661 -0.2654  0.3730  0.0198
23231W        W43511   2.657   7.085  14.868 -0.0212 -0.3909 -0.0840
23232W        W43512   1.490   7.596   2.100 -0.1445 -0.2547 -0.0410
23233W        W43513  11.104   7.037   1.058  0.1821  0.1849 -0.0114
23234W        W43514  12.531   3.596  16.774  0.0251 -0.2561  0.0472
23235W        W43515   5.323  13.490   0.039  0.0943 -0.1563  0.2206
23236W        W43516  10.566  15.054   3.060  0.0890  0.1913 -0.0534
23237W        W43517  13.539  12.284  13.409  0.0223  0.3966 -0.3170
23238W        W43518   0.214   4.038   3.004  0.1561  0.1906 -0.3961
23239W        W43519  10.910   7.252   2.259 -0.1827 -0.1593 -0.0661
23240W        W43520  14.461   4.795  14.178 -0.1247  0.1603 -0.1980
23241W        W43521   9.564   4.179   4.286 -0.0114 -0.3267 -0.0852
23242W        W43522   0.944  12.616  13.832  0.0516 -0.1946 -0.1585
23243W        W43523  12.870   6.483  14.217 -0.0263 -0.2679 -0.1016
23244W        W43524   9.519  17.343   0.130 -0.0781  0.0421 -0.0467
23245W        W43525  10.375   3.599  12.750 -0.0946 -0.1049  0.0651
23246W        W43526   1.922  14.458  13.356 -0.4180  0.3423 -0.1480
23247W        W43527   5.369  10.564   3.241  0.2077 -0.1627  0.2371
23248W        W43528   3.502  13.034  16.109 -0.4097  0.1260 -0.3123
23249W        W43529   4.616   1.660   2.908  0.0416 -0.1933  0.1916
23250W        W43530   3.504  16.856  13.485  0.1822 -0.0137 -0.0819
23251W        W43531   1.513   5.539  14.180 -0.3354  0.2289 -0.1755
23252W        W43532  15.967   4.239   1.345  0.0557 -0.0920  0.1062
23253W        W43533   4.295  17.345  13.262 -0.1666 -0.1570  0.0110
23254W        W43534   5.851  14.335  16.268  0.2188  0.1273  0.0197
23255W        W43535   1.975  15.193   3.428  0.1622  0.1446  0.3624
23256W        W43536  17.195  11.536  12.612  0.1093 -0.0168  0.1168
23257W        W43537  16.247   1.161   2.962  0.1353  0.1561 -0.0361
23258W        W43538   5.950  15.308   4.445 -0.3532  0.2658  0.0024
23259W        W43539  13.665   1.717  13.639  0.3911 -0.2624  0.0965
23260W        W43540  10.296   0.171   1.770 -0.1304 -0.0241 -0.0691
23261W        W43541  16.938   3.949   1.886 -0.1231 -0.0205  0.1450
23262W        W43542   3.828  13.521   4.259 -0.0374 -0.0210  0.1014
23263W        W43543  15.868  14.313  12.991 -0.0199 -0.2538 -0.0761
23264W        W43544   0.223  14.386  15.808 -0.0976  0.0147  0.2362
23265W        W43545  12.095  12.122   1.458 -0.4159  0.0053  0.1813
23266W        W43546  10.495  12.666  15.388  0.1419  0.1764 -0.0562
23267W        W43547   3.188  16.930   2.944 -0.3226  0.0781 -0.1933
23268W        W43548  11.813   9.992   1.172 -0.0073  0.4650  0.0869
23269W        W43549   9.903  11.892   2.247  0.2273  0.1132 -0.0011
23270W        W43550   7.891  14.263   0.902  0.4842 -0.3704 -0.1667
23271W        W43551  13.884   4.287  15.760 -0.1833 -0.0433 -0.0821
23272W        W43552  16.383   7.690  12.642  0.1149  0.1216  0.0466
23273W        W43553   9.933   9.276  12.847  0.0917 -0.1380 -0.1406
23274W        W43554   5.147  11.686   2.337  0.2206  0.2285  0.5036
23275W        W43555   9.635  15.623   0.691  0.0537 -0.2088  0.0287
23276W        W43556   9.832  12.393   4.018  0.0255 -0.0113  0.1025
23277W        W43557  15.929   7.101   0.301 -0.2319 -0.1898  0.1451
23278W        W43558  11.905   2.985  16.167 -0.2388  0.0633  0.0836
23279W        W43559   5.440  10.488  16.952 -0.0518 -0.1044 -0.2541
23280W        W43560   8.219   8.926  14.604 -0.1013 -0.1910 -0.1754
23281W        W43561  12.077   3.373  13.928 -0.2689 -0.1094  0.0571
23282W        W43562   0.913   2.387   4.369  0.2076  0.1244  0.0328
23283W        W43563  14.863   1.880   3.687 -0.0255  0.1117  0.0381
23284W        W43564  15.958   0.877   1.266  0.0152  0.1028  0.3174
23285W        W43565  12.073  16.665  14.814  0.0537 -0.0223 -0.1758
23286W        W43566  13.158   2.330  16.848 -0.1756  0.2149 -0.2143
23287W        W43567   7.861  14.972  16.715 -0.0528 -0.2255  0.0833
23288W        W43568   3.137   9.006   3.705 -0.0347 -0.0829 -0.0798
23289W        W43569   2.118  11.638  16.008 -0.0580 -0.1440  0.1116
23290W        W43570   6.642  10.029  14.247 -0.2740 -0.1909 -0.1127
23291W        W43571  11.986   3.130   4.035  0.3753  0.2183 -0.1924
23292W        W43572   2.393   1.689  12.689  0.1810 -0.1984  0.0436
23293W        W43573  15.846   8.888   0.050 -0.1592  0.1035 -0.1287
23294W        W43574  17.043  13.652   2.138 -0.0492  0.0476  0.2419
23295W        W43575   6.395   1.098  16.837 -0.0091 -0.0137 -0.0853
23296W        W43576   4.584   2.896  15.825  0.1262 -0.0059 -0.0180
23297W        W43577   4.209  12.500   0.353  0.1214  0.2434  0.0985
23298W        W43578   3.636  12.875   2.358 -0.2421  0.0609  0.4134
23299W        W43579   4.822  10.389  15.680 -0.1547 -0.2768  0.5096
23300W        W43580   5.891   0.216  13.494 -0.0900  0.0393 -0.1512
23301W        W43581   0.678  11.986  16.623 -0.3749  0.0704 -0.0770
23302W        W43582  12.952   7.267   0.975  0.1759  0.2184  0.0321
23303W        W43583  10.750   6.659   3.972 -0.3885 -0.1920  0.0844
23304W        W43584   5.812  16.064   1.426  0.0457  0.0859 -0.0987
23305W        W43585  14.794   4.658  15.498 -0.1874 -0.1660  0.0441
23306W        W43586   2.083  16.132   1.409  0.1380  0.2912  0.0166
23307W        W43587   6.512   7.530  12.129 -0.0015  0.1203  0.2244
23308W        W43588   5.534  15.251  12.368  0.0523 -0.2754  0.3386
23309W        W43589  15.690  10.187   0.166 -0.1462  0.2846 -0.2324
23310W        W43590  12.869  17.397  15.562 -0.5637 -0.1631 -0.2065
23311W        W43591   0.192  12.126  16.649  0.2185 -0.1930 -0.0208
23312W        W43592   3.316   8.001  16.674 -0.2508 -0.1621  0.2500
23313W        W43593  16.263  12.670  16.726  0.3401 -0.0678  0.1367
23314W        W43594  13.208   5.749  14.084 -0.0427 -0.1160  0.2680
23315W        W43595  16.547   4.787  13.727 -0.1639  0.1632 -0.3208
23316W        W43596  16.570  13.274   2.755  0.0807  0.0363 -0.0262
23317W        W43597  16.194  14.961   5.192 -0.0422  0.1175 -0.1762
23318W        W43598  15.094  13.201   0.933 -0.1333 -0.0386  0.0674
23319W        W43599   3.911  14.941   4.122  0.0864 -0.0565 -0.0634
23320W        W43600  16.661  10.130   5.473 -0.0294  0.0781 -0.3044
23321W        W43601  13.420  12.051  12.883 -0.2433  0.2277  0.0861
23322W        W43602  16.984   9.274   3.293  0.2050 -0.1620 -0.2241
23323W        W43603   9.830   8.296   3.380  0.1292 -0.3476 -0.2561
23324W        W43604  16.810  10.487  14.207  0.1477 -0.0672 -0.1786
23325W        W43605   9.369   1.748  12.179 -0.1314  0.3591 -0.1409
23326W        W43606   4.702   3.159   1.257 -0.0197  0.0272 -0.0628
23327W        W43607  17.382  14.970  14.195  0.3503  0.1664 -0.0239
23328W        W43608  14.924  12.681   4.462  0.1879 -0.0383 -0.0060
23329W        W43609   1.487   6.646  15.100  0.0291  0.0826 -0.0180
23330W        W43610   1.545   7.247   4.813  0.0008  0.1141 -0.2255
23331W        W43611  11.216   1.599   3.195  0.0082  0.1155 -0.1339
23332W        W43612   3.812   6.385   1.065 -0.2880 -0.3015  0.0371
23333W        W43613   4.902   8.823  14.951 -0.0054 -0.1298 -0.0211
23334W        W43614  15.766   7.328  16.874  0.0543  0.0896 -0.0744
23335W        W43615   6.915   3.910   5.023  0.5077  0.3322 -0.1450
23336W        W43616   6.806   3.402   1.175 -0.1805 -0.0841  0.2244
23337W        W43617  16.964   2.643   0.965  0.0708 -0.1381 -0.0739
23338W        W43618   9.833  11.747  14.707  0.2752  0.2051  0.3446
23339W        W43619   1.941   6.075  12.556 -0.1193  0.0346 -0.1032
23340W        W43620   3.567   3.051   3.600  0.1013  0.0170  0.3238
23341W        W43621   4.715  12.346   1.795 -0.2788 -0.0832  0.1972
23342W        W43622  13.049   8.472  16.197 -0.1144 -0.0174 -0.0250
23343W        W43623   1.744   8.553   0.264  0.1529 -0.0703 -0.1734
23344W        W43624   0.861   4.305  15.321  0.2371  0.1231  0.1143
23345W        W43625   0.503  15.457   4.735 -0.3330 -0.0024  0.0385
23346W        W43626  13.512   7.742  15.204 -0.0548  0.0015 -0.0342
23347W        W43627  10.653  11.358  16.278 -0.1262  0.0757  0.0642
23348W        W43628  12.291   7.130   3.429  0.1529  0.0980 -0.0497
23349W        W43629  10.752   6.718   0.267  0.0893  0.2140 -0.1848
23350W        W43630  16.693  14.868  16.142  0.0700  0.0383 -0.0192
23351W        W43631  16.497   6.268   1.001 -0.1964 -0.2699  0.3278
23352W        W43632   6.620   5.026   1.598 -0.0999 -0.1950 -0.0070
23353W        W43633   6.681   4.799   2.314 -0.0468 -0.0292 -0.0082
23354W        W43634   5.896   9.125  12.406  0.0861  0.4775 -0.0598
23355W        W43635  13.572   8.349  15.985 -0.0244 -0.1009  0.0083
23356W        W43636   3.866  13.526   3.744  0.1384  0.1967 -0.1902
23357W        W43637  13.884  17.602   3.305 -0.1962  0.1623  0.0131
23358W        W43638  16.525  14.861  12.937  0.1148 -0.2960 -0.0322
23359W        W43639   2.903   4.371  14.071  0.1471 -0.0299 -0.2203
23360W        W43640  15.467   0.347  13.458  0.1951  0.0619 -0.1770
23361W        W43641   8.924   3.095  16.096  0.0671  0.1652  0.2126
23362W        W43642  10.716   9.317  15.491 -0.0892  0.0016  0.1091
23363W        W43643   2.616  14.293  14.960 -0.1063  0.0015 -0.0374
23364W        W43644  12.699   1.786   4.206 -0.1871  0.0677 -0.0748
23365W        W43645   3.435   3.962  14.485  0.0878 -0.1102  0.4487
23366W        W43646   8.568   3.106   3.439 -0.2343 -0.0213 -0.1329
23367W        W43647  14.420   8.743   4.302 -0.2018 -0.1208  0.2601
23368W        W43648  11.835   7.133  12.631  0.3975 -0.0716  0.1410
23369W        W43649   2.499  11.418   2.935 -0.0680 -0.0346  0.0903
23370W        W43650  10.544  15.818  11.462 -0.1256 -0.1491 -0.1067
23371W        W43651  12.085   8.895  16.244  0.2532  0.0202 -0.0542
23372W        W43652  13.260  10.063   3.406 -0.0112  0.2112  0.2338
23373W        W43653  13.555   5.671  15.062  0.1664  0.0439 -0.2343
23374W        W43654   9.457  12.105   0.016  0.0679 -0.1768  0.2450
23375W        W43655  15.176   7.557   3.040 -0.1175  0.0860  0.1458
23376W        W43656   3.549  14.087   0.483  0.0139 -0.1453  0.1082
23377W        W43657  16.379   6.360   2.141  0.1229 -0.0243  0.0775
23378W        W43658   1.478   7.708  16.200  0.0168 -0.1585  0.1183
23379W        W43659  14.557  10.547  13.784 -0.0003  0.2792  0.2266
23380W        W43660   7.443   1.908   4.189  0.0178  0.0110 -0.1063
23381W        W43661   9.209   6.280  12.456 -0.0998  0.5072  0.0157
23382W        W43662   6.113   6.911   0.097 -0.0854 -0.0236  0.0786
23383W        W43663   0.815   9.101   1.644  0.1685  0.1805 -0.3839
23384W        W43664   2.155   9.944   2.531  0.0166  0.1871  0.1939
23385W        W43665  11.938  16.151  16.692 -0.3187 -0.0488 -0.1028
23386W        W43666  16.194  15.055  14.213  0.1019 -0.1838  0.1036
23387W        W43667   9.219  10.387  13.750  0.0828  0.0056  0.0651
23388W        W43668   0.314   0.863  16.873 -0.1960 -0.0967 -0.0556
23389W        W43669  17.397  16.603  13.835  0.1216  0.2615  0.1661
23390W        W43670  12.317  15.224   4.578  0.3263  0.1390 -0.0542
23391W        W43671   2.907   7.582  13.299 -0.1431  0.1122  0.2307
23392W        W43672   9.839   6.668  15.478 -0.5045  0.1055  0.0645
23393W        W43673   1.733   5.195  16.500  0.0112 -0.1088  0.1717
23394W        W43674   7.927  10.315  15.226 -0.0197 -0.0623 -0.1863
23395W        W43675   8.861  11.874   2.170  0.0535 -0.2041 -0.0737
23396W        W43676  16.466  14.080  13.630  0.0718 -0.3482  0.2895
23397W        W43677   6.757  17.596  11.682 -0.1418 -0.1895 -0.2074
23398W        W43678  11.968   7.905   2.228  0.0379  0.1085  0.2340
23399W        W43679   7.070   7.017  16.784 -0.0154  0.4526  0.2614
23400W        W43680  12.474   2.514  15.586  0.0517  0.0376 -0.0280
23401W        W43681   3.409  10.426  13.750  0.0427 -0.1135  0.1472
23402W        W43682   3.108   0.204   2.729  0.1360  0.0301 -0.0133
23403W        W43683   3.633  11.302   3.710 -0.3292 -0.2994 -0.1522
23404W        W43684   0.769   9.532   1.307  0.0877  0.2326 -0.1646
23405W        W43685  13.120   8.882  14.360  0.0063 -0.2397 -0.1599
23406W        W43686   5.583   6.294   1.691  0.2960  0.2478  0.0611
23407W        W43687  13.264  15.989  15.022  0.3870  0.1993  0.2685
23408W        W43688   6.446  12.281  14.231  0.0475  0.3014  0.1337
23409W        W43689  11.763  13.606  15.191  0.0666 -0.0468  0.0995
23410W        W43690  17.663  11.455  15.388  0.0980  0.4852 -0.1215
23411W        W43691   2.954   8.036  14.425 -0.0764  0.0471 -0.2272
23412W        W43692   2.102  11.306  13.396 -0.1944  0.1074 -0.2050
23413W        W43693   0.552   7.139   3.518 -0.0509  0.0220 -0.1136
23414W        W43694   7.925   3.776   3.854  0.0790  0.0041 -0.0831
23415W        W43695   8.372   6.456   1.263  0.0723 -0.2259  0.1141
23416W        W43696   2.083   1.758   3.468  0.3537  0.1047 -0.1717
23417W        W43697  11.214   0.664  15.412 -0.4573  0.0719  0.0702
23418W        W43698   9.281  12.165  14.282  0.0490 -0.0643  0.2247
23419W        W43699  16.542  15.885   5.347  0.1430  0.0232  0.0667
23420W        W43700   7.851   2.800  16.913  0.0276 -0.1817 -0.0631
23421W        W43701   6.546  11.798  12.171 -0.0875 -0.1302  0.3703
23422W        W43702   0.215  15.718   0.337 -0.2662  0.3951  0.0464
23423W        W43703   6.593   2.685  13.114 -0.1244 -0.3362  0.1591
23424W        W43704   2.303  14.965  16.372 -0.3123 -0.0013  0.2768
23425W        W43705  10.242   7.371   1.310 -0.0553 -0.2585  0.0697
23426W        W43706   1.522   9.434   3.006  0.2405 -0.0615  0.0749
23427W        W43707  15.971  17.046  12.939  0.2418  0.2053 -0.0893
23428W        W43708   2.288  12.591  15.918 -0.3762  0.2536  0.0805
23429W        W43709  14.244   3.094   2.282 -0.0844 -0.0190  0.0717
23430W        W43710  12.825  14.099  13.469 -0.1364  0.0274  0.1774
23431W        W43711  10.238   0.736   1.674 -0.0055 -0.1198 -0.0848
23432W        W43712  11.752  12.236  16.607  0.0357  0.2486 -0.0222
23433W        W43713  14.876  14.771  13.988 -0.1051 -0.0645 -0.3068
23434W        W43714   9.985   7.963  11.196 -0.0447  0.0824 -0.0586
23435W        W43715   1.534   6.978  12.643  0.1909  0.0975  0.0643
23436W        W43716   6.651   9.392  15.415  0.0710 -0.2000 -0.0748
23437W        W43717  10.817   6.580  12.527 -0.4503  0.0603  0.1052
23438W        W43718   1.846  10.986   3.611  0.0475 -0.0683  0.1416
23439W        W43719   4.761  10.643   2.416 -0.0535 -0.1652  0.1167
23440W        W43720  15.497   7.508   1.730  0.1904  0.2839 -0.2276
23441W        W43721   6.958  16.542   0.216 -0.1603 -0.2140 -0.0295
23442W        W43722   5.301   6.602   1.361  0.3431 -0.1580  0.3531
23443W        W43723   4.940  16.309  12.352 -0.0565  0.0396  0.0569
23444W        W43724  15.037   4.003   0.968  0.1228  0.1843  0.2194
23445W        W43725  14.160  12.979  16.862 -0.2418  0.0703 -0.0164
23446W        W43726   3.077   6.914  15.300  0.0915 -0.3554  0.0512
23447W        W43727   3.558   9.439   4.539 -0.3750  0.1697  0.1782
23448W        W43728   0.876  12.861  12.977  0.2907 -0.1271  0.2419
23449W        W43729  17.002   1.109   4.577  0.1741  0.2107  0.1245
23450W        W43730   2.121   5.606  12.706 -0.1269 -0.0654 -0.0863
23451W        W43731   0.501   2.663   3.067  0.0906  0.3527  0.0253
23452W        W43732   1.043   3.742  13.202  0.2555 -0.2938  0.0646
23453W        W43733   1.576   6.586  14.583  0.1333  0.0766 -0.0655
23454W        W43734   5.292   0.772  14.341 -0.0190 -0.0425  0.1223
23455W        W43735   4.706  15.578  14.525  0.2241 -0.0996  0.1655
23456W        W43736   2.548  11.448  14.765  0.0029  0.0368  0.1158
23457W        W43737  10.907  10.889   4.259  0.2961 -0.1218  0.1198
23458W        W43738  14.809   8.601  14.509 -0.0368  0.2125  0.0942
23459W        W43739   0.254  11.713   0.320  0.2613 -0.0633 -0.2544
23460W        W43740   1.152  15.587   1.244  0.3169 -0.1508  0.0339
23461W        W43741   7.961   0.839  13.415  0.1913 -0.2487 -0.0126
23462W        W43742   0.692   1.553  15.115 -0.0337  0.0191  0.1518
23463W        W43743  10.846  16.867   4.519  0.1011  0.2886  0.2230
23464W        W43744   2.448  16.038  13.757  0.0255  0.3710  0.0106
23465W        W43745  17.716  14.299   4.148  0.0639 -0.0718 -0.3247
23466W        W43746   0.614   0.455   3.341 -0.3353  0.0200  0.0051
23467W        W43747  10.871  11.231  12.880 -0.1614 -0.0341 -0.1125
23468W        W43748  17.422  15.855  14.556  0.0108  0.3022  0.1349
23469W        W43749  15.584  12.906   1.862  0.1171  0.0731  0.0354
23470W        W43750   5.716  15.495   3.181 -0.0806  0.0167 -0.0623
23471W        W43751   3.955   5.811  12.840  0.1998 -0.3193  0.3079
23472W        W43752  15.372  15.094   2.647 -0.2500  0.3712  0.0692
23473W        W43753  16.280  15.351   1.444  0.0268  0.4770 -0.1923
23474W        W43754  13.917  13.055   2.494 -0.0194 -0.0730  0.0854
23475W        W43755   7.227   2.719   1.960  0.2177 -0.0354  0.0441
23476W        W43756  10.975  11.227   2.678 -0.0053 -0.1012  0.1884
23477W        W43757  10.857  11.101   3.715 -0.1492  0.1621  0.3861
23478W        W43758   3.062   1.954  14.867  0.1766 -0.1250 -0.0658
23479W        W43759   0.467   4.155   1.956  0.1268 -0.0301  0.0118
23480W        W43760   4.321   6.379   1.159  0.0435  0.0191 -0.1203
23481W        W43761  15.146  14.742   1.851  0.0782 -0.0186  0.0270
23482W        W43762  10.710   3.765   2.149  0.2076  0.0027  0.1416
23483W        W43763   5.716  14.844  16.328 -0.0922 -0.0729  0.0928
23484W        W43764  12.083  12.114   0.186  0.1476  0.5541  0.3081
23485W        W43765   6.519  11.827  16.837  0.1312  0.0438 -0.1241
23486W        W43766   3.732  11.524   2.164 -0.2099  0.2209  0.2154
23487W        W43767  13.158   0.766  15.897 -0.1170 -0.1977 -0.2041
23488W        W43768   0.579   5.988  15.474  0.0791 -0.0160 -0.1742
23489W        W43769   8.876   4.235   1.360 -0.2301 -0.1401 -0.0567
23490W        W43770   0.498   7.306   3.080 -0.1744 -0.0310  0.1143
23491W        W43771  13.454   6.450   4.188 -0.0900 -0.1574 -0.0217
23492W        W43772   2.659  17.486  12.177  0.0539 -0.1830 -0.1852
23493W        W43773   0.271  10.429   1.269  0.4821  0.0038 -0.2993
23494W        W43774  10.286  13.797  16.594 -0.1973 -0.1444 -0.0701
23495W        W43775  15.710   7.564   0.409  0.0532 -0.3732 -0.0206
23496W        W43776  10.562   8.071   0.845 -0.2644 -0.1485  0.1064
23497W        W43777  13.792  16.918  13.951  0.0769  0.1324  0.1286
23498W        W43778   2.850  11.020   4.395 -0.0646  0.0288  0.2228
23499W        W43779   8.633   0.326   2.062 -0.2777  0.3984  0.0836
23500W        W43780  11.349   0.680  12.888  0.1335  0.0338 -0.2499
23501W        W43781  13.661   1.676   2.408  0.2015 -0.0942  0.1550
23502W        W43782   7.409  10.373   4.834  0.0808 -0.3377 -0.1374
23503W        W43783  10.409  11.443  13.533 -0.1547 -0.0089  0.1075
23504W        W43784   8.254  17.676  14.672 -0.0621 -0.2313 -0.0613
23505W        W43785   7.520  12.233  12.096 -0.1550  0.1011 -0.1365
23506W        W43786  12.039  15.796   2.310 -0.1069  0.1642 -0.1132
23507W        W43787   6.839   6.126  16.509  0.0031 -0.0893  0.0012
23508W        W43788   7.260   1.340   2.346 -0.4828  0.0908  0.0610
23509W        W43789   0.381   7.964   3.037 -0.0420 -0.3890  0.0220
23510W        W43790  13.669   1.115  12.494 -0.2252 -0.1285  0.3094
23511W        W43791   0.749   3.767   0.994 -0.0029 -0.4535 -0.0047
23512W        W43792  13.331   1.500  14.554 -0.0805 -0.0012 -0.3075
23513W        W43793   1.310  10.940   0.783  0.0271 -0.2029  0.2054
23514W        W43794   1.541  14.549   0.037  0.4996 -0.0018 -0.1116
23515W        W43795  16.383   4.128   0.309  0.3227  0.0169  0.0591
23516W        W43796   5.779  16.364   4.925 -0.2084 -0.1542  0.2833
23517W        W43797   9.972  17.109   3.302  0.2631 -0.1223 -0.1560
23518W        W43798   9.295   5.486   0.936 -0.2080 -0.0300  0.1281
23519W        W43799   8.052   5.664  14.989  0.2837 -0.1535 -0.3249
23520W        W43800  11.655  12.260   2.492  0.2082 -0.0635 -0.1920
23521W        W43801  15.224   4.801  16.723 -0.1699  0.1091 -0.0901
23522W        W43802   0.934   1.440   4.048 -0.2240  0.0314  0.1396
23523W        W43803  16.261   0.214  14.005 -0.0153 -0.0035  0.0044
23524W        W43804   7.148   3.485   0.839 -0.1830  0.2052  0.2064
23525W        W43805   0.576   2.544  15.088  0.0322 -0.0014 -0.1227
23526W        W43806   2.883   2.125  14.048  0.1164 -0.0069 -0.2483
23527W        W43807   6.335   2.728  14.501  0.0811  0.1119 -0.2138
23528W        W43808   2.376   2.260  14.903  0.0617 -0.1101  0.2148
23529W        W43809  14.316   9.683  16.115 -0.1779  0.1318  0.0855
23530W        W43810   8.309   9.409  16.848 -0.0120 -0.1345 -0.2259
23531W        W43811   2.029   8.349  16.544  0.1391  0.2928 -0.0567
23532W        W43812   8.979  16.346   1.067 -0.3610  0.2385 -0.0124
23533W        W43813   9.053  10.971   4.309  0.2820  0.0416 -0.1760
23534W        W43814   4.198  14.267  13.326 -0.3184 -0.1343 -0.0378
23535W        W43815   9.557   7.160  14.732 -0.2619 -0.2200 -0.1234
23536W        W43816   4.325   7.655  14.369 -0.3187 -0.3401  0.3042
23537W        W43817  11.141   0.065   0.033 -0.0435  0.0088  0.2657
23538W        W43818  12.128   9.729   0.870  0.0309 -0.4611  0.0896
23539W        W43819   5.132  15.065  12.159 -0.2527  0.0510  0.1114
23540W        W43820   6.824   4.415  13.147 -0.1104  0.1840  0.0818
23541W        W43821   8.542  16.714   1.833 -0.0359 -0.1770  0.2137
23542W        W43822  11.395   8.494   1.928 -0.1114 -0.3932  0.1948
23543W        W43823   9.174   3.205   1.215 -0.5287  0.0118  0.0834
23544W        W43824   4.247  16.437   3.457  0.2382 -0.2123 -0.0958
23545W        W43825  12.808   5.079  16.962 -0.1464  0.0585 -0.0561
23546W        W43826  15.087   2.475  15.903 -0.0514  0.2082  0.0546
23547W        W43827   8.155  15.712   3.030 -0.1713  0.3192  0.2845
23548W        W43828  14.163  15.693   4.365  0.1035  0.2231 -0.1036
23549W        W43829  12.725   2.020   0.927 -0.1986 -0.0697  0.3177
23550W        W43830   9.360   2.684   3.498  0.3987  0.0190 -0.2339
23551W        W43831   6.709  16.390   4.727 -0.0634  0.1304 -0.1798
23552W        W43832  10.559   8.610   3.615 -0.1762  0.2336 -0.0969
23553W        W43833   6.584   8.244   4.259 -0.1183  0.0907  0.0056
23554W        W43834   4.665  17.523  13.765  0.0979 -0.2619 -0.0851
23555W        W43835  12.860  15.588   3.377 -0.0166 -0.1176  0.0475
23556W        W43836  11.070   6.499   3.327  0.0853  0.2452 -0.3685
23557W        W43837   2.803   5.685   1.079 -0.2268 -0.1373  0.1125
23558W        W43838   3.895  15.401  15.567 -0.3062 -0.0309 -0.0856
23559W        W43839  10.930  14.835   3.328  0.1223 -0.2677  0.0610
23560W        W43840   1.636  14.179  15.462  0.0173 -0.0057  0.0295
23561W        W43841   2.784   0.170   4.942 -0.3057  0.0477  0.1577
23562W        W43842  15.345   5.532   3.697 -0.2465 -0.0981 -0.0259
23563W        W43843   6.463   6.849   2.338 -0.0328  0.1935 -0.0581
23564W        W43844  13.507  10.950  15.071 -0.1434  0.0175  0.3617
23565W        W43845   7.065  12.973  13.010  0.0318 -0.0983 -0.2725
23566W        W43846   6.108  15.134  16.407  0.2226 -0.0364 -0.0499
23567W        W43847   4.089  15.388   2.980  0.1138 -0.3214 -0.2096
23568W        W43848   8.710  12.883   3.823 -0.2476  0.1789  0.3275
23569W        W43849   7.465  17.339  15.721  0.0964 -0.0042  0.0726
23570W        W43850  11.006   4.309   2.922 -0.0513 -0.3434 -0.2391
23571W        W43851   2.964  11.481   4.192  0.1916 -0.0201  0.2150
23572W        W43852   0.859   5.862   1.907 -0.1495  0.1228 -0.0870
23573W        W43853   2.181  16.320   4.769  0.1447 -0.0013 -0.3352
23574W        W43854   4.701  17.253   3.245 -0.2996  0.3829 -0.0564
23575W        W43855   0.097   3.214  13.306 -0.1625 -0.1707 -0.1207
23576W        W43856  11.156  13.169   2.427  0.1526  0.2148  0.2674
23577W        W43857   7.124  16.410  13.826  0.2225  0.0809 -0.2266
23578W        W43858  12.347  11.928  13.876  0.2565 -0.2225 -0.1130
23579W        W43859  10.844  16.412   3.637 -0.0824  0.1040 -0.2923
23580W        W43860  13.121   0.006  12.756 -0.0402  0.2182  0.1641
23581W        W43861  11.588  17.036  16.858 -0.0597  0.0003  0.0004
23582W        W43862   6.215   3.211  14.409  0.0629 -0.0781 -0.0713
23583W        W43863  15.239   7.301  16.664 -0.0739 -0.0555 -0.2245
23584W        W43864  11.085   9.415  14.177 -0.0454  0.2120  0.3025
23585W        W43865   1.208   5.739  16.104  0.1634  0.0283  0.2851
23586W        W43866  15.154  14.484  15.152 -0.3016 -0.0351 -0.1506
23587W        W43867   9.269  14.208   4.219  0.0565  0.1164  0.3213
23588W        W43868  11.591  14.402  15.522 -0.1065  0.1077 -0.0035
23589W        W43869   5.610   8.024  12.923  0.1078  0.0358  0.1183
23590W        W43870   3.871   6.557   4.434  0.1583 -0.0005 -0.2268
23591W        W43871   6.408  13.123  16.292 -0.1242  0.0419  0.0533
23592W        W43872   9.749  16.644   2.238  0.2336 -0.0624 -0.0356
23593W        W43873   0.412   1.519   4.591  0.0982 -0.1292 -0.0394
23594W        W43874  13.937   6.064   2.413 -0.1178 -0.2432 -0.0779
23595W        W43875  11.672  13.038   2.052  0.0641  0.2046 -0.2651
23596W        W43876   9.881   7.264   2.337  0.0837  0.2410  0.4182
23597W        W43877  11.595   6.064   2.715 -0.1592 -0.0154  0.0059
23598W        W43878  12.139  10.835   1.555  0.0116 -0.2167 -0.1421
23599W        W43879   6.373   1.777   1.920 -0.2404 -0.1279  0.3235
23600W        W43880   6.362  11.282  12.977 -0.0035 -0.0193 -0.1873
23601W        W43881  10.173  16.390  14.802 -0.1081 -0.0925 -0.1011
23602W        W43882   4.143   3.779   0.856  0.1916  0.0860  0.1086
23603W        W43883  10.009   9.250  13.808  0.3351  0.1016  0.1311
23604W        W43884  12.700  13.329  12.199 -0.2030  0.1013 -0.3018
23605W        W43885  14.403   2.739   1.957 -0.3631  0.0062  0.0985
23606W        W43886  12.574  16.320  16.633 -0.2075 -0.2875 -0.3193
23607W        W43887   8.095   5.776   4.601 -0.1610  0.0655  0.0799
23608W        W43888  16.569  14.974  13.827  0.0270 -0.2409 -0.0862
23609W        W43889   6.848  17.413   3.675  0.0384  0.2011 -0.2610
23610W        W43890  12.677  16.600  13.262  0.0086  0.1999  0.0640
23611W        W43891  11.584   5.786  15.370  0.0452 -0.0078  0.1354
23612W        W43892   3.298   9.016   3.176 -0.0047 -0.1661  0.1407
23613W        W43893  17.696  15.084  12.469  0.0042  0.1562  0.0052
23614W        W43894   8.011   0.579   3.762 -0.2540 -0.0540 -0.0972
23615W        W43895   0.768   3.462   4.817  0.1241 -0.1547 -0.0727
23616W        W43896   3.281   2.503  16.239 -0.0898 -0.0011 -0.1910
23617W        W43897   6.059   9.711   2.238  0.3800 -0.0127  0.1418
23618W        W43898   3.428   2.093  13.537  0.1233  0.0014  0.0305
23619W        W43899   6.402   8.045   2.972  0.0154 -0.0846 -0.0789
23620W        W43900   6.794   6.285   3.017  0.2515  0.1248  0.1255
23621W        W43901  12.912   4.593   1.114 -0.2274 -0.0423 -0.2027
23622W        W43902  14.641  13.320   0.726 -0.0377  0.0195  0.1114
23623W        W43903   0.933  10.027   2.567 -0.0820  0.0897 -0.0155
23624W        W43904   5.036  16.428   0.538  0.2559 -0.1221  0.1695
23625W        W43905   2.409  11.928  12.664  0.2906 -0.1086 -0.0516
23626W        W43906  11.613  16.950   4.874 -0.3309  0.0124  0.2069
23627W        W43907   9.209  17.310   1.878  0.2827 -0.0134 -0.1614
23628W        W43908   9.038  10.738   3.769  0.1949  0.1526 -0.1264
23629W        W43909   9.277  13.350   3.179 -0.1504 -0.1791  0.4982
23630W        W43910  13.301  13.165   1.440  0.1757  0.1105 -0.0270
23631W        W43911  11.645  11.292  14.996 -0.1479 -0.0880 -0.0743
23632W        W43912  11.394   4.501   0.398 -0.0254 -0.3644  0.1501
23633W        W43913   8.197   7.166  14.372 -0.1020 -0.0711 -0.1266
23634W        W43914   7.648  10.676  13.105  0.1596 -0.1670  0.0664
23635W        W43915  11.326   5.112   4.885  0.2593  0.1788  0.0259
23636W        W43916   5.165   9.084   0.327 -0.1277 -0.0106  0.1257
23637W        W43917  10.710  10.589   5.227 -0.0824  0.0322 -0.0471
23638W        W43918   4.599  16.146   4.661  0.2725  0.1387 -0.1577
23639W        W43919  16.414   5.942  16.007  0.1440  0.2907  0.1618
23640W        W43920  10.793   7.435   4.655  0.0820  0.1185 -0.0963
23641W        W43921   3.047  12.464  12.592  0.0781  0.2004  0.0944
23642W        W43922   0.791   0.431   2.804  0.2266  0.0820 -0.0598
23643W        W43923   6.605  11.275   2.144 -0.0585  0.0540 -0.0169
23644W        W43924   7.947   9.700  15.271  0.1091  0.2362 -0.0352
23645W        W43925   8.068  15.233  12.174 -0.3000  0.0578  0.1619
23646W        W43926  10.850   8.885   4.356  0.1478 -0.2095  0.0540
23647W        W43927  12.307   4.338  16.291 -0.1763  0.1177 -0.0779
23648W        W43928   5.481  15.765  13.661 -0.1055 -0.2112 -0.3159
23649W        W43929  16.407  16.868   2.048  0.0870  0.0346  0.2888
23650W        W43930  11.200   0.101  13.656  0.3062 -0.0184 -0.3548
23651W        W43931  14.005  10.149   4.675 -0.3092  0.0019 -0.3474
23652W        W43932   8.859   5.095  13.998 -0.2427  0.0272 -0.1184
23653W        W43933   9.769   8.499   0.397 -0.2210  0.4037  0.1475
23654W        W43934  14.883   6.394   3.656 -0.2701 -0.0705  0.2569
23655W        W43935  17.405   6.490   3.026 -0.0442 -0.3238 -0.0145
23656W        W43936  13.773   7.959  16.919  0.1929  0.1187  0.0091
23657W        W43937   4.241   2.609  16.572  0.0861  0.0279 -0.1100
23658W        W43938   5.001  11.595   4.270  0.3903 -0.1770  0.3012
23659W        W43939   4.303   8.585   1.380  0.2471 -0.0917  0.1835
23660W        W43940   7.103  15.071   1.764 -0.2173  0.2182  0.1089
23661W        W43941   5.565   5.994   3.354  0.3271 -0.2205 -0.1946
23662W        W43942   7.399  12.223   4.446  0.0698  0.1522 -0.2933
23663W        W43943   0.724  11.371   1.570  0.0093  0.2445 -0.0416
23664W        W43944  12.864   3.626  12.567  0.1824 -0.1198 -0.0117
23665W        W43945  14.370   0.543   1.942  0.4023 -0.0339 -0.2073
23666W        W43946   3.071  10.182  12.974  0.4717 -0.1168  0.0277
23667W        W43947   3.000  12.611  15.281 -0.3799  0.0715  0.3495
23668W        W43948   0.034   5.236   0.267 -0.0385  0.2232 -0.1518
23669W        W43949   4.412  16.892  16.365  0.2340  0.1184  0.2495
23670W        W43950   9.879   7.749   2.164  0.0459 -0.0387 -0.0023
23671W        W43951   6.245   4.933  15.888 -0.0499  0.0721  0.1150
23672W        W43952   7.083  13.434   4.813  0.1923  0.0946  0.3197
23673W        W43953   0.170  12.445   3.429 -0.0451  0.3096  0.1270
23674W        W43954  10.276   5.595  16.865 -0.0039  0.0624 -0.0553
23675W        W43955  11.837   4.902  13.327 -0.1417 -0.0206 -0.1681
23676W        W43956  13.006   7.629   0.101 -0.1090  0.0420 -0.0776
23677W        W43957  11.578   5.620   3.332 -0.0911  0.0690  0.0450
23678W        W43958   4.870  14.624  15.642 -0.0653  0.1713  0.0835
23679W        W43959  15.858   9.716   1.323  0.2127 -0.0273 -0.0370
23680W        W43960   3.963   3.268   1.809 -0.0855 -0.0329 -0.0551
23681W        W43961   4.244   8.737  15.570 -0.0186  0.1763  0.0426
23682W        W43962   5.743  15.584  12.032  0.0278 -0.1201  0.1812
23683W        W43963   8.506   7.316  16.687  0.1308  0.1922 -0.0080
23684W        W43964  13.900  16.308   2.560  0.1349 -0.2984  0.1723
23685W        W43965   0.379   9.242  12.364 -0.2855 -0.0265 -0.1288
23686W        W43966  10.980  17.634  14.028  0.1247 -0.2503  0.0118
23687W        W43967  13.052   4.913  12.298  0.0376 -0.1479 -0.0077
23688W        W43968   3.456  12.846  15.186 -0.1335  0.3649 -0.0127
23689W        W43969  16.577  12.358   4.630  0.0419  0.0209  0.2034
23690W        W43970   0.007  14.231   0.390 -0.1949 -0.0465 -0.1129
23691W        W43971  15.408   5.115   0.079  0.0977  0.2615 -0.1562
23692W        W43972   1.611  15.098   0.808 -0.2246  0.0519  0.2107
23693W        W43973   3.827  14.140  12.941  0.2503 -0.0829  0.2045
23694W        W43974   7.658   2.767   2.460 -0.0917 -0.1545  0.4831
23695W        W43975   5.756  11.105   0.710 -0.1327  0.1392  0.0654
23696W        W43976   3.971   2.247   4.007  0.3723  0.0850 -0.0154
23697W        W43977  16.543  11.993   0.897 -0.1116  0.3322  0.1512
23698W        W43978   7.393   1.024  14.273  0.2503  0.1682  0.1575
23699W        W43979  13.516   3.472  15.211 -0.0632  0.2435  0.2568
23700W        W43980  12.140   3.853  16.452  0.0662 -0.0646 -0.1080
23701W        W43981  17.490  12.112   2.315 -0.0405 -0.2319  0.1820
23702W        W43982   9.246  16.492   3.077 -0.1086 -0.0377 -0.1706
23703W        W43983   7.534   3.124  13.313  0.1580 -0.1574 -0.2044
23704W        W43984   8.993  11.173  13.885 -0.3626 -0.0032  0.0598
23705W        W43985   2.352   5.775  14.001  0.1695  0.0613  0.0305
23706W        W43986   6.543   0.466  14.511 -0.3248  0.0114  0.0332
23707W        W43987  17.089   2.209  15.400 -0.4516 -0.2611  0.0039
23708W        W43988  15.441   8.857   1.227  0.1591  0.0876  0.0829
23709W        W43989  15.813  16.287   0.367 -0.0984  0.0011 -0.0259
23710W        W43990  10.891  13.803  12.507 -0.0705 -0.1502 -0.3086
23711W        W43991   3.385   7.477  16.730 -0.2463  0.0924 -0.0758
23712W        W43992   6.909  13.427  13.128 -0.3729 -0.1747 -0.2983
23713W        W43993   1.256  14.716   0.846  0.0407  0.0220  0.0241
23714W        W43994   7.787   7.121  14.660  0.0438 -0.0273  0.2033
23715W        W43995  14.323  16.694  16.471  0.1295  0.0129  0.1944
23716W        W43996   2.304   0.064   0.488  0.0198  0.4012  0.1285
23717W        W43997  13.025  15.065  15.976  0.2744  0.2809 -0.4575
23718W        W43998  13.946   2.717   2.241 -0.4393  0.1265 -0.0907
23719W        W43999  15.764   0.787   3.815  0.0691 -0.1044  0.2093
23720W        W44000   8.231   3.758  12.814 -0.1915 -0.0151 -0.0382
23721W        W44001   5.624  14.120  14.541  0.0633  0.1501  0.2265
23722W        W44002   8.451  11.091  15.482 -0.2691 -0.1378 -0.2916
23723W        W44003   2.205  17.066   1.129 -0.2021 -0.0083  0.2967
23724W        W44004   1.162   1.132   3.093  0.4076  0.0052 -0.0025
23725W        W44005  11.588  10.149   1.875 -0.0778  0.0617 -0.2884
23726W        W44006   6.655   5.506   3.047  0.1626  0.2691 -0.0406
23727W        W44007  15.874  10.846  15.567  0.1857  0.0410  0.2960
23728W        W44008  10.425   4.825  15.037  0.1650  0.2748  0.0570
23729W        W44009  10.469  10.402   4.004 -0.0704  0.1478 -0.1431
23730W        W44010   3.277   5.596  15.054 -0.0172 -0.2876  0.2489
23731W        W44011   0.762   9.386  14.822  0.2631  0.1090  0.0306
23732W        W44012  17.277  15.400   1.315 -0.1803  0.0359 -0.0888
23733W        W44013  12.413  12.186  15.806  0.2824  0.1178  0.1943
23734W        W44014  16.113   9.258  12.308 -0.0473 -0.0609 -0.0051
23735W        W44015   5.989   0.915   4.524  0.0544  0.1714  0.3513
23736W        W44016   3.479  10.558   4.934  0.2518  0.1889  0.2705
23737W        W44017   9.186   6.352  14.209  0.1150 -0.2870  0.0878
23738W        W44018   4.033  17.273   5.498  0.4333  0.1589  0.1185
23739W        W44019  11.189  15.858  13.650 -0.0273 -0.0758 -0.1124
23740W        W44020   8.621   3.721  15.079 -0.1908  0.1045  0.3007
23741W        W44021  13.350  13.569   1.111  0.2984  0.2395  0.0918
23742W        W44022   7.601   9.489   0.356 -0.0649  0.1328  0.1423
23743W        W44023   4.229   4.172   0.579  0.0165  0.0233 -0.0825
23744W        W44024   7.456   3.483   2.691  0.1447 -0.1895 -0.0775
23745W        W44025   0.542   7.543  14.905  0.2550 -0.2529  0.2339
23746W        W44026  13.709  15.977   4.279  0.2755  0.1820  0.0511
23747W        W44027   5.758  11.214  14.705 -0.0920 -0.1171 -0.0004
23748W        W44028  17.503  12.703   3.606 -0.1882 -0.3670  0.3468
23749W        W44029   4.864   7.851  15.352 -0.1125 -0.1179 -0.0457
23750W        W44030  11.746  12.643  15.900 -0.1586  0.0323 -0.1980
23751W        W44031   4.461   8.700   0.911  0.0148  0.1520  0.1471
23752W        W44032  15.742   5.104   0.988  0.3846 -0.4076  0.2850
23753W        W44033   5.344   2.058  13.536  0.4987 -0.1071  0.0429
23754W        W44034   0.775  16.603   1.110  0.0527 -0.1204  0.1475
23755W        W44035  13.916   6.749  12.684  0.0760 -0.0470  0.2326
23756W        W44036   9.810   9.379   3.346  0.0412 -0.3033 -0.2741
23757W        W44037  11.957   1.559  16.459 -0.1365 -0.1758 -0.0967
23758W        W44038   4.512  13.702  15.499 -0.4319 -0.3480 -0.0436
23759W        W44039  13.636   3.553   1.608 -0.0320  0.2462 -0.0347
23760W        W44040   5.233   4.456  13.976  0.1772  0.1388 -0.0425
23761W        W44041   4.005   4.551   4.998 -0.4119  0.0696  0.3141
23762W        W44042  14.351  14.696  14.850 -0.0613  0.4053  0.0163
23763W        W44043  16.288   6.895  14.896  0.0067  0.0729 -0.2610
23764W        W44044  11.515  15.332  15.042  0.0092  0.1233 -0.0785
23765W        W44045   9.101   9.953   4.253  0.0688  0.3293 -0.3645
23766W        W44046   2.915   5.289  14.824 -0.0932 -0.1477  0.0816
23767W        W44047   1.376   3.365  12.445  0.3422 -0.0458  0.1423
23768W        W44048   1.622   5.719  13.360 -0.0071  0.0218  0.1350
23769W        W44049   0.349   1.907   1.989  0.3584  0.0840 -0.1498
23770W        W44050  13.733   6.815   0.555  0.2287  0.0456 -0.0772
23771W        W44051   4.146   1.475   2.198 -0.5290 -0.0602  0.1276
23772W        W44052  10.645   9.968   1.210  0.1834 -0.1495 -0.0228
23773W        W44053   7.367   6.587   4.868  0.0170  0.1369 -0.0935
23774W        W44054  10.465   6.055   1.796  0.3083  0.4372 -0.0918
23775W        W44055  10.620  10.460   1.041  0.0838  0.2241 -0.1871
23776W        W44056  12.593   7.825   2.030  0.1230  0.0494 -0.0246
23777W        W44057   4.683   2.272   1.851  0.0666 -0.2472 -0.1554
23778W        W44058  12.814   3.898  16.480 -0.1402 -0.1923  0.1064
23779W        W44059  11.477  11.131   0.772 -0.2657 -0.0623 -0.1692
23780W        W44060   1.216  11.259   3.051  0.0056  0.0236 -0.0433
23781W        W44061  11.098   8.117   4.085  0.1590  0.3428  0.1478
23782W        W44062   1.081   1.862   4.355  0.0268 -0.0894  0.2285
23783W        W44063   2.475  15.956  15.796  0.0829  0.0772 -0.3869
23784W        W44064  10.088   0.009  12.492 -0.0015 -0.0171  0.1063
23785W        W44065   3.630  10.330   3.471 -0.1149  0.1425 -0.3904
23786W        W44066   7.512   5.502   0.181  0.0920  0.0652 -0.2047
23787W        W44067  10.773   1.784  13.427 -0.1497  0.0226 -0.1464
23788W        W44068   4.490   2.989   3.992 -0.4218  0.1147 -0.0762
23789W        W44069   6.427   1.445  14.262 -0.0977 -0.1289  0.1817
23790W        W44070   9.479   9.124  13.880  0.0547  0.0792 -0.1509
23791W        W44071   0.227   0.572   4.900 -0.0635  0.1870 -0.2741
23792W        W44072   8.481   9.411   2.054  0.2139 -0.1072  0.2205
23793W        W44073   8.267  10.806   4.458  0.1835  0.1655  0.0984
23794W        W44074   5.627   3.577   1.577 -0.1020 -0.0587 -0.2058
23795W        W44075  11.838  11.766   2.667 -0.0939 -0.1899  0.2702
23796W        W44076  12.509  17.277   2.451 -0.0757 -0.1805 -0.1492
23797W        W44077  14.281  11.943   4.581 -0.0637 -0.0349  0.0700
23798W        W44078  11.575   8.491   2.695 -0.2169 -0.1654 -0.1057
23799W        W44079   7.745  10.146   3.067  0.0972  0.0880 -0.2382
23800W        W44080   2.960   9.777  15.899 -0.3378 -0.0663 -0.0569
23801W        W44081   5.760  10.849   1.593  0.0750  0.3430  0.1218
23802W        W44082   1.997  14.705  14.821 -0.1168  0.1175 -0.3916
23803W        W44083  17.699   6.058   3.211  0.2779 -0.3745 -0.1532
23804W        W44084   0.322  16.291   0.169 -0.2361 -0.1027  0.0386
23805W        W44085  11.523   3.267  12.094  0.0595 -0.4208  0.1783
23806W        W44086   5.906   2.483  13.930  0.2210  0.1163  0.1177
23807W        W44087   7.197  16.016  14.190 -0.0702  0.0205 -0.1449
23808W        W44088  10.846   1.200   2.186  0.0028  0.1570  0.0565
23809W        W44089   9.842  15.119  11.790  0.0552 -0.0178  0.1478
23810W        W44090  16.025   9.690   4.364 -0.1266 -0.1087  0.1560
23811W        W44091  16.671  10.788  13.057  0.1477 -0.2164 -0.1457
23812W        W44092  12.703   1.231   1.318  0.0918  0.0160  0.0086
23813W        W44093  15.502   1.601   1.784  0.1543 -0.4209  0.2407
23814W        W44094   0.079   3.114  16.176 -0.3445 -0.1448  0.4212
23815W        W44095   2.189   0.767   2.302 -0.3011  0.2507  0.0016
23816W        W44096  14.414  17.253   0.768 -0.2112 -0.3170 -0.2737
23817W        W44097  11.698   5.756   4.019 -0.1800 -0.1347 -0.2946
23818W        W44098   7.036   9.380   3.598  0.0919 -0.0013 -0.0691
23819W        W44099   1.268   3.071  16.693  0.4609 -0.2920 -0.1658
23820W        W44100  16.538   2.683   3.421  0.0424  0.0118 -0.0823
23821W        W44101   6.737  16.141   0.028  0.0512 -0.2513  0.0749
23822W        W44102  12.517   4.861   0.306  0.0282 -0.3852 -0.1196
23823W        W44103   5.733   0.369   2.933 -0.3413 -0.0725 -0.0232
23824W        W44104   3.130   2.409   2.354  0.0564 -0.0506  0.3566
23825W        W44105   5.129   6.131   3.608  0.0115  0.3572 -0.2570
23826W        W44106   7.970  10.078  13.978  0.1683 -0.0252  0.1398
23827W        W44107  13.874  12.123  16.545 -0.0202 -0.2145 -0.0611
23828W        W44108  17.225   7.325  15.154 -0.0503  0.0091  0.1404
23829W        W44109   1.667  16.296  12.463 -0.1507 -0.1176 -0.0963
23830W        W44110  11.314  15.881   0.153 -0.0848 -0.0694  0.1022
23831W        W44111   3.256   2.281   4.235  0.0243 -0.2064  0.2428
23832W        W44112  12.857  12.912  12.943 -0.3169  0.1899 -0.2976
23833W        W44113   9.693   8.669  14.646  0.4711  0.0220 -0.0397
23834W        W44114   6.574   8.007  13.870 -0.2678 -0.1559  0.2094
23835W        W44115  10.089   8.205   4.477  0.1189  0.1381  0.1271
23836W        W44116   7.869  11.635   0.182  0.0590 -0.0607  0.1039
23837W        W44117   8.901   6.809  12.278 -0.1927 -0.2414  0.2696
23838W        W44118   5.411   6.805   2.015 -0.1165  0.1552 -0.0972
23839W        W44119  14.963  17.169   4.342 -0.1266  0.1318  0.0162
23840W        W44120  17.267  16.498   0.534 -0.1566 -0.0155  0.1207
23841W        W44121   3.903  10.464   5.212 -0.0150  0.3212 -0.1985
23842W        W44122   3.032   7.891   1.416 -0.0815 -0.0887 -0.0237
23843W        W44123   3.538   6.789   3.547  0.2059  0.1963 -0.0620
23844W        W44124  11.777   3.896   4.809 -0.0807  0.1748 -0.0165
23845W        W44125   0.765  14.959   4.113  0.0947  0.2586  0.0926
23846W        W44126  15.048  12.753   3.890  0.2832  0.0355 -0.0968
23847W        W44127   7.538  16.580  16.682  0.4341 -0.0970  0.0627
23848W        W44128   6.069   6.930   3.590 -0.0544 -0.0456  0.0063
23849W        W44129   5.662   1.186  15.214 -0.1758 -0.1377  0.4180
23850W        W44130   7.331   3.674  12.170 -0.0616 -0.2224  0.3312
23851W        W44131  15.926   4.431  12.969 -0.1737  0.0113 -0.1771
23852W        W44132   1.539  11.395  14.590 -0.6058 -0.1521  0.0615
23853W        W44133   4.422  16.952   1.539 -0.1651 -0.0093  0.0550
23854W        W44134   5.412   8.081   2.784  0.0838  0.1864 -0.0167
23855W        W44135   7.525   0.326   4.024  0.0323 -0.3654 -0.0738
23856W        W44136   5.189  14.711  13.690  0.1796 -0.0165  0.1812
23857W        W44137   0.510  10.583  15.605  0.3706  0.0972  0.1377
23858W        W44138  13.944   0.309   3.471 -0.3203 -0.0959  0.2491
23859W        W44139   0.088  10.107  16.715  0.3188  0.0403 -0.0831
23860W        W44140   1.820  17.135  12.546 -0.1041 -0.0309  0.1902
23861W        W44141  13.109   1.294  14.086 -0.0883  0.2394 -0.2333
23862W        W44142  13.773   4.178  14.172 -0.1780  0.0836  0.3315
23863W        W44143   6.338   4.663  14.708 -0.1567 -0.0648 -0.1226
23864W        W44144   5.147   0.206   4.619  0.0269  0.0733  0.2067
23865W        W44145  16.848   9.076  11.229  0.1128 -0.0071 -0.0175
23866W        W44146  12.530   6.564  15.480  0.1483 -0.0901 -0.2234
23867W        W44147   2.935  15.409   0.089  0.0872  0.0977 -0.3084
23868W        W44148   1.938  16.938  16.411 -0.0990  0.1679 -0.0401
23869W        W44149  12.852  13.921  14.429 -0.1428  0.4439 -0.1533
23870W        W44150   9.621   4.949   0.169 -0.2469  0.4654  0.3362
23871W        W44151  12.053   1.628  12.839 -0.0088  0.1639 -0.0593
23872W        W44152   8.597   8.593  14.655 -0.0537 -0.1129  0.1829
23873W        W44153  13.905  12.281  13.046 -0.1977 -0.1462 -0.1558
23874W        W44154  17.678   1.111   0.084 -0.0139  0.0302  0.0873
23875W        W44155   2.205  10.708   1.168  0.0199  0.0831 -0.0120
23876W        W44156  10.253   5.998  13.208  0.0565 -0.2156  0.1361
23877W        W44157  14.450   0.481  12.352 -0.3601 -0.2501 -0.3766
23878W        W44158   2.794   8.202  13.973 -0.0264 -0.2121  0.1083
23879W        W44159   0.526  12.044   0.055  0.0872 -0.2077  0.1621
23880W        W44160  14.844  10.665  16.931 -0.1410 -0.0309  0.1722
23881W        W44161   4.139   7.584  16.434 -0.2440 -0.2820 -0.2654
23882W        W44162   3.581   9.010  16.637 -0.0388 -0.1301  0.0813
23883W        W44163   1.978   7.808  16.989 -0.1487  0.2800 -0.3321
23884W        W44164  12.225   1.891  12.492  0.1136  0.1385 -0.3916
23885W        W44165   0.080   5.496  14.925 -0.2424  0.0781 -0.1170
23886W        W44166   1.941  14.289   1.923 -0.2218  0.1166 -0.0904
23887W        W44167   1.763   1.761   0.330 -0.0416  0.0434 -0.1713
23888W        W44168  13.713   4.215   0.987 -0.0230 -0.0935 -0.0897
23889W        W44169  13.964   8.364  15.189  0.1299 -0.1445  0.1889
23890W        W44170   3.394  14.635   1.393  0.2324 -0.2551 -0.0644
23891W        W44171   0.756  15.153  15.288 -0.1824  0.2711  0.0647
23892W        W44172  13.129   1.476   2.308  0.1307  0.1002 -0.1601
23893W        W44173   5.344   9.573   3.326 -0.2661 -0.0154  0.1947
23894W        W44174   3.182   6.131   0.232 -0.2619  0.0035  0.4408
23895W        W44175  13.999   5.420  12.387  0.1485  0.2148 -0.1346
23896W        W44176  14.643   7.809  15.087  0.1850  0.1001  0.0975
23897W        W44177   5.296   3.268   2.298 -0.4004  0.3230 -0.0630
23898W        W44178  11.668   2.823  14.441 -0.1309 -0.0102  0.0289
23899W        W44179  14.390  13.280  15.514  0.2918 -0.2435  0.0530
23900W        W44180   4.277  13.358   3.975 -0.2289 -0.1966 -0.1306
23901W        W44181   4.650   2.589  13.888  0.1432 -0.1564  0.3453
23902W        W44182   6.882   3.297   2.829 -0.0903 -0.0174  0.3843
23903W        W44183  12.179   9.201   0.888 -0.0252 -0.2306 -0.1616
23904W        W44184   0.891  11.266  15.303 -0.1046  0.2320  0.0373
23905W        W44185   5.412  17.552   1.838 -0.0516  0.0644  0.0673
23906W        W44186   9.115   2.103   4.169 -0.0340  0.1238  0.0388
23907W        W44187   5.385  15.067   1.224 -0.4259  0.3749  0.1912
23908W        W44188  10.501  14.272  11.446 -0.2347  0.1735  0.0350
23909W        W44189   6.722   2.868  13.650 -0.0780  0.1823  0.2105
23910W        W44190  17.430   1.750   3.667 -0.2875 -0.0266  0.1773
23911W        W44191  10.912   6.348  14.417  0.2759 -0.1514  0.2071
23912W        W44192  14.232  14.961  14.416 -0.2040 -0.1786 -0.4135
23913W        W44193   5.895   4.719  16.200 -0.3199 -0.0712 -0.2207
23914W        W44194   1.118   9.878   3.543  0.2321 -0.2014  0.1069
23915W        W44195   1.608   9.471   0.087 -0.1998 -0.1033 -0.0062
23916W        W44196  11.077   0.095   5.037 -0.1672 -0.0465  0.2606
23917W        W44197  15.592   3.060   4.280 -0.2094  0.1169 -0.0312
23918W        W44198   0.058   2.490  13.054  0.0603 -0.0259  0.2129
23919W        W44199  17.332  17.054  14.237 -0.1818  0.0151  0.2819
23920W        W44200  10.908   5.698  15.827 -0.0555  0.1307 -0.3272
23921W        W44201   1.618   8.938  12.371 -0.1981 -0.2984 -0.2600
23922W        W44202   7.665   9.063  14.609  0.1572 -0.0159  0.1829
23923W        W44203   4.216   7.046   4.399  0.0678 -0.3517  0.1999
23924W        W44204   5.086   2.349  13.920 -0.1897 -0.0555  0.3102
23925W        W44205   6.418  17.197   2.346 -0.3410 -0.0327  0.0409
23926W        W44206   5.632  16.754   2.141 -0.0679 -0.1146 -0.1786
23927W        W44207   9.066  10.029  14.689  0.1144  0.1514  0.0411
23928W        W44208  14.185  14.205  14.301  0.0796  0.2273  0.1293
23929W        W44209  15.589   4.008  14.276  0.1697 -0.2647 -0.4937
23930W        W44210   9.914  14.487   3.173  0.1203 -0.0008 -0.2316
23931W        W44211   5.294   5.514   0.988  0.0858  0.0447 -0.0858
23932W        W44212  11.135   3.435   3.673  0.0946 -0.0574  0.2998
23933W        W44213  15.041   8.605  15.062  0.0068  0.1086 -0.0174
23934W        W44214   1.490  10.881  14.966  0.0175  0.2240  0.0225
23935W        W44215   5.694  10.399  15.285  0.0199  0.1412  0.1066
23936W        W44216  11.654   8.467   1.417  0.0860  0.0316  0.0326
23937W        W44217  10.777   8.027   2.777 -0.2964  0.2207 -0.5906
23938W        W44218   7.752  14.074   1.735 -0.1832  0.2634 -0.4265
23939W        W44219  13.995  11.160  16.653 -0.1630 -0.0686  0.1485
23940W        W44220  12.542   2.226  16.671 -0.2601  0.0788 -0.0430
23941W        W44221  14.646  14.197  12.868  0.0220 -0.0637 -0.1499
23942W        W44222  10.185  17.495   2.121  0.2105 -0.1069 -0.0931
23943W        W44223   8.930   2.539  15.894  0.3103  0.4111 -0.2146
23944W        W44224   7.103   3.244  13.600 -0.1309 -0.1503  0.2676
23945W        W44225  12.262  11.129  14.876  0.2513 -0.0020 -0.3681
23946W        W44226   0.307   7.601  13.021  0.2095  0.0817 -0.1001
23947W        W44227  15.443   2.252  15.136 -0.2518 -0.1617  0.4394
23948W        W44228   6.936   1.908  13.439 -0.1841  0.0380 -0.1369
23949W        W44229   5.904   2.684  16.977 -0.3199 -0.1186 -0.2487
23950W        W44230  15.281  14.668  12.337 -0.1602 -0.0384 -0.2561
23951W        W44231   3.490   0.761   4.756  0.2806  0.0252  0.5385
23952W        W44232  15.458  12.313   2.924 -0.1790 -0.0301  0.1838
23953W        W44233   4.346   5.768   0.963  0.1667  0.0626  0.2098
23954W        W44234   3.416   3.971   1.239  0.0515 -0.0083 -0.2559
23955W        W44235   4.169   8.839   3.698 -0.2482 -0.0388  0.0285
23956W        W44236  17.614  14.169   4.745 -0.0771  0.1734 -0.0846
23957W        W44237  16.444  10.250  13.158  0.0138 -0.2729  0.2179
23958W        W44238   0.046   8.334   1.178  0.1950 -0.0128  0.0775
23959W        W44239   3.144  13.097   0.204  0.1041 -0.1680  0.0702
23960W        W44240  16.140   7.534   0.142 -0.0275 -0.0303 -0.1185
23961W        W44241  17.309  17.105   2.057 -0.1030 -0.0339 -0.1716
23962W        W44242  10.662   0.620   3.693  0.1030  0.0101  0.1497
23963W        W44243   6.444  14.937  12.721 -0.0558  0.1146  0.1087
23964W        W44244  17.071  11.334   1.813 -0.0773  0.1466  0.1381
23965W        W44245   8.749  17.271   1.913  0.1816  0.0110  0.0185
23966W        W44246  13.943   2.850  12.985  0.0675 -0.1045 -0.1336
23967W        W44247   1.299   6.079   1.851 -0.2699  0.1028 -0.0635
23968W        W44248  11.775  10.994   2.239 -0.2673 -0.1193 -0.1957
23969W        W44249  10.501   8.281   2.066 -0.0088  0.2080  0.1668
23970W        W44250   3.667  12.995   3.195 -0.0448  0.1253  0.1384
23971W        W44251   9.750  17.686  16.884 -0.2192  0.1660  0.1795
23972W        W44252  12.683  10.726   4.224  0.0422  0.0280 -0.0644
23973W        W44253   4.066  16.832  13.670 -0.0434  0.0268 -0.2418
23974W        W44254   1.433  14.766   2.267  0.0273  0.0099 -0.0351
23975W        W44255  12.700   7.250  13.341  0.0477 -0.0405  0.0742
23976W        W44256  14.236  10.214  14.118 -0.0411  0.1370 -0.1710
23977W        W44257  14.870   3.684  16.323 -0.4673  0.0550 -0.1800
23978W        W44258   2.336  12.826  13.806 -0.0160 -0.0873  0.0776
23979W        W44259   8.945  15.006  12.610  0.3676  0.0252 -0.2931
23980W        W44260  10.408   7.330  13.573 -0.3321 -0.2231 -0.1374
23981W        W44261  11.816   8.858   3.008 -0.0006 -0.0428 -0.0246
23982W        W44262   7.927  17.692   3.158 -0.0904 -0.1265 -0.0750
23983W        W44263  12.539   7.857  16.843  0.0944  0.2994 -0.0114
23984W        W44264   3.987  12.432  12.887 -0.2541  0.0246  0.1295
23985W        W44265   6.368  14.150  16.324 -0.2019  0.0618  0.1329
23986W        W44266  12.065   7.376   0.557 -0.2826  0.0883 -0.2369
23987W        W44267   0.084   9.931  16.034  0.0328 -0.1188 -0.1000
23988W        W44268  12.068   6.520   1.352 -0.2139 -0.0326 -0.1325
23989W        W44269   2.215  16.003   1.901  0.2029  0.1430 -0.2737
23990W        W44270  16.980   0.764  12.884 -0.1653  0.1138  0.1404
23991W        W44271   7.940  11.711  16.060  0.2971 -0.0328 -0.2602
23992W        W44272   1.690   9.322   4.086  0.1382  0.0827  0.0684
23993W        W44273   5.431  17.417   0.110  0.1932 -0.2990  0.0460
23994W        W44274  11.613  13.908  14.592 -0.0196  0.2479  0.2912
23995W        W44275  16.176   6.683   2.569 -0.0422 -0.0655 -0.2675
23996W        W44276   1.488   1.051   2.747  0.3845 -0.2080  0.2227
23997W        W44277  13.814  16.128   4.841 -0.1564 -0.0284  0.0207
23998W        W44278   8.411  10.815  14.161 -0.0287 -0.2084 -0.1988
23999W        W44279   4.109   4.609   2.270 -0.0732  0.2369 -0.0095
24000W        W44280   6.725  13.660   1.225  0.0569 -0.2685  0.1777
24001W        W44281  14.626  12.173  12.598  0.0064  0.0210  0.1688
24002W        W44282   0.289  13.922   0.093  0.1078  0.1925  0.1945
24003W        W44283  16.099  14.716  15.769 -0.0334  0.4242 -0.0930
24004W        W44284  16.434  15.217   0.597  0.0256  0.0823 -0.2028
24005W        W44285  14.084  15.588  16.777  0.0490 -0.0991 -0.1423
24006W        W44286  12.827  12.002  13.686 -0.0090  0.4209  0.2140
24007W        W44287  17.411   3.046   3.590  0.0392 -0.1032 -0.1106
24008W        W44288  13.181   2.538  14.618 -0.0583 -0.2246 -0.0831
24009W        W44289   8.984   9.410   0.893 -0.0771  0.3093  0.0418
24010W        W44290  12.589   6.953   3.865 -0.2134  0.0979  0.1408
24011W        W44291   4.313  13.234   0.054  0.1174 -0.2062 -0.3430
24012W        W44292   9.011   4.665  11.714  0.2050 -0.1526 -0.2309
24013W        W44293  15.206  16.118   6.037 -0.2726  0.1318 -0.0158
24014W        W44294   7.455  15.038  16.429  0.0779 -0.2586  0.1146
24015W        W44295  10.590  16.068  14.731 -0.0106  0.4576 -0.0946
24016W        W44296  14.569  10.569  15.503  0.2960 -0.1880 -0.2766
24017W        W44297   4.296   3.864   2.948  0.0073  0.1221  0.0086
24018W        W44298  10.107   2.434   0.066  0.0662  0.0974 -0.1795
24019W        W44299  10.080   0.407  14.231  0.0131 -0.1754 -0.0847
24020W        W44300  14.772  12.711  11.822  0.2032  0.0996 -0.1401
24021W        W44301  13.195   1.903   0.618  0.0807  0.3267 -0.1980
24022W        W44302  14.071   7.787  12.890  0.0646  0.2447  0.0897
24023W        W44303  17.156   2.205   3.853 -0.0718 -0.1950 -0.2781
24024W        W44304   8.462  10.507   2.841 -0.0117 -0.1196 -0.3040
24025W        W44305   9.783   2.922   1.787 -0.1729 -0.0597 -0.2005
24026W        W44306   9.345   9.561  13.759  0.0393 -0.4252  0.2903
24027W        W44307   7.934  16.157   4.726  0.0467 -0.1024  0.0509
24028W        W44308   7.315  13.330  13.958 -0.3917 -0.1346  0.1634
24029W        W44309   3.768  17.530   4.843  0.1577 -0.2928 -0.1962
24030W        W44310  12.391   9.739  15.595 -0.2666  0.1481  0.0427
24031W        W44311  11.470  11.347  16.990  0.1080  0.1957  0.1404
24032W        W44312   7.118   5.716  16.646  0.2589 -0.2470  0.0155
24033W        W44313  14.265   5.769  12.719  0.0250  0.1797  0.0763
24034W        W44314   9.870  14.298  14.905 -0.0729 -0.3454 -0.2576
24035W        W44315   3.144  10.381   3.788  0.0716 -0.0141 -0.1923
24036W        W44316   6.021  11.623   5.500 -0.1327 -0.0225 -0.4366
24037W        W44317   1.715   4.317   2.432 -0.0592 -0.2233 -0.0477
24038W        W44318   8.021   4.618   3.378  0.2147  0.1997 -0.1376
24039W        W44319   8.696  12.770  15.040 -0.2831 -0.0850  0.0400
24040W        W44320   8.672  15.323   4.362  0.4070  0.0051 -0.2589
24041W        W44321  14.042  12.096   4.159 -0.1109  0.0882  0.1733
24042W        W44322  11.681  12.784  14.777  0.1141  0.0201  0.0240
24043W        W44323  12.857  14.547  12.330 -0.1670  0.0224 -0.1014
24044W        W44324   3.558  12.185   3.309 -0.0042  0.3863 -0.0118
24045W        W44325   9.713   9.502  14.154  0.0209  0.1804  0.0059
24046W        W44326  10.677   8.870  15.708  0.0789 -0.1660 -0.1903
24047W        W44327   5.741   6.783   1.592  0.4581  0.0361  0.0196
24048W        W44328   2.895  12.732   0.474  0.1142  0.1483 -0.1988
24049W        W44329   2.470  13.951   0.392 -0.1167  0.1678 -0.0676
24050W        W44330  13.860   4.375   2.406  0.0693 -0.1576  0.1970
24051W        W44331  10.900  14.038   4.763  0.0186 -0.0860 -0.0292
24052W        W44332  14.174   9.196  12.331 -0.0752 -0.1787  0.0870
24053W        W44333   9.981  14.612   1.846  0.0842 -0.0656 -0.0840
24054W        W44334  16.633  15.775  15.200 -0.1437  0.0982  0.1973
24055W        W44335  12.846  13.805  13.931 -0.2272 -0.0364 -0.0365
24056W        W44336  15.347   1.103   4.028 -0.0279 -0.0594  0.0439
24057W        W44337  14.801  17.063  15.510  0.1661 -0.0193  0.0197
24058W        W44338   9.294  16.722   1.342 -0.3088 -0.1960 -0.0561
24059W        W44339   3.162   4.764   1.169  0.0049  0.3200 -0.2724
24060W        W44340   6.673  10.870   4.296 -0.0149 -0.0031  0.2895
24061W        W44341   3.534  16.928   2.108 -0.0210  0.0786  0.2087
24062W        W44342  11.481   1.298  16.989  0.1568 -0.1060  0.0269
24063W        W44343   9.790   6.393  14.994 -0.3014  0.2671  0.1285
24064W        W44344  14.385  16.806  15.430  0.0446 -0.2555  0.0140
24065W        W44345  13.675  11.253  12.904 -0.0232 -0.1115 -0.2273
24066W        W44346  13.625  17.704  12.770 -0.1424  0.3055 -0.0512
24067W        W44347  16.563   5.978   3.530  0.0493  0.1707 -0.1731
24068W        W44348   0.405   3.924  16.152 -0.1333  0.0738  0.0200
24069W        W44349  15.092  14.513   0.686  0.3975  0.0708  0.3046
24070W        W44350   0.556  11.417   0.958 -0.0588  0.0687 -0.0163
24071W        W44351  12.965  16.636   3.056  0.0461 -0.1773 -0.1376
24072W        W44352  16.129   5.889   0.902 -0.1953  0.3301  0.0658
24073W        W44353   1.661   8.775  16.181 -0.0660  0.1518 -0.0833
24074W        W44354  13.893  17.599  12.371 -0.2249 -0.0517 -0.1244
24075W        W44355  15.913  16.494   2.571 -0.0012 -0.2182 -0.1169
24076W        W44356   5.578  17.498   1.233  0.0497 -0.2119  0.1061
24077W        W44357  16.836   8.149  15.933  0.3234 -0.1988  0.2673
24078W        W44358  11.570   5.320  15.546 -0.1944  0.0586 -0.2294
24079W        W44359  11.906  10.841  14.375 -0.3894  0.2068  0.2398
24080W        W44360   8.590   8.970  14.987 -0.6085  0.2752  0.1695
24081W        W44361   8.398  14.969  14.808  0.1577 -0.0256  0.2505
24082W        W44362   5.151  12.612   4.678  0.1726  0.1887  0.0436
24083W        W44363   4.662   0.148   0.412  0.0452  0.0348 -0.1517
24084W        W44364   2.726   5.004  16.815  0.1337 -0.0979  0.1849
24085W        W44365   2.617   6.458  16.533  0.3056 -0.0902 -0.1690
24086W        W44366   1.304  10.128   4.310 -0.4053  0.0952 -0.1517
24087W        W44367  15.079   3.379  13.890 -0.1268 -0.2185  0.3947
24088W        W44368   2.859   9.274   0.379  0.0978  0.0649 -0.2644
24089W        W44369   7.653   2.931  14.140 -0.1907 -0.2386 -0.1777
24090W        W44370   1.606   9.888  16.712 -0.2116 -0.0287  0.1614
24091W        W44371   6.268   7.414  13.094  0.1443 -0.1174  0.2858
24092W        W44372   4.572  12.907   1.564 -0.2134  0.0785  0.0977
24093W        W44373   9.971  10.676   4.219  0.0208 -0.0772 -0.3622
24094W        W44374  14.658   7.030   0.544  0.1282 -0.1127  0.1010
24095W        W44375   9.734   4.678  15.568 -0.1582  0.0537 -0.1429
24096W        W44376   3.538   5.175   1.186 -0.1448 -0.1971 -0.1885
24097W        W44377   8.594   1.616  12.951 -0.1663  0.0987 -0.1387
24098W        W44378   1.833  16.706  12.763 -0.1497 -0.3078 -0.0366
24099W        W44379  15.762  15.737   5.024 -0.2255 -0.1079  0.1999
24100W        W44380  12.248   6.699   0.124 -0.1647  0.0838 -0.4541
24101W        W44381  16.508   2.281   4.599 -0.0687  0.0898  0.3633
24102W        W44382   1.629   5.961   4.520  0.1810 -0.2898  0.1478
24103W        W44383   6.220  15.417   4.870  0.1021 -0.1541 -0.1438
24104W        W44384  12.462   3.769   3.610 -0.1271  0.0211 -0.0611
24105W        W44385   1.981   3.757   0.950  0.1229  0.0070 -0.1383
24106W        W44386  16.845  11.679   3.244  0.0761  0.2919 -0.3965
24107W        W44387  10.889   3.356   4.153  0.0974 -0.1774  0.0126
24108W        W44388   1.556   2.752  14.715 -0.1984 -0.1688 -0.0459
24109W        W44389   9.145   8.072  12.142  0.2574  0.0880  0.2843
24110W        W44390   0.249   3.178  15.490 -0.0795  0.0583 -0.0997
24111W        W44391  15.322  14.823  13.653  0.0842  0.2111 -0.2264
24112W        W44392  12.515   3.365  12.994 -0.2382 -0.2454 -0.0000
24113W        W44393   2.430   2.898  14.108 -0.1280  0.0467 -0.0049
24114W        W44394  12.811   2.063   4.699 -0.0915 -0.3048  0.0123
24115W        W44395   3.481  13.207   3.635  0.0130 -0.1653 -0.1003
24116W        W44396  17.155   8.153   3.203  0.1896  0.2790  0.0753
24117W        W44397   0.575  14.304  15.487  0.3988 -0.2002 -0.2599
24118W        W44398  10.238   9.419   0.245 -0.1853  0.0466 -0.1778
24119W        W44399  17.375   0.942   0.451 -0.0079 -0.1318 -0.0772
24120W        W44400   3.090   7.862  13.729  0.1188  0.0730 -0.0313
24121W        W44401   1.470  11.048   5.051 -0.2482 -0.1029  0.1298
24122W        W44402   2.753  16.296  13.307 -0.1444 -0.0088 -0.1065
24123W        W44403  14.048   5.796   1.657  0.2448  0.0450  0.2958
24124W        W44404   9.082   9.025   3.972 -0.1276  0.3670  0.1204
24125W        W44405   3.751   7.825   4.554  0.0758  0.0244  0.0626
24126W        W44406  12.928   5.999  14.497 -0.2608 -0.3685 -0.1593
24127W        W44407   0.326  14.248  13.899  0.2423  0.1527 -0.1060
24128W        W44408  15.900  16.920   2.888  0.2936 -0.1456  0.2801
24129W        W44409   8.865   5.005   2.520 -0.0496 -0.0849  0.0883
24130W        W44410  11.775  16.859  16.169 -0.1307 -0.2780  0.1873
24131W        W44411  15.697  12.142  15.175 -0.2890  0.4121  0.0085
24132W        W44412  16.531  10.799  16.610 -0.1086 -0.1007 -0.2173
24133W        W44413   1.431  16.957   4.928  0.0403  0.0883  0.2159
24134W        W44414  13.225  16.070  12.696  0.0318 -0.2373  0.1466
24135W        W44415   3.271   1.950   0.229  0.2909 -0.1071  0.1226
24136W        W44416  13.228   0.394  14.620  0.1330  0.1674 -0.1956
24137W        W44417   3.866  12.504  16.128  0.0911  0.1823 -0.0431
24138W        W44418   0.516   0.700  15.352  0.1135 -0.0924  0.0805
24139W        W44419   9.671   1.096  15.111 -0.1651 -0.0005 -0.0467
24140W        W44420   8.954  17.728  13.635  0.2654 -0.6344  0.1088
24141W        W44421   5.534   4.388   2.756 -0.0429  0.0918 -0.2607
24142W        W44422  10.784   8.535   4.025  0.1043 -0.1720  0.2851
24143W        W44423  16.124  16.747  14.156  0.3561 -0.0682  0.0316
24144W        W44424   2.458  11.370  16.517  0.0913  0.2694  0.3202
24145W        W44425  14.926   9.636  13.938 -0.0595 -0.0127  0.1070
24146W        W44426  11.533   6.333   4.239  0.2475  0.1671 -0.0720
24147W        W44427  16.306  17.287  12.626  0.3382  0.0909 -0.2093
24148W        W44428  14.334  12.393   3.104 -0.1397 -0.2559  0.0363
24149W        W44429   0.202   7.954   4.048  0.0988 -0.2285  0.3110
24150W        W44430  13.332  11.284  13.334 -0.0942 -0.0188  0.0707
24151W        W44431  12.110  15.440  14.290  0.1393  0.2607 -0.0073
24152W        W44432   7.319   2.807   3.867  0.1767 -0.1652  0.0934
24153W        W44433   8.199  15.146  14.367  0.0738  0.3117  0.1223
24154W        W44434  17.424  13.047   1.292 -0.1602  0.0488 -0.1143
24155W        W44435   3.198  13.296   4.830 -0.2352 -0.2133  0.0862
24156W        W44436   6.674   6.048  14.310 -0.0170 -0.0965  0.1733
24157W        W44437   3.411   4.721   1.638 -0.0308  0.1543  0.0487
24158W        W44438   3.860   9.748   5.832  0.0536  0.0464 -0.0496
24159W        W44439   1.987   8.266  14.795  0.0985  0.0271 -0.0892
24160W        W44440   6.212  10.514   3.548  0.2250 -0.1997 -0.4576
24161W        W44441  10.487   3.364   3.729  0.1567  0.1135 -0.1449
24162W        W44442   2.351   2.840  13.405 -0.0519  0.1965 -0.1596
24163W        W44443  12.800   5.291  14.728  0.0500 -0.2810 -0.1087
24164W        W44444   3.665  13.158  16.937  0.1146 -0.0386  0.0689
24165W        W44445  16.609  11.824   4.849 -0.1501 -0.0278 -0.0190
24166W        W44446   9.485  12.082  13.360  0.3382 -0.0132 -0.1532
24167W        W44447   6.228  10.809   0.905 -0.1495 -0.0982  0.1433
24168W        W44448  11.252  10.559   3.164  0.1303  0.0089 -0.2756
24169W        W44449  16.744   4.139   3.389  0.0660 -0.1072  0.0943
24170W        W44450   1.209   5.698  12.594 -0.0415  0.1044 -0.0677
24171W        W44451  11.928  11.353   1.297 -0.0927  0.1709  0.2709
24172W        W44452   8.796   8.278   4.574 -0.0161  0.0024 -0.2896
24173W        W44453   9.712  10.170   2.994  0.1335 -0.2158 -0.0182
24174W        W44454   5.384   0.273   0.491 -0.1868  0.1570 -0.1065
24175W        W44455  12.865   9.637  12.506 -0.2224 -0.0602  0.1256
24176W        W44456  10.291  16.832  16.642  0.2569 -0.0437 -0.2717
24177W        W44457   7.753   5.962   0.299  0.1418 -0.0212  0.1310
24178W        W44458   1.484   6.017   3.514  0.0615  0.2572 -0.0626
24179W        W44459   9.014   4.373   3.184  0.1325 -0.0773  0.1111
24180W        W44460   1.117   8.228  12.221 -0.0985 -0.0343  0.0579
24181W        W44461  16.669  12.058  16.148  0.2213  0.1966 -0.1510
24182W        W44462  17.002  12.030   0.747 -0.1805 -0.3360 -0.1241
24183W        W44463   3.885   3.103   4.078 -0.0556  0.0280 -0.2965
24184W        W44464  17.032   3.325  16.867  0.1786  0.0861  0.0547
24185W        W44465  16.320  12.421   0.177 -0.0547 -0.0523 -0.1701
24186W        W44466   0.806   5.570  16.357 -0.0504 -0.3872  0.2745
24187W        W44467   8.892  11.026  12.958 -0.3887  0.1785  0.1347
24188W        W44468   7.820   8.799   3.476  0.1658 -0.2230  0.1335
24189W        W44469   7.897   0.129  13.403 -0.0358 -0.1074  0.0431
24190W        W44470   5.170   1.332   3.452 -0.2168 -0.2745 -0.0896
24191W        W44471  17.285   0.451   2.112  0.0080  0.1852 -0.1054
24192W        W44472  13.318  13.378   1.860 -0.2241  0.1561  0.1830
24193W        W44473  14.092  15.556  13.487 -0.0701  0.1232 -0.0197
24194W        W44474  10.114   6.519  16.443  0.1007 -0.1470 -0.3123
24195W        W44475   4.488   5.479   4.092  0.0609  0.2021 -0.3421
24196W        W44476   3.937   3.736  12.125 -0.3120 -0.2551 -0.0729
24197W        W44477  16.187   4.413  16.679 -0.1596  0.3209  0.0764
24198W        W44478  12.624  15.804  13.568  0.0397  0.0373 -0.2247
24199W        W44479   4.049   1.260  14.608 -0.0457  0.1310  0.0695
24200W        W44480   5.545  10.989  13.514 -0.0248 -0.2126 -0.1700
24201W        W44481   9.248   4.145  13.987 -0.0280  0.1949  0.1262
24202W        W44482   1.556   9.957   0.226  0.1354  0.0534 -0.0107
24203W        W44483  13.356  12.633   1.718  0.0662  0.3426  0.1027
24204W        W44484   1.191   8.206   2.271  0.0855 -0.0186  0.1290
24205W        W44485  17.208  15.405   2.538  0.3992 -0.0654 -0.1130
24206W        W44486   4.853   5.347   1.218 -0.1186  0.2875 -0.2711
24207W        W44487  14.696  11.688  16.803 -0.0341 -0.1225 -0.1071
24208W        W44488   2.290   0.631   4.269  0.0618  0.2182  0.0659
24209W        W44489  12.980   9.621  16.925 -0.2358  0.1196  0.0394
24210W        W44490  11.753   3.331  14.312  0.1834 -0.0600 -0.0254
24211W        W44491   0.265  10.778   3.235 -0.0378  0.1962  0.3004
24212W        W44492   6.959   1.338  14.335 -0.1650 -0.3313  0.1569
24213W        W44493  12.530  14.222  14.653 -0.2385 -0.1589  0.0232
24214W        W44494   4.344   9.229   2.359  0.0665 -0.1283  0.2257
24215W        W44495   4.600   4.283  16.374  0.0856 -0.2254 -0.1816
24216W        W44496  12.922  13.299  14.028 -0.0663 -0.0669  0.0912
24217W        W44497  14.382   2.111  13.353 -0.0541  0.0393  0.3070
24218W        W44498  10.659  16.041  12.362  0.1629 -0.2773  0.0733
24219W        W44499  15.731   9.003  14.639  0.0958  0.1872  0.2323
24220W        W44500   4.424   8.322   3.013 -0.1017  0.0447  0.0409
24221W        W44501  14.782  11.047   2.602  0.1295  0.0812  0.0564
24222W        W44502  10.731   3.736   4.790  0.0109 -0.1597 -0.1216
24223W        W44503  10.042   8.420  13.105  0.0053 -0.0874  0.2181
24224W        W44504   7.457   8.294  14.078  0.1438  0.1925 -0.1776
24225W        W44505   1.060   0.229  14.856  0.1525  0.1251 -0.1688
24226W        W44506   4.614   4.333  12.460  0.2096  0.1645  0.0082
24227W        W44507  16.930  11.897  15.078  0.1452 -0.0484  0.1312
24228W        W44508  15.510   3.904  12.301  0.0241 -0.2206 -0.2644
24229W        W44509  13.711  15.136   2.190  0.0181  0.2420 -0.1490
24230W        W44510  15.485  10.522   2.818 -0.0322 -0.2935 -0.0754
24231W        W44511   1.374   9.953  12.251  0.1200  0.1157 -0.2042
24232W        W44512   7.678   0.381   2.438 -0.2869 -0.0255  0.0164
24233W        W44513  11.206  12.700  14.597 -0.3048  0.0118  0.1386
24234W        W44514   2.795   4.261   1.939 -0.0054 -0.2828  0.2370
24235W        W44515  11.827  17.448   1.796 -0.1635 -0.4453  0.1678
24236W        W44516  12.365   4.324  13.594  0.0883 -0.3277  0.0614
24237W        W44517  15.549  11.227  14.737 -0.0061  0.0255 -0.0622
24238W        W44518   3.565  10.062  12.761 -0.0744 -0.0228 -0.1095
24239W        W44519  12.708   5.530  16.241  0.0031 -0.0217  0.1332
24240W        W44520  15.713  16.052   2.845  0.0417 -0.0490 -0.2790
24241W        W44521   7.655  10.009  16.529 -0.2208  0.0202 -0.2744
24242W        W44522  10.976   6.936   2.984  0.4113 -0.0770  0.2016
24243W        W44523   1.644  10.347   3.248  0.2115 -0.2407 -0.2234
24244W        W44524   7.075  14.669   3.682 -0.0052 -0.1802 -0.1396
24245W        W44525  15.183  12.866  14.797  0.2003 -0.0879  0.2077
24246W        W44526  15.400  14.072  14.519  0.1614 -0.1150  0.2152
24247W        W44527  10.451   4.792   2.289  0.1747  0.0266  0.1636
24248W        W44528  10.209   2.653   2.986  0.1539 -0.0025 -0.0277
24249W        W44529   4.738   4.574   1.050  0.0346 -0.0243  0.0212
24250W        W44530  10.462  13.215   5.403  0.1909 -0.0942  0.3664
24251W        W44531  10.749   2.134  12.000 -0.0713 -0.2035 -0.1579
24252W        W44532   9.962   3.705  16.618  0.2377 -0.2026 -0.0100
24253W        W44533  12.994   9.733   4.442  0.0567 -0.0521 -0.2745
24254W        W44534  11.765   8.037  16.073  0.0536 -0.3340  0.0571
24255W        W44535   5.986  17.628  15.767  0.0899  0.3545  0.2445
24256W        W44536   1.685   3.871   3.793  0.0911  0.0317  0.0352
24257W        W44537   2.806   3.031  13.530 -0.0325  0.0914 -0.0414
24258W        W44538   9.409   3.558  13.158  0.0066  0.2133 -0.1894
24259W        W44539   1.944  13.842  15.634 -0.1403 -0.0892  0.1146
24260W        W44540   9.115  11.972   4.242  0.4150 -0.0689 -0.0230
24261W        W44541  13.459   8.331  16.493 -0.0788  0.3176  0.2451
24262W        W44542   8.672  12.684   3.062  0.2230  0.0337  0.2295
24263W        W44543   9.580  16.846   3.217 -0.6305 -0.0510 -0.3028
24264W        W44544   2.524   8.935   4.972 -0.1977  0.1601 -0.0074
24265W        W44545   6.967  13.930  15.487 -0.0877  0.0147  0.0417
24266W        W44546  15.462   1.384  12.461  0.1798  0.0417 -0.1341
24267W        W44547  10.512   4.772  12.595  0.3597 -0.1229 -0.0808
24268W        W44548   8.466   8.891  13.821 -0.2441 -0.0598 -0.3454
24269W        W44549   5.956   4.644   2.682 -0.1912 -0.0491 -0.0411
24270W        W44550   5.999   0.157  16.724 -0.0946  0.0808  0.2795
24271W        W44551  15.107  15.740   0.762  0.0401 -0.0123  0.0566
24272W        W44552  12.791   1.104   0.184 -0.1893 -0.0731  0.3299
24273W        W44553  14.743  15.013  14.442  0.0288 -0.6607  0.0697
24274W        W44554  13.740   7.184  16.037  0.0935 -0.0086 -0.1549
24275W        W44555   9.598   7.560  16.875  0.0479  0.1899 -0.2104
24276W        W44556   4.150  15.401  14.230 -0.0318 -0.0342  0.0879
24277W        W44557   9.689  14.659  12.318 -0.0574  0.4206  0.0627
24278W        W44558   3.451   0.642  15.195  0.3107 -0.2371  0.1043
24279W        W44559   0.687   1.552   1.273 -0.0249 -0.2140  0.4450
24280W        W44560  10.802  15.875   3.627  0.1764 -0.1553 -0.0053
24281W        W44561  10.888   7.677   4.041  0.1696 -0.1559  0.0543
24282W        W44562   4.614   4.774  16.398  0.0495 -0.0056 -0.2543
24283W        W44563  16.582   5.451  16.017 -0.0895 -0.2681 -0.0857
24284W        W44564   9.614  10.585  15.471 -0.1462  0.1973  0.1506
24285W        W44565   0.507  14.377   0.229  0.4494  0.2047 -0.0785
24286W        W44566  16.685   9.049  12.376  0.1680  0.0808 -0.0723
24287W        W44567  12.607  12.361  16.238  0.0211 -0.1216  0.2638
24288W        W44568   8.326  17.084  14.695 -0.2142  0.2107 -0.1946
24289W        W44569  15.798   4.524  14.287  0.3587 -0.1989 -0.3586
24290W        W44570   0.414  15.256  12.684  0.0763  0.1088 -0.2468
24291W        W44571   9.833  11.081  12.174  0.0809  0.0122  0.1962
24292W        W44572   7.501   3.118   1.670 -0.0758 -0.2555  0.0700
24293W        W44573  10.521  12.763   5.109 -0.0670  0.0206  0.2312
24294W        W44574  13.770  12.650   2.059 -0.0495 -0.0200 -0.0486
24295W        W44575  10.318   2.598   4.374 -0.0446  0.0426 -0.0404
24296W        W44576   1.521   7.301   0.410  0.1355  0.3430  0.0937
24297W        W44577  16.423  11.890   4.425 -0.1139  0.2549 -0.0630
24298W        W44578   5.698  11.672   1.304 -0.3067 -0.3409  0.0823
24299W        W44579   0.195   4.613  16.021  0.1257  0.0022 -0.2812
24300W        W44580  13.670  12.290   2.972 -0.0524  0.3223  0.1810
24301W        W44581  12.116  15.818   0.889 -0.0066 -0.0965  0.1537
24302W        W44582  11.950   0.219   1.828 -0.1049  0.1834 -0.2019
24303W        W44583   0.448   4.490  15.000  0.3105 -0.1416 -0.1932
24304W        W44584  11.612  11.435   4.550  0.0236  0.0280 -0.0593
24305W        W44585  13.893  14.219  13.896 -0.0909 -0.3037 -0.1847
24306W        W44586  12.721  12.822  12.410 -0.1439  0.1903  0.0123
24307W        W44587  13.636   3.156   0.737 -0.0344  0.1632  0.0392
24308W        W44588   8.646  12.765   0.294 -0.1010 -0.3470  0.5256
24309W        W44589  12.196   3.533   4.799 -0.1947  0.1386  0.2542
24310W        W44590  17.392   3.547  14.332  0.0239  0.2819 -0.0001
24311W        W44591   2.681  10.973  15.000 -0.0462  0.1314 -0.0970
24312W        W44592  12.715  15.272  16.265  0.1241 -0.1707  0.2696
24313W        W44593   9.466   3.244  15.388 -0.0657  0.3463 -0.1631
24314W        W44594  17.050   0.375  15.708  0.2297  0.1559 -0.0726
24315W        W44595   0.091  15.851  14.234 -0.1683  0.1401  0.2623
24316W        W44596  14.683   5.936   2.921  0.0552 -0.1881 -0.2420
24317W        W44597   7.019   2.301  14.369  0.1404  0.2096  0.0227
24318W        W44598   9.029   8.164   0.686  0.1214  0.1704 -0.0422
24319W        W44599  15.813   1.360  15.456 -0.1567 -0.0569 -0.1069
24320W        W44600   9.134   1.518   4.218 -0.2964  0.0781  0.0430
24321W        W44601  12.656   3.951   4.720  0.1298 -0.1436 -0.1201
24322W        W44602   8.584   2.538  13.052  0.1532  0.1322 -0.0447
24323W        W44603   1.867   3.523   1.445  0.0803  0.0674  0.2018
24324W        W44604   5.447  11.617  14.661 -0.0134 -0.1693  0.4509
24325W        W44605   8.838   0.859   0.169 -0.1953  0.2046  0.1107
24326W        W44606  12.408   9.515   0.540 -0.1303  0.1484  0.0201
24327W        W44607   3.450   8.558   4.168 -0.1999  0.3256  0.0159
24328W        W44608  17.400   0.561  13.136  0.0985 -0.0393  0.0151
24329W        W44609  15.062  16.696   4.444 -0.2838  0.4232 -0.1495
24330W        W44610  15.325  10.560  14.148 -0.0601  0.1915 -0.0180
24331W        W44611   9.740  10.546  13.912 -0.0434 -0.0474  0.2681
24332W        W44612   2.460  11.268  12.152  0.2673  0.2101 -0.1418
24333W        W44613   5.890   3.547   3.979 -0.1354 -0.0020 -0.1798
24334W        W44614   7.130   2.497   0.632  0.1947  0.1473  0.2555
24335W        W44615  15.612   8.629  15.897 -0.2200  0.0135  0.0343
24336W        W44616  17.444   6.857   1.851 -0.1324 -0.1101 -0.0505
24337W        W44617   7.519  13.589  16.875  0.1431 -0.1422  0.0034
24338W        W44618   0.442  10.551   2.280 -0.1019 -0.2357 -0.0746
24339W        W44619  14.933   3.410   3.019 -0.0419  0.0276 -0.3631
24340W        W44620   8.863  16.955  13.189 -0.0629 -0.0436 -0.0490
24341W        W44621   6.797   1.328  16.529  0.0719 -0.1263  0.1528
24342W        W44622   2.204   0.153  16.773 -0.0256  0.0865 -0.0515
24343W        W44623   0.878  11.585  13.830 -0.2057 -0.2540 -0.2227
24344W        W44624   8.384   1.601  14.083 -0.3018 -0.1708 -0.1538
24345W        W44625  17.291   8.102  16.167  0.2675  0.2972 -0.3964
24346W        W44626  10.094   4.997  16.199 -0.1125  0.2048 -0.1017
24347W        W44627   6.665   0.505  12.876  0.0343 -0.2689  0.0291
24348W        W44628  14.473   3.366  13.186  0.2579 -0.1171  0.0573
24349W        W44629   9.704  16.898  15.075  0.2066 -0.0539 -0.0155
24350W        W44630   7.249   5.822  14.912  0.1486  0.2090  0.0071
24351W        W44631   7.870   3.975  13.186 -0.0819  0.2118  0.0155
24352W        W44632   8.090   3.030   1.634  0.0725  0.0185 -0.0821
24353W        W44633  16.215   9.312   1.372 -0.0264  0.0784 -0.1647
24354W        W44634  16.250   2.060   1.462 -0.0064  0.0040 -0.1680
24355W        W44635  14.461   8.826  12.532  0.1635  0.2127  0.2209
24356W        W44636   4.685  14.374   3.685  0.1742  0.2026  0.0842
24357W        W44637   5.255   3.917   1.702 -0.0979  0.0110  0.2264
24358W        W44638   6.965   6.700  13.115 -0.0173 -0.1338  0.1490
24359W        W44639  16.019   7.832  12.360 -0.2870  0.0027  0.3320
24360W        W44640   3.813   3.302  15.700 -0.1095  0.0648  0.0873
24361W        W44641  14.557  10.251   3.340  0.0259  0.0087  0.2685
24362W        W44642   9.779  13.668   2.885  0.1065  0.1412 -0.0108
24363W        W44643  16.768   1.278  13.023  0.0818 -0.4662  0.2648
24364W        W44644  11.446  15.117  16.388  0.2136  0.1120 -0.0858
24365W        W44645   8.090  10.044  16.246  0.4240  0.0955  0.0916
24366W        W44646   8.772   0.768  16.125  0.0342 -0.0893 -0.1677
24367W        W44647   4.957   1.270   4.543 -0.1577  0.2898 -0.2359
24368W        W44648  17.365  11.032  16.290 -0.4550  0.3445 -0.1078
24369W        W44649  12.667   4.083  12.385 -0.0104 -0.0025 -0.0380
24370W        W44650  16.369  17.720  14.445 -0.0037 -0.0058  0.0587
24371W        W44651   2.771  14.610  13.801  0.2784  0.2013 -0.0938
24372W        W44652   5.174   9.417   4.702 -0.4138 -0.3164 -0.0390
24373W        W44653  15.941   1.967   3.176  0.2254 -0.1944 -0.0130
24374W        W44654  13.752   8.499  14.047  0.1036  0.1048 -0.1200
24375W        W44655   6.209   1.972  16.449  0.1994 -0.3779  0.1609
24376W        W44656  17.738   5.206  12.365  0.0286 -0.0238  0.3227
24377W        W44657   9.312   1.770  15.759 -0.0009  0.1592  0.2731
24378W        W44658   9.531  12.966   0.759  0.3283 -0.0717  0.2248
24379W        W44659   6.691   5.671  16.292  0.0764 -0.1788 -0.1236
24380W        W44660   9.530  14.469   3.814  0.3012  0.3310 -0.2004
24381W        W44661   7.649   9.921  14.869 -0.0425  0.2310 -0.0749
24382W        W44662  14.891  16.267  14.464  0.4866 -0.1403 -0.0754
24383W        W44663   7.440   1.787   6.184  0.0435  0.3392 -0.2812
24384W        W44664   3.893   4.011   1.295  0.2413  0.1714 -0.3236
24385W        W44665   3.881  11.672  14.364 -0.1288 -0.1497 -0.1187
24386W        W44666  13.313   2.718   4.115  0.1481 -0.0439  0.2980
24387W        W44667  12.177   0.662   2.671 -0.3878 -0.1229 -0.1016
24388W        W44668   4.742  14.461  16.129 -0.2470 -0.0114 -0.1977
24389W        W44669  14.290  16.057   1.924  0.0446  0.3851  0.0194
24390W        W44670   3.099   3.578   1.355  0.0102 -0.1102  0.2187
24391W        W44671  12.053   6.995   3.848 -0.0013 -0.1790  0.0152
24392W        W44672  16.920   7.886  12.204 -0.0692 -0.1606 -0.0565
24393W        W44673  17.320   0.026  15.483 -0.0203  0.2042 -0.0087
24394W        W44674   7.707   8.675  14.301 -0.1411 -0.1465  0.2502
24395W        W44675   3.498   9.146   0.177 -0.0113 -0.0893 -0.1313
24396W        W44676   1.648   3.366   1.035 -0.0588 -0.3594  0.1063
24397W        W44677   5.171  11.975  14.375  0.1169 -0.2720 -0.1598
24398W        W44678   1.228  15.346  15.685  0.0124  0.2141  0.0159
24399W        W44679  12.305  15.479  14.841 -0.1222  0.0364  0.0720
24400W        W44680   7.510  12.578  14.955  0.0241  0.0467  0.0089
24401W        W44681  14.257   1.701  16.396  0.0870 -0.1826  0.1353
24402W        W44682  10.896  12.348   0.786 -0.0287 -0.4191  0.2213
24403W        W44683   5.942   5.568  13.185  0.3014  0.1170 -0.0024
24404W        W44684   4.988  15.395   4.030 -0.0520  0.0208  0.1907
24405W        W44685  14.889   2.487  12.178  0.1233  0.0898 -0.0821
24406W        W44686   5.266  14.314  14.801 -0.0167 -0.3271 -0.0104
24407W        W44687  14.833   5.203  13.482  0.0563  0.0643  0.0520
24408W        W44688   5.506  17.546  16.130 -0.2369  0.3197  0.0109
24409W        W44689  15.930  14.917   1.398  0.0170  0.3552 -0.0631
24410W        W44690   0.838   3.766  15.960  0.0381  0.0484 -0.1410
24411W        W44691   7.663  17.553   4.752  0.1850  0.0039  0.2369
24412W        W44692  10.091  10.851  14.474 -0.1817  0.0848  0.1411
24413W        W44693  15.980   1.350   0.481 -0.0332 -0.0482  0.0471
24414W        W44694   5.446  15.251   4.347 -0.0325 -0.1235  0.0353
24415W        W44695   0.730   8.126   2.694  0.1125  0.0771  0.1281
24416W        W44696   9.623  13.047  13.491  0.0209 -0.0572 -0.0413
24417W        W44697   9.751   3.776  12.823 -0.1482 -0.0753 -0.0141
24418W        W44698   4.248   0.659  15.041 -0.0616  0.2875  0.4126
24419W        W44699  13.654   5.611  15.571  0.2020  0.0630 -0.2024
24420W        W44700   6.803   0.705  15.372 -0.2210  0.0065 -0.3714
24421W        W44701   5.410  14.530   3.976  0.0527  0.0039  0.0739
24422W        W44702   2.390   6.633  14.172  0.1080 -0.1674 -0.1292
24423W        W44703  13.343  14.343  13.418 -0.1553 -0.2957 -0.0495
24424W        W44704  11.855   4.340   5.843 -0.1692  0.4499  0.0470
24425W        W44705  16.456  15.151   4.837  0.0219 -0.2372  0.0793
24426W        W44706   8.193   8.768   4.235 -0.0757 -0.3805 -0.1904
24427W        W44707  14.053   0.226  16.281 -0.2431 -0.0723  0.0171
24428W        W44708  16.050  13.334   0.714 -0.2119  0.0312  0.0420
24429W        W44709  15.924   7.383   4.264 -0.0143 -0.0403  0.0333
24430W        W44710  11.187   6.816   2.567  0.0370 -0.0257  0.3139
24431W        W44711   2.878  11.033  16.471  0.0993  0.0409  0.0198
24432W        W44712   0.238   8.992   3.055 -0.2799  0.0111  0.1783
24433W        W44713  14.351   9.737  13.992  0.0056 -0.1889  0.3835
24434W        W44714  11.494  13.240   2.898  0.1638 -0.1657 -0.2773
24435W        W44715   6.059   0.890  13.200 -0.2402  0.0452 -0.0330
24436W        W44716   7.051   2.678   4.460  0.0597  0.0890  0.1415
24437W        W44717  13.340   5.786  13.203 -0.1008  0.0120 -0.4343
24438W        W44718  13.260   1.432   3.268 -0.1882  0.1988  0.1872
24439W        W44719  13.314   9.360  16.601 -0.2542 -0.2187 -0.0626
24440W        W44720   9.201   3.976  15.553 -0.0387 -0.2489  0.1997
24441W        W44721   1.737  15.103   1.432 -0.2057 -0.2403 -0.3853
24442W        W44722   7.387   3.024   4.824  0.0802  0.1697  0.0169
24443W        W44723   3.594   2.768  14.091 -0.1616  0.1161 -0.0890
24444W        W44724  10.684   9.199   0.557  0.1451  0.1552  0.1362
24445W        W44725   3.906   9.919   3.321  0.0791  0.1824  0.0173
24446W        W44726   3.604  13.743  15.530  0.0306 -0.2590  0.0040
24447W        W44727   9.191  16.289   3.565  0.1246 -0.2129 -0.2951
24448W        W44728   5.132   2.724  14.958  0.2951 -0.1847  0.1797
24449W        W44729   8.885   1.446  15.724 -0.0141  0.0513  0.0138
24450W        W44730   1.646  14.496  12.420 -0.0506  0.2462 -0.1328
24451W        W44731   0.492   9.613  15.971  0.0890  0.2836  0.1449
24452W        W44732   6.785  12.098  14.733  0.1569 -0.1552 -0.1887
24453W        W44733  12.876   4.432  14.317  0.1961  0.2473 -0.1970
24454W        W44734   1.903  16.912   1.486  0.1400 -0.2319  0.0040
24455W        W44735  10.360  10.407  13.497  0.0775  0.0130 -0.0930
24456W        W44736  13.823  10.241  13.225  0.4497 -0.1687 -0.1504
24457W        W44737   2.302  12.296  13.798  0.0826  0.1219  0.1318
24458W        W44738   3.441   1.090  15.367  0.0764  0.2656  0.0694
24459W        W44739   6.314  15.944  13.595  0.0126  0.1013 -0.0139
24460W        W44740  11.832   4.259  15.515  0.0471  0.1236 -0.0206
24461W        W44741   0.645   1.279  14.107 -0.1860 -0.2545 -0.0223
24462W        W44742   1.358   1.315  16.629  0.0353  0.3510  0.0505
24463W        W44743  12.193   8.570  12.472  0.2008  0.1631  0.2784
24464W        W44744  11.076   5.444   2.243 -0.0755 -0.0930  0.0792
24465W        W44745  10.067  10.607   0.229 -0.3400  0.0902 -0.0835
24466W        W44746  10.199   6.752   2.328  0.1130 -0.3080  0.0332
24467W        W44747  13.864   3.635  15.509 -0.1408 -0.0931 -0.2604
24468W        W44748   4.212  12.988   0.537 -0.0245  0.0635 -0.1151
24469W        W44749   5.544   6.757   3.771 -0.2602 -0.1987  0.0321
24470W        W44750  10.888   9.578   0.824  0.0523  0.3236  0.0482
24471W        W44751  11.468  12.305  14.802 -0.0219  0.2179  0.2141
24472W        W44752   7.666   4.060  14.942  0.2058  0.0649 -0.1973
24473W        W44753   8.389   8.200  16.990 -0.0495 -0.1874  0.1487
24474W        W44754  13.139   1.011   2.508 -0.0138  0.1640  0.0857
24475W        W44755   8.925  13.527  14.739 -0.1331  0.4016  0.2928
24476W        W44756   8.211  13.365  12.070 -0.3940 -0.1410 -0.1557
24477W        W44757   3.557   5.158  13.880  0.1342 -0.3894  0.2228
24478W        W44758  15.651  10.765   1.265 -0.2071 -0.0727 -0.0374
24479W        W44759  11.489   4.482  13.169  0.1380  0.0283 -0.0678
24480W        W44760   9.643  10.640  16.134 -0.0905  0.0057 -0.2208
24481W        W44761  16.870   5.456  15.626  0.0591 -0.1191  0.2902
24482W        W44762   3.647  15.043  16.982 -0.1495 -0.0517  0.2944
24483W        W44763  15.223  10.847   1.070  0.1289 -0.0149  0.1500
24484W        W44764  10.690   7.677  17.007  0.1674 -0.2361 -0.0871
24485W        W44765   5.401   3.319   3.705  0.0863 -0.0601 -0.2519
24486W        W44766  15.745   0.483  16.862  0.1770 -0.2426 -0.0894
24487W        W44767   6.455  12.484   2.966  0.1884  0.0707  0.2356
24488W        W44768  10.596   4.218   4.413  0.1967  0.1701 -0.3529
24489W        W44769   2.122   9.456  13.749 -0.2370  0.0335 -0.0799
24490W        W44770   0.966   8.172  14.487  0.0375  0.0803 -0.3124
24491W        W44771  13.266   0.110  15.434  0.2819  0.1708  0.1737
24492W        W44772  14.055  10.114   0.496  0.0066  0.0415  0.1364
24493W        W44773  14.457   3.472  15.702 -0.0817  0.2252  0.0122
24494W        W44774  11.351   5.445  16.167  0.0239  0.1995  0.1950
24495W        W44775   8.294   3.423  14.634 -0.0585  0.4019 -0.3001
24496W        W44776  14.654   9.332  12.286 -0.1324 -0.0446  0.1419
24497W        W44777   7.463  14.757   0.559  0.0674 -0.2171  0.0246
24498W        W44778   8.314   3.131   4.769  0.2323 -0.1540  0.1474
24499W        W44779   1.424  16.109  13.359 -0.0047 -0.0387  0.2077
24500W        W44780   8.279   1.616   1.687 -0.0471  0.1361  0.1955
24501W        W44781   4.192   3.281   4.858 -0.1342  0.2614  0.1780
24502W        W44782  11.089  10.530   0.415  0.1532  0.3013  0.1463
24503W        W44783   7.054   4.814  13.905 -0.1000  0.0521 -0.2846
24504W        W44784   1.492  15.128   3.355 -0.1035 -0.0424 -0.1054
24505W        W44785   1.652   5.935   3.990  0.0402 -0.1965  0.2453
24506W        W44786   9.717  14.734   4.573  0.0862  0.0779  0.2427
24507W        W44787  16.622   7.072   4.410 -0.2350 -0.0725  0.3137
24508W        W44788  15.426   8.336  16.252 -0.0486 -0.2055 -0.0093
24509W        W44789  16.261   1.095  14.331  0.3030 -0.1922  0.0084
24510W        W44790  16.940  13.415   4.582  0.1125  0.0125  0.0792
24511W        W44791   4.088   6.481  15.733 -0.1843  0.1011 -0.0120
24512W        W44792   6.662  16.766  15.024 -0.0141  0.2704  0.1566
24513W        W44793   3.661   9.765  14.971  0.2390  0.0241  0.0111
24514W        W44794  13.377  17.524  12.384  0.0540 -0.0245 -0.0096
24515W        W44795  17.137   6.350  14.327 -0.0451  0.0339 -0.0946
24516W        W44796   4.888   1.213   2.596 -0.1190  0.0680  0.0141
24517W        W44797   0.045   5.332   2.619 -0.0385  0.2546 -0.1094
24518W        W44798   1.911   6.537   2.448 -0.2903  0.0126  0.0386
24519W        W44799   2.253  12.430  12.948 -0.0133  0.2425  0.1265
24520W        W44800   8.294  16.482   2.841 -0.0537 -0.1514  0.1169
24521W        W44801  11.605   3.678   5.264 -0.3911 -0.2007  0.3769
24522W        W44802   1.039   8.037  13.339  0.1128 -0.0237 -0.3092
24523W        W44803  15.504   5.222  15.842 -0.1328 -0.1003 -0.0377
24524W        W44804   8.544  10.998  13.684  0.1094 -0.0849  0.1623
24525W        W44805   5.769   0.862  13.674  0.0954  0.2977 -0.2532
24526W        W44806  10.374  15.218  12.685  0.1339  0.2565 -0.1092
24527W        W44807  13.748  14.393   2.811 -0.0200  0.0730 -0.1287
24528W        W44808  14.261  13.927  13.739 -0.1092 -0.1162 -0.0997
24529W        W44809  11.263   4.651  15.043  0.0903  0.1107  0.0052
24530W        W44810  15.935   1.263  16.877 -0.1094  0.2379 -0.0345
24531W        W44811  17.652   9.511   3.946  0.2494 -0.0301  0.0746
24532W        W44812   1.212   9.404  16.743  0.0743 -0.2028 -0.1575
24533W        W44813  13.191   8.566  13.974  0.1950 -0.3009 -0.1748
24534W        W44814   3.957  13.086  15.705 -0.0574  0.1986  0.3497
24535W        W44815   9.326   0.325  13.456 -0.1188 -0.0965 -0.1560
24536W        W44816  15.637  13.384   3.788  0.2504 -0.1971  0.0091
24537W        W44817   0.467   5.684   2.079 -0.0226  0.0885 -0.0632
24538W        W44818  12.848  17.004   3.494 -0.0507  0.3044 -0.0468
24539W        W44819   1.615   3.234  14.869  0.0792  0.0619  0.1613
24540W        W44820  13.224  15.311   3.290 -0.0647  0.0751 -0.0851
24541W        W44821   2.262   7.111   2.552 -0.0590  0.0480  0.2529
24542W        W44822  12.861   9.270   1.578 -0.0976 -0.1357  0.2129
24543W        W44823  15.969  13.578   1.177  0.2488  0.3665  0.0172
24544W        W44824  17.009   6.819   4.137  0.1468  0.1363 -0.0278
24545W        W44825  12.037  15.875   3.622 -0.0032 -0.0918  0.1190
24546W        W44826   4.776   9.313   0.042 -0.0874  0.0297 -0.3522
24547W        W44827   3.340  14.259   4.946 -0.0893  0.3184 -0.2047
24548W        W44828  11.359  10.926   2.513  0.4260  0.0527 -0.2769
24549W        W44829  17.099   4.354  13.079 -0.3018  0.0330 -0.0360
24550W        W44830   6.882  10.709  13.691  0.0254 -0.0162 -0.0474
24551W        W44831   5.930   0.132   5.011  0.0564  0.0546 -0.1453
24552W        W44832   5.625  12.813   0.550 -0.1867  0.4933  0.1275
24553W        W44833   9.685   1.641  14.483 -0.2441 -0.0899 -0.1420
24554W        W44834  16.930  15.744   1.174  0.1857  0.0889 -0.1635
24555W        W44835  15.031   6.659  13.202  0.0138 -0.0034 -0.1190
24556W        W44836   2.806   8.127   3.838  0.2282 -0.1589  0.2030
24557W        W44837   5.876  12.460  13.128 -0.0929 -0.2528 -0.0564
24558W        W44838   2.683  16.556  12.602  0.1018 -0.0105 -0.0472
24559W        W44839   4.167  12.102   3.960  0.0730  0.2873  0.1758
24560W        W44840   0.390   0.683   4.365 -0.0279 -0.1434  0.0143
24561W        W44841   2.954   8.202   2.894 -0.2680 -0.2076  0.2963
24562W        W44842  16.771  17.450  12.419  0.2802 -0.1481  0.2411
24563W        W44843   3.762   5.889  13.722  0.2575 -0.2675  0.2153
24564W        W44844  14.895   6.034   4.397  0.0284  0.0386  0.2720
24565W        W44845  13.973   1.721  15.499  0.0868 -0.0310  0.1041
24566W        W44846   9.721  13.271  15.136 -0.2363 -0.0418  0.2781
24567W        W44847  10.017   5.575  13.469 -0.0770  0.1544  0.1074
24568W        W44848   7.887   2.313  17.015 -0.1227  0.0881 -0.3219
24569W        W44849  16.625  10.275   1.578 -0.0848 -0.0518 -0.0191
24570W        W44850   5.642   5.662  16.125  0.2294 -0.1676  0.2852
24571W        W44851  10.798   9.944  16.391 -0.0102  0.0228 -0.0785
24572W        W44852  14.046  16.470   0.634 -0.2732 -0.1283  0.1987
24573W        W44853  15.836  10.143  16.283  0.0908  0.1247  0.0557
24574W        W44854   1.987  11.631  16.675  0.2682 -0.0942 -0.1807
24575W        W44855   1.405  13.358  12.709  0.0683  0.1737 -0.0730
24576W        W44856  11.221   3.200   1.013  0.1924  0.0191 -0.3041
24577W        W44857   2.629  10.487   0.241 -0.0301 -0.0494 -0.2008
24578W        W44858   3.757  13.493  15.950 -0.3129 -0.0047 -0.0513
24579W        W44859  11.936  14.919  14.349  0.1123 -0.1138 -0.1994
24580W        W44860   6.811   2.936  12.594  0.0043  0.0936 -0.1056
24581W        W44861  15.311   1.849  12.348  0.0750  0.0952 -0.0016
24582W        W44862  16.864   7.998   1.539 -0.0804  0.2041  0.0911
24583W        W44863   6.503   6.368   4.164  0.1029  0.0458 -0.1218
24584W        W44864   1.527  17.503  14.341  0.2178 -0.0609  0.2453
24585W        W44865   3.800   6.821  15.897 -0.1430  0.1427 -0.0302
24586W        W44866  13.017   8.726   1.806  0.1959 -0.2642 -0.1538
24587W        W44867  13.743   8.522   0.146 -0.4529 -0.0398 -0.2020
24588W        W44868   8.395   8.479  13.514  0.2882  0.2093 -0.3290
24589W        W44869   3.726  14.590  13.240  0.0479 -0.0698 -0.2126
24590W        W44870   5.637   9.265   0.468  0.0025 -0.1071 -0.0084
24591W        W44871   6.784  12.650  14.440 -0.1614  0.0827 -0.0379
24592W        W44872   5.229  13.226  14.826 -0.1759  0.2143  0.1237
24593W        W44873   0.198  17.478  13.849 -0.1856  0.1620 -0.3819
24594W        W44874  16.451   1.537  14.898 -0.1583  0.3663  0.0884
24595W        W44875   3.572  10.406   4.420 -0.1635 -0.0807  0.0955
24596W        W44876   2.494  17.457   5.096 -0.1401 -0.1048 -0.1297
24597W        W44877   0.326   8.617  13.831 -0.2192  0.2739 -0.1636
24598W        W44878  16.809   1.483  13.890  0.2384  0.3169 -0.0694
24599W        W44879   9.517   3.994   3.346 -0.1163 -0.1215  0.2091
24600W        W44880   6.202   2.529   4.881  0.1036  0.0548 -0.0929
24601W        W44881   4.944   1.709   3.892 -0.0372  0.1423 -0.1443
24602W        W44882   3.856   0.433  13.429  0.0108  0.3263 -0.1139
24603W        W44883   8.229  15.053  16.394 -0.1418  0.2769 -0.1744
24604W        W44884   7.247   7.535   4.387 -0.0006 -0.0604 -0.1184
24605W        W44885  15.154   4.633   4.121  0.0641  0.0003 -0.1920
24606W        W44886  10.616  15.424  13.063 -0.0760 -0.0404 -0.2134
24607W        W44887   8.889  12.231  12.482  0.0031  0.2913  0.0344
24608W        W44888   8.448   3.976   1.224 -0.1997 -0.2774  0.2244
24609W        W44889   5.829   9.716   3.115  0.0885  0.0718  0.5133
24610W        W44890   0.138  14.508   2.724  0.3674 -0.4156  0.1286
24611W        W44891   2.587  15.531  16.250  0.0877  0.2374  0.0223
24612W        W44892   9.758  12.827   2.058 -0.2472  0.0939  0.3821
24613W        W44893   6.290   9.899   3.195 -0.0411 -0.0146 -0.0923
24614W        W44894  11.162  15.548   2.484  0.1538 -0.2158  0.1838
24615W        W44895   7.305   8.099  13.191  0.1090 -0.1354  0.2417
24616W        W44896  14.300  14.032  16.858 -0.2395 -0.1043  0.0848
24617W        W44897   2.727  12.166   4.704 -0.1676  0.0032 -0.1364
24618W        W44898   0.873   2.610  12.283  0.0605  0.0008  0.1336
24619W        W44899  13.593   4.297  16.274  0.1244  0.0572  0.0067
24620W        W44900  10.284  12.944   2.092  0.0407 -0.1017 -0.0327
24621W        W44901   4.292   8.954   4.422  0.2291  0.0954 -0.2768
24622W        W44902   7.756   8.224  12.428  0.1216 -0.4110  0.2869
24623W        W44903  13.375   8.879   3.469  0.0409  0.3492  0.6348
24624W        W44904   3.753  15.767   3.702  0.1402 -0.1208 -0.1478
24625W        W44905   8.728  14.580  13.260  0.2805 -0.1751 -0.1719
24626W        W44906  12.011   2.383  16.033 -0.0886 -0.2075 -0.0092
24627W        W44907  13.160   7.281   0.409 -0.4624 -0.2776  0.3492
24628W        W44908  14.194   3.024  13.395  0.3020 -0.1820 -0.0802
24629W        W44909  13.226   9.525  14.806 -0.1546 -0.0727 -0.1794
24630W        W44910   4.324   3.541  14.181 -0.0752 -0.0265 -0.2803
24631W        W44911   3.088   2.807   1.321 -0.3065  0.3705 -0.0124
24632W        W44912  14.020   0.318  13.188 -0.0234 -0.3776  0.0983
24633W        W44913   9.379   9.865   3.843  0.4459 -0.0873 -0.1603
24634W        W44914   1.171   3.400   2.381 -0.0474  0.1298  0.1192
24635W        W44915   6.113   9.614  16.151  0.3088 -0.1354 -0.2708
24636W        W44916   0.421  13.314  15.090 -0.0077 -0.4373 -0.1270
24637W        W44917  15.464   5.652  14.012  0.2479  0.0607  0.0404
24638W        W44918  17.265   1.182  12.989 -0.1325  0.0754 -0.0877
24639W        W44919  14.434  11.457   3.657  0.2322  0.0726  0.4132
24640W        W44920  12.361   9.952   1.239  0.0233  0.1526 -0.0961
24641W        W44921   8.584  14.835   4.568  0.2887 -0.0311  0.0387
24642W        W44922  17.518   6.944  14.910 -0.0159 -0.1402 -0.0700
24643W        W44923   2.864  12.693  16.576 -0.0720  0.0774  0.0601
24644W        W44924  15.941   8.459  16.226  0.1093 -0.2196  0.0389
24645W        W44925   1.750   9.994   2.105  0.1653  0.1700 -0.0957
24646W        W44926  11.795   5.256   4.322 -0.0426  0.0542 -0.0014
24647W        W44927   5.458  13.270   2.467  0.2145  0.2699  0.1752
24648W        W44928   4.753  14.519   0.666 -0.1115 -0.2249 -0.0727
24649W        W44929   2.854  15.015   2.287 -0.2984  0.1817  0.0453
24650W        W44930   6.106   9.633  16.697 -0.1876  0.0741  0.1415
24651W        W44931   2.971   0.835   2.488  0.2609 -0.2188  0.2015
24652W        W44932  13.955  16.203  13.355  0.1327  0.0017  0.5187
24653W        W44933  12.835   9.763   1.364  0.1580 -0.2407  0.1885
24654W        W44934   0.737   9.621   2.378 -0.1708  0.1730 -0.1956
24655W        W44935  17.009  15.918   4.583  0.0657 -0.1881  0.1251
24656W        W44936   4.800   8.418  14.308 -0.1890  0.3782 -0.3190
24657W        W44937  14.988   5.883   3.334 -0.0705 -0.2554  0.2049
24658W        W44938  14.628   3.374   5.674 -0.1340 -0.1384 -0.3217
24659W        W44939  10.959   9.598  15.976 -0.0948  0.1164  0.0960
24660W        W44940   4.343  16.304  14.382  0.0890 -0.3990 -0.0936
24661W        W44941  15.195   6.619  15.584 -0.0126 -0.2183  0.0338
24662W        W44942  11.586  10.580   0.663  0.0840 -0.2722 -0.1008
24663W        W44943  13.603   0.737  14.712  0.2396  0.1022  0.1688
24664W        W44944  14.087  12.732  13.283 -0.0032  0.1201  0.1284
24665W        W44945  10.215  12.708   0.184 -0.1069 -0.0302  0.0656
24666W        W44946   6.368  12.872  12.429  0.1815  0.1293  0.0425
24667W        W44947   2.359   4.088   1.739 -0.0516 -0.0531 -0.0006
24668W        W44948  11.711   7.114  15.120  0.0031 -0.3185 -0.0730
24669W        W44949  10.734  12.994   4.178 -0.0704  0.1837  0.1040
24670W        W44950   6.776  10.664   0.188  0.1453 -0.0557 -0.3421
24671W        W44951  12.800   9.175  12.411 -0.0122 -0.1385  0.0141
24672W        W44952   2.983   6.278  14.700 -0.0690 -0.2095  0.1266
24673W        W44953   9.374   5.524  16.484 -0.4159 -0.0979  0.2136
24674W        W44954   9.749   9.849  16.543 -0.0094  0.0141  0.2283
24675W        W44955  15.300  14.424   3.857  0.0138  0.1284 -0.0968
24676W        W44956   6.928   7.021   4.073  0.0033 -0.0787 -0.0713
24677W        W44957  11.493   4.817  14.591 -0.0328  0.2733  0.2068
24678W        W44958   1.571  16.121   4.364 -0.1215 -0.0489 -0.0660
24679W        W44959  16.827  11.766  16.577  0.0149 -0.2179 -0.0297
24680W        W44960   5.095   6.176   3.064 -0.0798  0.0663  0.0398
24681W        W44961   7.681  15.618   4.321  0.1015 -0.0849 -0.2548
24682W        W44962   4.577   0.258  14.082 -0.2863 -0.0509  0.1556
24683W        W44963  13.266   7.728  15.727 -0.0475  0.1042  0.2753
24684W        W44964  14.134   1.821  13.665 -0.3614 -0.0192  0.1192
24685W        W44965   9.469   0.135   4.849  0.0006  0.1553  0.0436
24686W        W44966   2.683   1.396  16.009 -0.2336 -0.2495 -0.3725
24687W        W44967   4.314   0.350  16.052 -0.2876 -0.0525 -0.0410
24688W        W44968   3.610  17.312  12.612 -0.3383 -0.1376 -0.4046
24689W        W44969   7.954  14.599   3.257 -0.0157 -0.1533 -0.2282
24690W        W44970  15.327   3.070   4.897  0.3230 -0.1726  0.0476
24691W        W44971   2.434   3.275  13.266 -0.0514 -0.1710 -0.0631
24692W        W44972   3.452  16.334  13.215 -0.0042  0.3706  0.0685
24693W        W44973   8.263  13.841  15.663  0.1677 -0.0828  0.1131
24694W        W44974   3.619  16.394   0.334 -0.0293  0.0817  0.0446
24695W        W44975   3.545   8.468  12.749 -0.5178 -0.2459  0.0100
24696W        W44976   6.810   7.569   0.303  0.0476 -0.1575 -0.1722
24697W        W44977   1.260   2.533   2.916 -0.0199  0.1997  0.2696
24698W        W44978   9.825  14.643   2.684 -0.2144  0.2339  0.1651
24699W        W44979  12.185  10.848   4.699  0.0069  0.0944  0.3847
24700W        W44980   2.553   9.523  15.779  0.0825  0.1267  0.0354
24701W        W44981   1.768   0.573   2.524  0.0460 -0.1284 -0.0398
24702W        W44982   1.717  14.743   1.843 -0.0943 -0.0888 -0.1169
24703W        W44983  15.624   3.847   1.395 -0.1336 -0.2051 -0.0210
24704W        W44984   7.866  17.683  16.636  0.2809 -0.1319  0.0058
24705W        W44985   8.157   3.182   0.148 -0.1463  0.1412  0.3363
24706W        W44986   1.098  16.034  15.619 -0.0164  0.1934 -0.0228
24707W        W44987   4.275  10.391   2.364 -0.1413  0.2441  0.0263
24708W        W44988   6.607  14.276  15.230  0.0005 -0.0869  0.0039
24709W        W44989   0.325  14.637   4.060  0.1656  0.1340 -0.0227
24710W        W44990  10.503  10.703   4.510  0.3056 -0.0679  0.2072
24711W        W44991  10.748   6.535   4.803 -0.2290  0.3718  0.0480
24712W        W44992   3.417  14.347  14.679 -0.3313 -0.2724 -0.0377
24713W        W44993  13.845  15.765  15.541  0.1956  0.0010 -0.0667
24714W        W44994  15.464   6.853  13.046 -0.1069 -0.0909 -0.2422
24715W        W44995  10.247   5.464  13.906  0.0611  0.1520  0.0376
24716W        W44996   2.358   6.924  15.190 -0.0719  0.0128  0.1531
24717W        W44997  15.506  15.466  13.495  0.3856  0.0688 -0.1436
24718W        W44998  15.858  16.834  16.727  0.4392 -0.2425 -0.0535
24719W        W44999  10.267   1.161  11.951  0.1123  0.1407  0.0692
24720W        W45000  15.519   1.989  16.197  0.1110  0.0086  0.0325
24721W        W45001   2.682   0.510   3.894 -0.0469  0.1711 -0.4076
24722W        W45002   4.828  17.365   0.129  0.5144  0.4208 -0.1962
24723W        W45003   6.275   3.005   0.380 -0.0658 -0.0087  0.1855
24724W        W45004  16.798   8.280   1.089  0.2752  0.0348  0.1793
24725W        W45005  16.733  10.345   3.317 -0.0910 -0.1622  0.0525
24726W        W45006   8.743   4.979   4.786  0.2609  0.2981 -0.3735
24727W        W45007  13.084  16.046   2.506  0.0083 -0.2552  0.0661
24728W        W45008  10.871   9.449  16.597 -0.2679  0.3835 -0.3049
24729W        W45009  17.423   5.506  13.966  0.3424 -0.4771  0.1387
24730W        W45010  10.940  13.412   1.070  0.1304  0.0100  0.0868
24731W        W45011   6.900  12.860  12.557 -0.0637  0.2049 -0.1696
24732W        W45012  10.516  10.487   3.070  0.1642 -0.1960 -0.2170
24733W        W45013  11.446  16.308   3.078  0.0827 -0.0297 -0.1691
24734W        W45014   3.719   3.967  12.506 -0.3257  0.1999 -0.1220
24735W        W45015   0.231   2.743   1.723 -0.0661 -0.1100 -0.3569
24736W        W45016   3.673   6.622  14.871 -0.1726 -0.0096  0.2342
24737W        W45017   4.849   9.973  12.999  0.0383 -0.0048  0.0771
24738W        W45018   5.087   9.322   2.725  0.1390 -0.1190  0.0707
24739W        W45019  11.574   2.386  17.002 -0.2326 -0.0682  0.0342
24740W        W45020   2.734   9.067   3.307  0.4218  0.0032 -0.3682
24741W        W45021   2.914   3.377  13.132 -0.2303  0.3232 -0.4805
24742W        W45022   3.224   7.610   5.393 -0.2271  0.0453  0.0002
24743W        W45023   1.068   1.783  14.751 -0.3229  0.0777 -0.3016
24744W        W45024  15.463  13.233  14.780  0.0440 -0.0491 -0.0210
24745W        W45025  15.052   1.188   3.571  0.2183  0.1601  0.2063
24746W        W45026  14.838  13.373   2.582 -0.1902 -0.1023 -0.2640
24747W        W45027   7.592   5.956   2.774  0.2287 -0.0077 -0.0596
24748W        W45028  15.706   5.763   2.593 -0.2985 -0.0253 -0.1169
24749W        W45029   1.843  14.733   3.189 -0.0642  0.1946  0.1174
24750W        W45030   4.697   3.353  15.606  0.0689  0.2673 -0.3156
24751W        W45031  16.197  12.030  15.362  0.2434  0.0915 -0.2092
24752W        W45032   5.123  17.397   4.647  0.1298  0.2892  0.0178
24753W        W45033   2.396  16.573  15.827  0.0562 -0.2188  0.5336
24754W        W45034   7.654   3.123   4.142 -0.0105  0.1690 -0.1695
24755W        W45035  10.288   4.590  15.480  0.1248 -0.1149  0.3522
24756W        W45036   7.512  11.896   5.138 -0.3940  0.2190 -0.1585
24757W        W45037  12.064   4.731  13.768 -0.0143 -0.0493 -0.1311
24758W        W45038   5.324   8.274   3.789  0.2527 -0.0237  0.3085
24759W        W45039  11.199  17.006   2.785 -0.1684  0.2731  0.1192
24760W        W45040   3.537  11.810  12.699  0.0329  0.0148  0.1666
24761W        W45041  15.445  10.385   0.906  0.0416  0.0904 -0.6718
24762W        W45042  13.488  16.569  14.793  0.0172  0.4328  0.1516
24763W        W45043  15.638   2.481  16.232 -0.2062 -0.2618 -0.3475
24764W        W45044  16.774   0.232  13.944  0.1128  0.0251  0.0798
24765W        W45045   8.655   3.306  14.296 -0.1179  0.3264 -0.1807
24766W        W45046   6.328   0.967   4.882  0.1665  0.0883  0.0178
24767W        W45047  15.260   9.564   3.324  0.1449  0.2118 -0.0867
24768W        W45048  12.787   1.798   3.609  0.1939  0.0213  0.0327
24769W        W45049  11.829   1.226   4.921  0.0330 -0.1094 -0.1476
24770W        W45050   9.296   8.789  14.274 -0.0821 -0.1007 -0.3424
24771W        W45051  15.384   6.190  15.816 -0.1237 -0.0546  0.2022
24772W        W45052  13.119  11.497   3.128  0.0449 -0.1586 -0.2323
24773W        W45053   9.854   7.496   4.884  0.3522  0.6679 -0.0485
24774W        W45054   4.137   3.621   3.321 -0.3437 -0.1458 -0.2139
24775W        W45055   0.049  17.057   0.495 -0.0640 -0.0562  0.0617
24776W        W45056   1.499   2.606   3.930  0.2740  0.3687 -0.2966
24777W        W45057   8.310  10.358   1.041 -0.4721 -0.0739 -0.0227
24778W        W45058   5.910   2.964   4.946  0.1788  0.0482 -0.1281
24779W        W45059   2.293  15.712   1.034 -0.2772 -0.2736  0.0793
24780W        W45060   1.894   2.971  14.392 -0.2540 -0.1950  0.2107
24781W        W45061   4.804   0.244   2.773  0.2403  0.0493  0.0023
24782W        W45062  17.636  10.517   5.138  0.3151 -0.3132 -0.2030
24783W        W45063   5.888  15.327   1.063  0.1740  0.0724 -0.1146
24784W        W45064  12.914  16.922   4.237  0.1225  0.1202 -0.0507
24785W        W45065   5.304   6.414   4.041  0.2277 -0.2181 -0.1389
24786W        W45066   8.652   8.078  15.472  0.0352 -0.0932  0.0869
24787W        W45067  14.085   6.552  13.110  0.1481 -0.2235  0.0504
24788W        W45068   4.232  17.311   4.031  0.0184 -0.1848 -0.1383
24789W        W45069   5.677   4.011   2.511 -0.1943  0.1736  0.0899
24790W        W45070   3.381  14.615   0.611 -0.1085  0.2805  0.2686
24791W        W45071  12.006   8.301   2.492  0.0307  0.2628 -0.0965
24792W        W45072   5.239   8.782   1.346 -0.3096  0.1796 -0.0522
24793W        W45073   8.099   9.741   1.217  0.0966  0.1751  0.2509
24794W        W45074  11.305  16.686   4.589 -0.1328 -0.4324 -0.1393
24795W        W45075  11.671  15.680  14.460 -0.1266  0.0617  0.0503
24796W        W45076   0.890  13.962  14.589  0.2351 -0.0299  0.2019
24797W        W45077  14.462  15.025   3.526 -0.3261  0.0624  0.1369
24798W        W45078   7.390   9.817   2.972  0.0770 -0.2321  0.1976
24799W        W45079   9.538  16.669   0.002  0.0880 -0.2551 -0.3901
24800W        W45080   7.442   1.494   2.797 -0.3044 -0.1471 -0.4650
24801W        W45081  10.662  16.390  13.738 -0.1716  0.0603  0.3830
24802W        W45082  10.914  15.591   1.401  0.1312  0.3162  0.0804
24803W        W45083   5.354  14.967  14.173 -0.0996  0.0983 -0.0097
24804W        W45084  12.855   3.301   0.659 -0.1038  0.0280 -0.1959
24805W        W45085   4.034  13.591  14.466 -0.1740 -0.0891 -0.2154
24806W        W45086   9.745  15.048  14.540  0.1358  0.0661  0.1973
24807W        W45087  15.980  17.520  13.968 -0.1124  0.0831  0.1237
24808W        W45088  10.458   4.642   4.600 -0.1638 -0.0922  0.2358
24809W        W45089  13.135   9.988   2.081  0.0787 -0.0546  0.6071
24810W        W45090   2.476  14.166  12.680 -0.1292  0.0810  0.1149
24811W        W45091   3.393   5.260   4.900 -0.0258 -0.2433 -0.2442
24812W        W45092  12.666  11.567  11.983  0.1355 -0.2339 -0.2247
24813W        W45093   3.194  16.373  16.004  0.2509  0.0043  0.2351
24814W        W45094  16.412   8.433   4.972 -0.0357 -0.1343  0.1132
24815W        W45095   2.143   5.988   4.009  0.1333  0.0485 -0.2410
24816W        W45096   8.195  14.199   1.457 -0.0689 -0.1198  0.3215
24817W        W45097  17.253  11.571   0.496  0.2009  0.0896 -0.0068
24818W        W45098  13.906  16.701  15.479  0.2210 -0.0906 -0.0002
24819W        W45099  11.432  16.016  14.139  0.1818 -0.3365 -0.1277
24820W        W45100  10.304   1.594   1.424  0.1383  0.0947  0.0855
24821W        W45101   7.083   1.725   3.211 -0.2071 -0.1680 -0.0835
24822W        W45102  10.245   0.885  14.411 -0.0141 -0.0941  0.0617
24823W        W45103  13.473   9.199  12.812 -0.0226 -0.0108 -0.2074
24824W        W45104   6.369  16.645   3.657  0.0029  0.0608  0.3600
24825W        W45105   7.910  17.594  15.883  0.3324  0.1406 -0.1513
24826W        W45106  14.216  10.257   2.061 -0.4026 -0.1576 -0.1603
24827W        W45107  13.953   0.859  14.162  0.1072  0.0722  0.0835
24828W        W45108   0.109  17.608   0.535 -0.3324 -0.0026  0.1829
24829W        W45109  15.777  14.052  15.853  0.0263  0.0662 -0.1355
24830W        W45110  13.762   9.072   0.082  0.1459 -0.0376  0.1857
24831W        W45111  14.202   9.789   0.123 -0.0196  0.1516  0.0266
24832W        W45112   6.284   4.394  12.204 -0.2260  0.0134 -0.0854
24833W        W45113  15.629   1.867   2.197  0.2116 -0.5322  0.0052
24834W        W45114  10.302  13.675  13.755 -0.1854  0.0024  0.1060
24835W        W45115   9.909   2.828  12.709 -0.0440  0.0737 -0.0430
24836W        W45116   5.327  13.110   1.061  0.1353  0.1526 -0.0774
24837W        W45117   2.402   0.249   1.040 -0.1752  0.0592 -0.0362
24838W        W45118   3.827  17.204  14.384 -0.1909 -0.0930  0.1127
24839W        W45119  13.523  14.289  12.799 -0.1717 -0.0137  0.2163
24840W        W45120   2.383   3.680   3.955 -0.0732  0.0736  0.1638
24841W        W45121  16.167   1.722   2.401 -0.0985 -0.0447 -0.0972
24842W        W45122   2.200  16.595  15.029  0.1321 -0.2234  0.1815
24843W        W45123   8.596  15.640  16.674 -0.2640 -0.2238 -0.1182
24844W        W45124   8.019  11.657   3.176 -0.0758  0.1346  0.0815
24845W        W45125  14.040  11.459  12.588  0.1246 -0.3875 -0.2725
24846W        W45126   5.615   0.027   2.302  0.0473 -0.1107  0.0081
24847W        W45127   1.668   5.391  15.176 -0.1485 -0.0850  0.1628
24848W        W45128   4.525  17.578  14.247  0.1380 -0.1718  0.2708
24849W        W45129  17.354   1.382  13.985 -0.0787 -0.0195  0.0424
24850W        W45130   6.511  13.672  12.608 -0.0119 -0.1973 -0.0899
24851W        W45131   3.856  11.525  15.399 -0.1069  0.1439  0.0801
24852W        W45132  10.811   3.574   1.060  0.2526  0.2116  0.2631
24853W        W45133  10.346  17.585   4.004  0.2288  0.1082 -0.1104
24854W        W45134   9.818  11.664   0.219 -0.1583  0.1902 -0.5282
24855W        W45135   8.727   3.150  13.792  0.0210 -0.0258 -0.1840
24856W        W45136  16.144   1.683   3.984  0.1102 -0.0904 -0.2001
24857W        W45137  10.421   2.477  14.303 -0.0948 -0.2415 -0.0808
24858W        W45138  16.740  14.446  12.655  0.0143 -0.3047  0.1620
24859W        W45139  17.440  17.297  15.908  0.0162 -0.3046 -0.0576
24860W        W45140  16.714   1.532  15.506 -0.2285 -0.1084 -0.1632
24861W        W45141   5.823   7.275   4.561  0.3084  0.0767  0.2526
24862W        W45142   8.311   4.602  13.490  0.2001  0.1574  0.2378
24863W        W45143   0.231  15.131  16.405  0.0695  0.2329 -0.1966
24864W        W45144  11.289   9.356   2.250 -0.3619  0.0798  0.1631
24865W        W45145   3.365   1.740  16.118 -0.0414  0.0871  0.1455
24866W        W45146   7.277   4.089   0.093  0.2199  0.0375 -0.2115
24867W        W45147   4.608  10.728  13.753  0.1417 -0.0905 -0.0134
24868W        W45148   5.604   3.340   5.151 -0.1985  0.2040  0.0637
24869W        W45149  10.300   4.476   3.510 -0.1581 -0.0738 -0.1087
24870W        W45150  13.376   5.961  15.916 -0.0188  0.1942  0.0490
24871W        W45151   6.000  11.220  16.757 -0.0258  0.1539  0.1659
24872W        W45152  11.302   1.168  12.801  0.0961  0.4066 -0.0280
24873W        W45153   2.699   1.684  16.707 -0.1429 -0.0599 -0.0562
24874W        W45154  15.490   6.425   1.184 -0.1454  0.0906  0.0357
24875W        W45155   6.916   6.963  14.364  0.1255 -0.0418 -0.0400
24876W        W45156  17.734   9.291   2.705 -0.0796 -0.5348  0.1079
24877W        W45157   0.905  15.323   2.331 -0.2812 -0.0238  0.1247
24878W        W45158  17.001  10.463   1.295  0.0627  0.0371  0.0156
24879W        W45159  11.188   5.730  16.542 -0.1377  0.4803 -0.0030
24880W        W45160  12.870   3.904  13.592  0.0955 -0.2510 -0.1810
24881W        W45161   4.863  17.724  14.602  0.0820  0.0248 -0.1923
24882W        W45162   6.006   0.132   3.548 -0.1435 -0.0492 -0.2284
24883W        W45163  11.653   3.332   4.844 -0.0267 -0.0079  0.2288
24884W        W45164  11.639   2.679   4.949 -0.0097  0.0039 -0.0568
24885W        W45165   0.101   7.071  16.148  0.0558  0.0423  0.1287
24886W        W45166   4.593  16.831   2.313 -0.2689 -0.1079 -0.1882
24887W        W45167   6.600  16.636  16.878  0.0742 -0.2793  0.1141
24888W        W45168  15.394   2.150  16.777  0.3456  0.2353  0.1895
24889W        W45169   7.663  17.181  16.618 -0.1983  0.2969  0.0489
24890W        W45170  13.667  13.301  12.802  0.2230 -0.2916  0.0579
24891W        W45171  14.895  11.301  16.474  0.2601 -0.2829 -0.0350
24892W        W45172  17.709   2.001   3.213 -0.0893 -0.2176 -0.1352
24893W        W45173   0.561  12.051  15.177  0.0972  0.2183  0.1028
24894W        W45174  15.711   0.125  16.202 -0.0351  0.3046 -0.0558
24895W        W45175  11.392   4.749   3.762  0.0339 -0.0757 -0.0921
24896W        W45176  12.099  13.289   4.279 -0.1025 -0.0547 -0.0810
24897W        W45177  16.484  11.799  14.914 -0.0976  0.2070 -0.1010
24898W        W45178  14.539  16.975  15.006  0.0198 -0.0781  0.0406
24899W        W45179  17.258   6.006   2.988 -0.1062 -0.0321 -0.2197
24900W        W45180   1.925   0.613  13.498  0.1072  0.1065  0.2487
24901W        W45181  15.697   7.946  16.001 -0.1160 -0.0562 -0.2105
24902W        W45182   8.189   8.034   2.964 -0.0746  0.1908  0.2666
24903W        W45183  12.391   9.869  14.258 -0.2490  0.0305  0.1500
24904W        W45184   6.412   1.093  14.618  0.1889  0.0225  0.2450
24905W        W45185   0.919   5.323   4.074 -0.2293 -0.0502 -0.4528
24906W        W45186  17.104  15.016   2.884  0.0538  0.2123  0.1457
24907W        W45187   1.002  10.634  16.844  0.2168 -0.1845 -0.0267
24908W        W45188   4.729   8.790  15.423  0.2183 -0.0734 -0.0939
24909W        W45189  11.403   4.632  16.922  0.1962 -0.0088  0.0575
24910W        W45190  15.857  16.316  12.182  0.0019 -0.0776  0.2946
24911W        W45191  12.735  17.639   1.458 -0.0791 -0.2582 -0.0416
24912W        W45192   5.313  12.478   2.955  0.0682  0.0091  0.4025
24913W        W45193   0.555   6.678   2.202 -0.0613 -0.0455 -0.1653
24914W        W45194  10.695  10.844  16.402  0.0838  0.0703  0.2857
24915W        W45195   8.457   4.946   4.191  0.1107 -0.1326 -0.1648
24916W        W45196   6.054  12.579  14.065 -0.1397 -0.4394 -0.3068
24917W        W45197   8.505   5.393   4.527  0.0305 -0.0034  0.0866
24918W        W45198   7.893   9.682   3.677 -0.1952  0.0769  0.1240
24919W        W45199   8.115   2.517  12.910 -0.0361  0.0186  0.1634
24920W        W45200   7.630  14.735   4.388 -0.0040  0.4693 -0.0150
24921W        W45201   0.908   6.321  16.797 -0.2003  0.1045 -0.0968
24922W        W45202  10.158   0.650   2.202 -0.0880  0.1572 -0.2187
24923W        W45203   0.950  12.865   2.338  0.0372  0.0365 -0.0903
24924W        W45204   1.668   9.445  12.214  0.0827 -0.0836 -0.1589
24925W        W45205  11.443   2.862  16.274 -0.1893  0.2352  0.2540
24926W        W45206  13.551  15.164  16.859  0.1366  0.0487  0.0237
24927W        W45207   3.662  12.021   4.777  0.1577 -0.0429 -0.0974
24928W        W45208  17.523  12.077   2.837  0.2028 -0.3475 -0.1073
24929W        W45209   7.726  12.123  14.789  0.2088 -0.0717  0.0580
24930W        W45210  11.047  11.610  16.161  0.0926 -0.1427  0.3417
24931W        W45211  13.545   1.509  15.490  0.0577 -0.1171 -0.0809
24932W        W45212   2.125  15.824  14.011 -0.1428 -0.0063 -0.2850
24933W        W45213   0.797   3.029  16.470  0.1094 -0.2192 -0.1050
24934W        W45214  17.334  14.363   4.406 -0.2976  0.1854 -0.0675
24935W        W45215  14.793   9.180   4.088  0.0666 -0.3485  0.1491
24936W        W45216  11.809  13.077  15.285  0.0419  0.0186  0.2064
24937W        W45217   9.477  16.561   0.914  0.1359  0.1959  0.2020
24938W        W45218  11.973  11.745  15.739  0.1102 -0.1658 -0.1931
24939W        W45219   2.484   6.182   4.451 -0.1403 -0.3986 -0.2844
24940W        W45220  16.311  12.299  14.059  0.1069 -0.1671 -0.2326
24941W        W45221  16.119  14.473   4.963 -0.2594 -0.1284 -0.0657
24942W        W45222  11.612  10.095   4.426 -0.1279  0.1487 -0.1095
24943W        W45223   6.365   8.306   2.550  0.1963 -0.2583  0.2882
24944W        W45224   8.438  11.979   3.608  0.2690 -0.1912  0.1335
24945W        W45225   7.254   1.956   2.809  0.1264 -0.1324  0.4335
24946W        W45226  16.540   4.322  13.210 -0.0522  0.0337 -0.1187
24947W        W45227   7.245   1.121   0.203  0.1697 -0.0728 -0.1047
24948W        W45228  12.154   1.889  13.879  0.0049 -0.1547  0.2903
24949W        W45229   4.120   7.494   4.613  0.2326 -0.0961 -0.3060
24950W        W45230  14.069   1.724   1.127  0.1049 -0.1922  0.0274
24951W        W45231   4.826   6.860  16.728  0.2593  0.2753  0.1361
24952W        W45232  13.991  16.432   2.041 -0.0397  0.1579  0.1172
24953W        W45233  15.521   6.655  12.441  0.4431  0.1094 -0.0300
24954W        W45234  13.265  13.234  14.400  0.3675 -0.0400  0.0863
24955W        W45235  16.867  13.870  12.394 -0.0593  0.0008 -0.0752
24956W        W45236   4.500  17.614  16.017 -0.0108 -0.2602 -0.2722
24957W        W45237  13.190  10.530  15.099 -0.1051 -0.1322 -0.1018
24958W        W45238   2.451  14.449  13.120  0.3315  0.1450  0.0884
24959W        W45239   3.227   8.615   0.032  0.0499  0.3068  0.0126
24960W        W45240   2.260   3.619   2.445  0.0865 -0.0050  0.0031
24961W        W45241   6.597   1.624  15.728 -0.0994 -0.1010  0.1769
24962W        W45242   9.001   9.585  13.339 -0.1689  0.2124  0.0141
24963W        W45243  14.389   8.046  15.437  0.0268 -0.1631 -0.0862
24964W        W45244   8.310  15.691  13.529 -0.0261  0.1277 -0.0146
24965W        W45245  15.165   2.800   4.401  0.2069  0.0185 -0.0298
24966W        W45246   7.452   4.909  12.113 -0.1135  0.1227 -0.0898
24967W        W45247   4.753   1.056   0.604 -0.0927  0.1254 -0.1103
24968W        W45248   1.245   1.281   2.357 -0.3793  0.0321  0.0565
24969W        W45249   0.814   2.379   3.394 -0.2312  0.0116  0.2236
24970W        W45250   5.168   5.263   1.986 -0.1938  0.2011 -0.2033
24971W        W45251  11.174  14.456  13.849  0.1656 -0.1310  0.4672
24972W        W45252   8.094  13.614   3.731 -0.0724  0.1962 -0.1219
24973W        W45253   8.263   0.961   2.630  0.1519  0.1529  0.0549
24974W        W45254  15.799  15.287   5.363  0.2786 -0.1645 -0.1127
24975W        W45255   6.172   6.372  15.510  0.2164  0.1473 -0.1288
24976W        W45256   5.306  11.819   3.383  0.2877  0.1896  0.1771
24977W        W45257  11.484  16.130   3.557 -0.0368  0.0475 -0.2390
24978W        W45258   5.463  15.030   3.888  0.2284  0.0522 -0.2279
24979W        W45259  14.800  17.550   2.672 -0.1698 -0.0760 -0.0686
24980W        W45260   4.823   4.915   1.409 -0.2001 -0.2162  0.0419
24981W        W45261   2.730   1.000   1.533  0.1923 -0.0124 -0.0811
24982W        W45262  10.180  15.325   3.434 -0.1629  0.2662  0.3106
24983W        W45263   9.905   3.236  15.727 -0.1550  0.0433 -0.4094
24984W        W45264   4.279   8.312  12.352 -0.1907  0.0535  0.2899
24985W        W45265  12.015   8.920  12.994 -0.2280  0.1015  0.1111
24986W        W45266   1.470  12.979   2.330 -0.0478 -0.0477 -0.0904
24987W        W45267   6.374  11.931   4.958 -0.2146  0.1485 -0.1879
24988W        W45268   9.008  14.826   2.763 -0.0628 -0.1323  0.0989
24989W        W45269  16.486  12.994  11.623  0.0290  0.0811  0.0460
24990W        W45270   5.913   9.645   0.683  0.2191 -0.2763  0.1037
24991W        W45271   1.643   5.722  12.841  0.1135  0.4679 -0.0717
24992W        W45272  13.049  11.234  16.384 -0.0127  0.1207  0.5156
24993W        W45273  14.173   8.470  12.820 -0.1383 -0.1947  0.0594
24994W        W45274  16.222   1.670  15.665 -0.0030  0.0707 -0.2520
24995W        W45275   4.827   5.339  15.281 -0.0763 -0.1850  0.1236
24996W        W45276   9.641  17.226   3.706  0.1826 -0.1410 -0.0499
24997W        W45277   6.662  17.672  15.789 -0.0579 -0.0732  0.0990
24998W        W45278   5.604   7.052  13.204 -0.1223 -0.2742  0.2720
24999W        W45279  16.330   8.360  14.940 -0.0298  0.0143  0.0950
25000W        W45280   3.097   9.806  14.013  0.1680  0.1590  0.0947
25001W        W45281   8.702  15.162   3.026  0.1039 -0.2215 -0.1564
25002W        W45282  12.804  12.558   1.677  0.0300 -0.2342  0.0574
25003W        W45283   5.855   8.794  14.136 -0.0087 -0.0996 -0.0000
25004W        W45284  11.748   9.171  14.466 -0.0754 -0.4559 -0.1377
25005W        W45285  12.937   4.173  12.818  0.0315 -0.2555  0.0416
25006W        W45286   9.232  12.208  12.927 -0.2864  0.2691  0.2476
25007W        W45287   9.144   9.600   4.658  0.0347  0.1579 -0.2910
25008W        W45288   2.770   5.479  16.979 -0.0166 -0.1355 -0.3411
25009W        W45289   7.421   9.611  13.875  0.0431 -0.2212 -0.2434
25010W        W45290   8.306  14.736   5.046 -0.1486 -0.1124 -0.0503
25011W        W45291   0.321   2.648  16.487  0.0245  0.2196  0.0710
25012W        W45292   9.448   2.679  12.144 -0.4001 -0.0249 -0.1390
25013W        W45293  14.069  13.689  15.367 -0.1700  0.2295 -0.0193
25014W        W45294   5.798   4.058  15.967 -0.2503  0.1343  0.0821
25015W        W45295  11.601  13.174  17.000  0.0998  0.1516 -0.3704
25016W        W45296   5.970  14.337  13.151 -0.0350  0.3535  0.0751
25017W        W45297  14.536  16.843  12.684 -0.3617  0.0425 -0.1728
25018W        W45298   1.326   7.410   3.943 -0.1064 -0.2219  0.0191
25019W        W45299  17.373   8.781  12.482  0.1112 -0.0494 -0.1264
25020W        W45300   9.721   5.621  13.871 -0.2112 -0.0100 -0.3823
25021W        W45301   9.052  11.990  14.864  0.0110 -0.0090 -0.1536
25022W        W45302   9.645  12.297   1.505 -0.1446 -0.0480 -0.0990
25023W        W45303   5.837   6.053   0.490  0.2744 -0.2395 -0.1625
25024W        W45304   2.207   2.464  14.005  0.3641 -0.2663 -0.2824
25025W        W45305   7.120   0.762  13.972 -0.0992 -0.4108  0.0968
25026W        W45306  13.976   9.601   3.283 -0.0266 -0.0354 -0.0623
25027W        W45307   8.005   4.995  13.582 -0.1142  0.2791  0.0884
25028W        W45308  10.697   1.409   3.116 -0.1160  0.3927  0.1765
25029W        W45309  16.722   1.050  14.110  0.1190  0.3339 -0.0901
25030W        W45310   0.322  11.166  14.547  0.3968  0.0679  0.1739
25031W        W45311   3.668  10.481  15.999  0.2904 -0.2243  0.0774
25032W        W45312   9.669   3.337   3.918  0.1707 -0.2102  0.0978
25033W        W45313   8.174  17.343  13.499  0.3677  0.0333 -0.0646
25034W        W45314   9.769   5.083  16.701 -0.0019 -0.1476  0.0828
25035W        W45315  11.477   5.846   2.092  0.0134  0.0145 -0.0033
25036W        W45316   9.732   3.106  12.131  0.0676 -0.1664 -0.2737
25037W        W45317  12.166  14.367   2.331 -0.0433  0.1211  0.1026
25038W        W45318  12.224  15.165  12.116  0.0085  0.2093  0.1282
25039W        W45319   9.662  13.147   1.614  0.3095  0.2418 -0.2042
25040W        W45320   4.835   4.387  14.286 -0.4187  0.2265 -0.3044
25041W        W45321   6.360   3.295   2.769  0.1058  0.1464  0.0319
25042W        W45322  17.731   3.257   1.612 -0.2651  0.1287  0.5207
25043W        W45323   5.027   8.371   4.686  0.3569 -0.1416 -0.2234
25044W        W45324  17.685   5.698   2.246 -0.1146  0.1943 -0.1262
25045W        W45325   8.852  10.666   3.181 -0.3694 -0.2519 -0.2729
25046W        W45326   1.923  12.688   2.453 -0.1129  0.0369 -0.2279
25047W        W45327  12.546   1.794  16.099  0.2116  0.0759  0.0722
25048W        W45328   9.039   2.280   2.233  0.4007  0.2461 -0.0493
25049W        W45329   3.287  14.135   0.869 -0.1209  0.1631 -0.3113
25050W        W45330   4.296   2.049  14.128 -0.0348  0.1723 -0.0156
25051W        W45331   7.354  12.974   0.887  0.0223  0.1517  0.0667
25052W        W45332  11.870  16.585  12.495  0.0322 -0.2296  0.0740
25053W        W45333   2.558  10.606   4.176 -0.2151  0.1276 -0.1416
25054W        W45334   9.463   3.090  16.483 -0.1567 -0.0254  0.0685
25055W        W45335  17.039  12.559   4.463  0.3941  0.1304 -0.1265
25056W        W45336   1.036   6.008   0.244 -0.3604 -0.0807 -0.0911
25057W        W45337   2.055   4.865   2.946  0.0454 -0.3337 -0.0490
25058W        W45338  11.922   9.122   3.788 -0.1454 -0.0490  0.0570
25059W        W45339   1.710  10.689  14.123 -0.1302 -0.3433 -0.2178
25060W        W45340   4.530   5.853  13.174 -0.0695  0.2139  0.1887
25061W        W45341   5.348  16.214   0.891  0.1105  0.0431  0.0427
25062W        W45342  15.040  15.444  14.327 -0.2630 -0.1913  0.0151
25063W        W45343   3.941   5.457   1.236 -0.0369  0.0224 -0.0289
25064W        W45344   8.248   0.870  14.612  0.1062  0.2561 -0.1222
25065W        W45345   4.692   9.472  12.899 -0.2119  0.0486  0.0390
25066W        W45346  12.755   0.536   0.517 -0.1739  0.1923 -0.0021
25067W        W45347  10.878  15.903   4.810 -0.0148  0.1678  0.0653
25068W        W45348   3.952  16.523  12.887  0.1211  0.1167 -0.0363
25069W        W45349  16.186   0.897  12.379 -0.1337 -0.0211 -0.1521
25070W        W45350   0.930  12.646   1.163 -0.1132  0.0837 -0.3801
25071W        W45351   2.536  11.316  13.799 -0.1236  0.0295 -0.3337
25072W        W45352  15.477   3.647   2.415 -0.4823 -0.1886 -0.1987
25073W        W45353  10.425  16.368  13.007 -0.0740 -0.1928  0.0258
25074W        W45354  10.305   7.091  16.435  0.0286 -0.3289  0.0548
25075W        W45355  10.310  16.256   0.880 -0.0023 -0.1098  0.0700
25076W        W45356   7.036   7.551   2.060 -0.0715  0.0325  0.1521
25077W        W45357   4.288   6.042  15.467 -0.0008  0.2291 -0.3424
25078W        W45358  16.064   9.546   0.010  0.3470 -0.2400 -0.1432
25079W        W45359  14.998  11.692  12.660  0.3802 -0.1786  0.0514
25080W        W45360   6.496   8.307   2.015  0.3581 -0.0154 -0.0621
25081W        W45361  14.763   2.116   1.453 -0.1197  0.0915 -0.1944
25082W        W45362   7.761   0.073  14.316 -0.0873  0.1877 -0.1218
25083W        W45363  15.943  14.794   0.094  0.1240  0.0267 -0.3702
25084W        W45364   1.732   1.330  15.602 -0.0417 -0.1565  0.0470
25085W        W45365  12.911   7.074  16.380  0.2012  0.0972 -0.0267
25086W        W45366   1.392   2.268  14.618  0.0245  0.1010  0.0168
25087W        W45367   5.958  10.767   2.129  0.1558  0.0669 -0.0372
25088W        W45368  10.355  12.731  16.318 -0.1815  0.2922 -0.0864
25089W        W45369   9.408   2.490  11.559  0.1959 -0.0797 -0.0673
25090W        W45370   0.474  11.740   3.364 -0.0530 -0.0771  0.0472
25091W        W45371  16.393   9.315  14.611 -0.0968  0.0908 -0.1232
25092W        W45372   1.814   2.264  13.817  0.2717 -0.0103 -0.0654
25093W        W45373   8.513   3.302   2.416 -0.2251  0.2288  0.3039
25094W        W45374   8.858   5.846   2.396  0.2565 -0.2533  0.2576
25095W        W45375  14.683   4.168  12.755  0.0805 -0.3869  0.0961
25096W        W45376  11.843   6.725  13.573  0.0302 -0.2107 -0.3902
25097W        W45377  11.303  12.370   3.359 -0.1561 -0.0084  0.2112
25098W        W45378  16.022   3.300  14.898 -0.0086 -0.2229 -0.1265
25099W        W45379   0.016  11.300  12.666  0.3256  0.3358 -0.0004
25100W        W45380  17.104  12.999  16.884 -0.1935  0.1760  0.1282
25101W        W45381  14.767  12.105  13.077 -0.1127 -0.1274 -0.0933
25102W        W45382   5.957  13.866  15.396 -0.3609  0.1279  0.1774
25103W        W45383   5.981  11.930   2.268 -0.0015  0.2101 -0.0022
25104W        W45384  16.644  17.509  14.005 -0.2174  0.1657 -0.1149
25105W        W45385  15.323   5.751  16.642  0.1526  0.2833 -0.0073
25106W        W45386  11.348  10.506  14.800  0.2085  0.0627 -0.1495
25107W        W45387   6.118  12.368   4.864 -0.0010  0.1065  0.1930
25108W        W45388  12.701  16.158   3.679 -0.1805 -0.2276  0.1785
25109W        W45389   3.421  14.607   3.129 -0.0755 -0.0959  0.5279
25110W        W45390   8.336   7.627   3.764 -0.0045 -0.2935  0.1242
25111W        W45391  12.993  15.818  11.774  0.1356  0.1002 -0.0497
25112W        W45392  15.420   0.583  12.310  0.1271  0.0502 -0.1115
25113W        W45393   2.566  10.072   0.688  0.2453 -0.3516 -0.3423
25114W        W45394   0.749  12.312   4.871  0.0410 -0.0800  0.0338
25115W        W45395   3.668   5.440   1.680  0.1706  0.0906  0.0305
25116W        W45396   0.170   9.305   4.445  0.0840  0.2047 -0.1339
25117W        W45397  17.312  17.077   0.366 -0.2094 -0.2344  0.1448
25118W        W45398  17.142   0.593  16.396  0.2598  0.1726  0.1149
25119W        W45399   4.531  17.712  16.800 -0.0037  0.2674 -0.1535
25120W        W45400  17.542   6.492   4.829 -0.0657 -0.1306 -0.1150
25121W        W45401   8.143  13.847   3.136  0.2839  0.2088 -0.1406
25122W        W45402   7.431  17.053  14.526 -0.3131 -0.2695 -0.2435
25123W        W45403   7.401   5.010  14.379 -0.1005  0.0056  0.0380
25124W        W45404  10.825  13.221  16.754 -0.0229 -0.0323 -0.1492
25125W        W45405   4.552   6.243  15.862 -0.3148 -0.1844 -0.3014
25126W        W45406   9.116   8.790   1.497  0.0087  0.1338  0.1053
25127W        W45407   7.803  11.566   3.614  0.2352  0.0784 -0.3618
25128W        W45408   7.093   8.826  14.405 -0.0160 -0.3279  0.0911
25129W        W45409   5.972  16.976   1.197  0.3432 -0.2470  0.1685
25130W        W45410   8.263   1.787   4.106 -0.0654  0.0669  0.3761
25131W        W45411  16.134  14.298  16.178 -0.0362  0.3023 -0.0628
25132W        W45412   4.699  16.983   1.095 -0.0876 -0.0127 -0.0262
25133W        W45413  14.898  15.817   3.767  0.1982 -0.0347 -0.0823
25134W        W45414  10.355  12.732   3.435 -0.3436 -0.1159 -0.0932
25135W        W45415   0.133  12.419  15.918 -0.3112  0.0118  0.1404
25136W        W45416   1.826   9.216   4.553  0.1293  0.1562 -0.1218
25137W        W45417   7.809   2.383  15.591  0.1834 -0.2434  0.0294
25138W        W45418   7.447  16.805  13.126 -0.0468 -0.1345  0.0830
25139W        W45419  16.713   6.723   0.753 -0.1543 -0.2336  0.1312
25140W        W45420   6.222  17.032   4.749  0.1310  0.3118 -0.0228
25141W        W45421   4.670   9.300   3.127  0.1550 -0.0210 -0.1265
25142W        W45422   9.338  10.376   0.819 -0.2392  0.2225  0.1921
25143W        W45423   5.339   0.479  15.658 -0.0855  0.0413 -0.0131
25144W        W45424  10.067  17.180  13.303 -0.2573  0.0071 -0.0455
25145W        W45425   3.126  10.739   1.425  0.0371  0.0840  0.1270
25146W        W45426  10.358   8.624  12.403 -0.0207  0.1346 -0.1568
25147W        W45427  11.813   2.409  14.880 -0.0590 -0.1453  0.0714
25148W        W45428  12.701   2.324   3.059  0.1069  0.2768  0.3591
25149W        W45429   7.352  13.523  15.452  0.0193  0.2623 -0.1171
25150W        W45430   2.933   9.550  16.887 -0.1530 -0.4580 -0.2761
25151W        W45431  13.719   2.407  16.936  0.1972 -0.0722  0.0556
25152W        W45432   6.473   6.638   3.258  0.0178  0.1904  0.0338
25153W        W45433   7.313  15.498  16.841 -0.0206 -0.0597 -0.2505
25154W        W45434   1.616  10.587   4.642 -0.1665  0.2072  0.1032
25155W        W45435   3.765  10.114  15.554  0.1307  0.1487  0.0967
25156W        W45436   9.667  13.175   2.974  0.0999  0.4927  0.1536
25157W        W45437   7.440   0.652   0.176 -0.0207 -0.0158  0.2948
25158W        W45438   4.487   6.437   0.534  0.1342  0.1490  0.3122
25159W        W45439   5.503   9.063   4.933 -0.0361 -0.0544 -0.1520
25160W        W45440  10.437  15.496   0.334  0.3512  0.0455  0.0247
25161W        W45441  15.028   9.979   4.666  0.2252 -0.0990 -0.1633
25162W        W45442  13.618   9.678  16.384 -0.1138 -0.3380 -0.1123
25163W        W45443   3.218   9.765   0.256  0.0084 -0.0296 -0.1989
25164W        W45444  12.584  15.242   3.692 -0.2218 -0.2955  0.1653
25165W        W45445   6.808   9.106  12.891 -0.2070 -0.1770  0.0837
25166W        W45446  16.090   3.692   1.323 -0.1451  0.0616  0.1900
25167W        W45447  16.259  15.621   4.937  0.1019  0.0632  0.2736
25168W        W45448   7.126  10.719  16.387  0.2682  0.1294  0.1410
25169W        W45449   2.983  14.533   2.940 -0.0140  0.0236  0.1241
25170W        W45450   5.632  10.243   4.209 -0.0007 -0.0045 -0.0610
25171W        W45451   2.870  11.741  12.869  0.1378  0.1723  0.0488
25172W        W45452  11.242   6.381   2.876 -0.0192 -0.0039 -0.0164
25173W        W45453   3.563  17.655   3.453 -0.2524  0.3582  0.0473
25174W        W45454  12.685  10.382   3.094 -0.2183  0.0841  0.2194
25175W        W45455  10.643  14.678   5.185 -0.0815  0.1047  0.1372
25176W        W45456  10.673  11.180   4.583  0.0352 -0.0320  0.1444
25177W        W45457  15.602   5.236   3.391 -0.0176 -0.1332 -0.1957
25178W        W45458  13.875  17.017   1.225 -0.0509  0.0902 -0.0342
25179W        W45459   6.064   6.977  12.839 -0.0762 -0.2607 -0.1273
25180W        W45460   0.712   7.112   4.868  0.3543  0.1294  0.0180
25181W        W45461   2.554  14.075   4.486 -0.2955  0.2728  0.0911
25182W        W45462  13.056   0.460   4.170 -0.0983  0.1455  0.1892
25183W        W45463   1.386   8.971  15.164 -0.2061 -0.1457 -0.1629
25184W        W45464   0.567   6.861  16.025  0.0285  0.0811 -0.0861
25185W        W45465   4.953  12.881   4.183  0.0956  0.0506  0.1418
25186W        W45466   1.999  12.930  14.624 -0.1722  0.3779  0.1517
25187W        W45467  11.749  11.185   4.037 -0.0986 -0.3987  0.0490
25188W        W45468   3.928  16.272   2.974  0.1248  0.0403  0.0408
25189W        W45469   4.665  13.500   4.852  0.0226  0.1895 -0.2664
25190W        W45470   4.434  17.148  12.869 -0.3387  0.2270 -0.2835
25191W        W45471  16.981  17.606  13.636 -0.0979  0.1639 -0.0562
25192W        W45472  14.931   3.456   0.229  0.0593 -0.2413  0.0917
25193W        W45473  11.089   7.346  12.159 -0.0152 -0.0218  0.0283
25194W        W45474   7.910   5.105   3.344  0.1787 -0.1914  0.1129
25195W        W45475   1.786  12.671  16.379 -0.2336 -0.1712 -0.0549
25196W        W45476   7.785  13.685  13.293 -0.1577 -0.0389 -0.2329
25197W        W45477   2.985   9.476  15.457 -0.1349  0.0455  0.1038
25198W        W45478  13.126   3.600  13.895 -0.0340 -0.2086  0.1324
25199W        W45479   5.640   7.018   3.383  0.0548 -0.3734 -0.2504
25200W        W45480   4.615  17.384   2.440  0.2184 -0.0975 -0.1686
25201W        W45481  11.403  12.969  12.118  0.0357  0.0081  0.0874
25202W        W45482   7.559  16.746   1.559 -0.0662 -0.3545 -0.1614
25203W        W45483   0.869   0.460   1.376 -0.1189  0.1960  0.1375
25204W        W45484  10.748   0.956   1.014 -0.4301  0.0283 -0.2891
25205W        W45485  12.996  14.913   5.067 -0.1144 -0.1609 -0.3221
25206W        W45486   1.057   3.583  16.436  0.1456  0.0461  0.2322
25207W        W45487   2.293  15.078   3.777 -0.1905  0.0881 -0.3020
25208W        W45488  13.587   5.096  15.528  0.1968 -0.0680 -0.4119
25209W        W45489  10.636  15.232  16.953  0.0003  0.2492  0.0300
25210W        W45490   0.628  15.746  14.375 -0.0562 -0.0247 -0.1958
25211W        W45491   4.393  12.808   3.730  0.1182 -0.1277  0.0063
25212W        W45492   2.627   5.750  12.539  0.0724 -0.1770 -0.0680
25213W        W45493   4.558  10.492  16.090 -0.0681 -0.3045 -0.0468
25214W        W45494   3.943  17.718   3.947  0.2416 -0.0358  0.2253
25215W        W45495   3.951  15.827  16.836  0.2739 -0.1085 -0.2240
25216W        W45496  11.928   6.306  16.970  0.0399  0.0327  0.0614
25217W        W45497   1.387   7.278  15.949  0.0574 -0.1391  0.4158
25218W        W45498   6.234   0.023   0.079 -0.0983  0.0451 -0.1441
25219W        W45499   2.351   6.877   1.023  0.0660 -0.1894 -0.3767
25220W        W45500  11.796  13.178   3.446 -0.0762 -0.0125 -0.0976
25221W        W45501   1.636   3.385  12.896 -0.3781  0.0520 -0.1992
25222W        W45502  16.040  13.866  12.877 -0.1795 -0.0412 -0.0631
25223W        W45503   6.631   2.222  15.711  0.0585 -0.0214  0.0270
25224W        W45504  14.385   0.129   3.718 -0.3472  0.0479  0.0345
25225W        W45505  13.421  11.424  15.380  0.2379  0.2280 -0.2534
25226W        W45506   5.134   9.992   0.768 -0.0597 -0.1418  0.0895
25227W        W45507   0.035  13.389  13.502 -0.0277 -0.0393 -0.0194
25228W        W45508   0.992  16.704   4.912  0.0658  0.3082 -0.1310
25229W        W45509  13.685   5.514  16.052 -0.1381 -0.0518 -0.2450
25230W        W45510   7.545  15.899   3.084  0.0402 -0.2548 -0.0555
25231W        W45511   2.956  15.898  15.432  0.1326  0.0674  0.2206
25232W        W45512  15.505   6.912   0.564 -0.2610 -0.1118  0.1873
25233W        W45513   9.122  12.567   0.049 -0.0699  0.1034  0.2855
25234W        W45514  13.082  12.306   3.509  0.2018 -0.0293 -0.0989
25235W        W45515   7.005   1.865   0.913  0.1225  0.0760 -0.2926
25236W        W45516  15.170   5.261  13.865  0.1745  0.1019 -0.1105
25237W        W45517  17.007   4.204  14.958  0.0688 -0.1035 -0.0360
25238W        W45518   6.826   2.397  13.446 -0.1644 -0.0823  0.3105
25239W        W45519  15.662  14.243  12.356 -0.1379  0.0999  0.1891
25240W        W45520  14.314   2.239  13.833 -0.2369 -0.0310  0.1602
25241W        W45521   7.503  15.362  13.778 -0.1335 -0.2458  0.2633
25242W        W45522  10.977   5.361   0.919  0.0931 -0.0883 -0.2575
25243W        W45523   9.654  11.605  13.102 -0.0891 -0.1927  0.1931
25244W        W45524   3.431  14.489   0.142 -0.0956 -0.2784  0.0732
25245W        W45525   9.330   6.976   2.892  0.0421 -0.2007  0.0735
25246W        W45526  11.208   9.575  13.204 -0.0596  0.1367  0.1481
25247W        W45527  14.786   0.941   3.888  0.2288 -0.0267  0.2062
25248W        W45528   9.322   1.515   0.438  0.0137  0.5073  0.1793
25249W        W45529  16.546  14.994   3.747 -0.2410  0.0006 -0.1720
25250W        W45530   2.934  11.816   3.813  0.0403 -0.2602  0.0215
25251W        W45531   9.568   7.381   0.544  0.1459 -0.2405  0.3524
25252W        W45532   9.786   4.136  12.140 -0.0501  0.1740  0.3135
25253W        W45533   0.188   7.142  15.210 -0.2157 -0.0923 -0.2819
25254W        W45534   2.284  14.998   2.029 -0.1513 -0.5485 -0.2010
25255W        W45535  13.759   0.160  15.589 -0.0499 -0.0113 -0.2229
25256W        W45536   5.621   7.040   1.184  0.0159  0.3520 -0.2363
25257W        W45537   7.878   2.427   1.577  0.0748 -0.0840  0.0093
25258W        W45538   6.413   6.528  12.151 -0.3595 -0.2076  0.0932
25259W        W45539   6.823   0.151   1.702  0.2057 -0.1411 -0.0530
25260W        W45540   1.887  12.870   4.690  0.1753  0.2398  0.3591
25261W        W45541  13.259  13.404   0.612  0.4638 -0.2538 -0.0821
25262W        W45542  13.844   3.704  14.731  0.0050  0.1340 -0.1644
25263W        W45543   6.296   2.780   1.822  0.1990  0.2389 -0.1290
25264W        W45544  14.831   4.550  14.465 -0.1624 -0.0541  0.1523
25265W        W45545   3.215   8.140  15.973 -0.0611 -0.0743  0.1587
25266W        W45546  13.586   2.575  12.467 -0.0622  0.1794 -0.0338
25267W        W45547  12.633   9.720   4.841 -0.3176  0.0764 -0.0957
25268W        W45548  15.108   8.694   2.046 -0.1747  0.0789 -0.2109
25269W        W45549  16.879   0.623   1.227 -0.2003  0.0454 -0.1654
25270W        W45550   4.552   6.848   0.975 -0.3219 -0.1382 -0.0919
25271W        W45551  15.538   8.236   5.237  0.2997  0.1379  0.2970
25272W        W45552   1.066   3.862   4.538 -0.0010  0.0039 -0.1910
25273W        W45553   7.075  14.446  15.411  0.3150 -0.1640 -0.1653
25274W        W45554  10.623   7.279  15.592  0.2367  0.1762 -0.0553
25275W        W45555  16.749  10.766   0.531 -0.0629 -0.2724 -0.0748
25276W        W45556  11.131   4.889  13.970 -0.0550 -0.0828  0.1046
25277W        W45557   9.940   8.518  16.923 -0.3966  0.0932 -0.0826
25278W        W45558  12.234   1.529   2.102 -0.3663  0.3688 -0.0028
25279W        W45559   6.285  14.995   1.127  0.0623  0.0310  0.1241
25280W        W45560   3.364   1.063  11.314 -0.2052 -0.1538  0.0547
25281W        W45561  17.606   3.883  13.977  0.0670  0.3861  0.1760
25282W        W45562   8.118  13.167  15.891 -0.2383 -0.1089 -0.2061
25283W        W45563  13.498   9.825   0.319  0.0507  0.0875  0.0359
25284W        W45564  12.810  14.110   3.354  0.1643  0.0409 -0.3145
25285W        W45565  16.321   3.068  13.153  0.2840 -0.0810  0.0914
25286W        W45566  14.063   5.121  14.179  0.2921  0.0771 -0.1381
25287W        W45567   6.942   9.364   3.088 -0.1431  0.0796 -0.2497
25288W        W45568   2.433  12.005  13.172 -0.0936 -0.3161 -0.0857
25289W        W45569  11.995   5.544  16.886 -0.1041  0.2743  0.0188
25290W        W45570   7.242   0.414   1.517  0.1048 -0.1997 -0.1213
25291W        W45571  17.063   9.309   0.351  0.0837 -0.2137  0.0077
25292W        W45572   5.359   5.389  16.473  0.3770  0.1076  0.2030
25293W        W45573   5.609   1.286   0.507 -0.1284  0.1504  0.0693
25294W        W45574   7.970   4.765   4.237 -0.0971  0.1407  0.0747
25295W        W45575   6.897   4.603  15.356  0.3121  0.1832  0.2862
25296W        W45576   1.334   6.072  16.802 -0.0308  0.0716 -0.0974
25297W        W45577  15.239  12.149   0.919 -0.1970 -0.1016 -0.1096
25298W        W45578   5.348  14.032  12.501  0.0244  0.2648  0.4090
25299W        W45579   5.360  10.734   2.342 -0.0876  0.0183  0.0504
25300W        W45580   6.084  11.386   2.173 -0.1342 -0.1652 -0.1158
25301W        W45581   5.762   8.224  15.081  0.3185  0.0905  0.2819
25302W        W45582   3.369   1.424   5.075  0.0045  0.1774  0.1434
25303W        W45583   4.284  12.407  14.336  0.0128  0.1759 -0.2949
25304W        W45584   4.117  13.738   4.678  0.1290  0.2405 -0.2316
25305W        W45585   1.074   9.422   2.044  0.0094  0.1285  0.0776
25306W        W45586   7.594   6.147   0.730  0.0806  0.0719 -0.0312
25307W        W45587   8.269   8.830   1.184  0.1477 -0.1152 -0.4820
25308W        W45588   6.577   0.958  13.177  0.0489  0.1997 -0.0313
25309W        W45589   5.312   7.641  12.690  0.1843  0.1603 -0.3099
25310W        W45590   1.644  13.971  12.622 -0.0758 -0.0644  0.1171
25311W        W45591  12.991  17.281   2.948 -0.0864  0.0144  0.0091
25312W        W45592   6.627  14.070   2.938  0.1472 -0.1593  0.0470
25313W        W45593   0.389   0.641  14.516  0.1164 -0.2504  0.0871
25314W        W45594  11.197   4.011   0.646 -0.0402  0.1492 -0.0010
25315W        W45595  12.590   6.815   1.000 -0.0697 -0.0105 -0.2922
25316W        W45596  14.641  13.867  16.006 -0.0531 -0.0224  0.0240
25317W        W45597   6.649   6.188  15.597 -0.1982 -0.1016  0.2104
25318W        W45598   3.176   2.767  14.641  0.1702 -0.1610  0.2594
25319W        W45599   6.537   7.209  13.471 -0.0700 -0.1639  0.3466
25320W        W45600   0.752   6.096  14.427 -0.2576 -0.1928  0.1004
25321W        W45601  12.784   0.636  14.735 -0.0069  0.1636  0.0743
25322W        W45602  12.362   5.700   0.966  0.2037 -0.0173  0.0476
25323W        W45603   4.916   5.751   3.944 -0.1610 -0.1319  0.0620
25324W        W45604   0.946  14.599  13.743 -0.5187  0.2215 -0.0936
25325W        W45605  17.711   6.668  13.372 -0.2221  0.1207  0.2125
25326W        W45606   7.221   7.645  15.155  0.2625 -0.1324 -0.1797
25327W        W45607  11.766  10.685   2.741  0.1108  0.2219  0.1031
25328W        W45608   7.204   6.739  15.022 -0.1018  0.1457 -0.0631
25329W        W45609  10.304  12.245  16.341 -0.0243  0.1430  0.0165
25330W        W45610  14.267  14.580  15.503 -0.2861  0.1038 -0.2071
25331W        W45611  10.011   5.303  14.387 -0.1695  0.0001  0.0680
25332W        W45612  15.235   4.031  16.071 -0.1604  0.2520  0.4203
25333W        W45613  12.346  17.353  12.470  0.2975  0.1636 -0.0028
25334W        W45614   7.966  13.083   1.540  0.0177 -0.1826 -0.1601
25335W        W45615  15.459  17.684  15.248  0.0150 -0.1639 -0.2287
25336W        W45616   1.147   5.063   1.952  0.3211 -0.1937 -0.2714
25337W        W45617   6.412   6.876   4.023 -0.3030  0.2850  0.0854
25338W        W45618   3.885  17.058   5.064  0.3957 -0.0398 -0.1018
25339W        W45619  16.729   4.183   0.896  0.0065 -0.0623 -0.1854
25340W        W45620  16.491  11.131  13.649  0.2786  0.0398  0.0946
25341W        W45621  12.754  13.909   2.934 -0.0556  0.0106 -0.2378
25342W        W45622   8.050  10.413  12.981  0.1728 -0.3508  0.3910
25343W        W45623   0.614  12.829   4.039  0.0695 -0.0515 -0.0519
25344W        W45624  13.257   5.395   0.092 -0.1861 -0.1199  0.3861
25345W        W45625  17.707  15.234  15.720  0.1109  0.1234  0.1660
25346W        W45626   6.396   3.539   0.245 -0.0725  0.3336 -0.1435
25347W        W45627   8.823   7.542  15.602 -0.0313 -0.0049  0.1766
25348W        W45628  14.648  16.953   1.491 -0.2479  0.1502 -0.0944
25349W        W45629  13.204  14.267  14.483  0.1259 -0.2496 -0.0681
25350W        W45630  10.557   2.001   1.738  0.1751  0.2108 -0.2461
25351W        W45631  17.523   6.513  15.344 -0.1726  0.4068  0.3918
25352W        W45632  13.024  17.495  16.906  0.0944  0.1660 -0.1116
25353W        W45633   6.134   6.898  13.858  0.3794  0.0537 -0.2007
25354W        W45634  12.960   0.100   2.779 -0.0002  0.0906 -0.1511
25355W        W45635  11.011   6.792  14.705 -0.2776  0.0213  0.2873
25356W        W45636   2.824   6.420   0.458 -0.1357 -0.0140  0.3185
25357W        W45637   7.786  11.103   3.276 -0.2536 -0.2007  0.0714
25358W        W45638  13.963   1.293  15.293 -0.1787 -0.0090  0.0647
25359W        W45639   3.055   0.464  15.481  0.0898 -0.0408 -0.0067
25360W        W45640  16.728   9.602  14.331  0.0502  0.0814  0.1234
25361W        W45641  16.532  16.704  16.254  0.2654  0.2550 -0.0986
25362W        W45642  11.417   5.581   0.946  0.1370  0.0171  0.0268
25363W        W45643  14.730   4.947   3.387  0.3297 -0.1671 -0.1382
25364W        W45644  11.452   1.435   4.640 -0.1172  0.1117 -0.0881
25365W        W45645  17.147  15.317  16.936 -0.0951  0.0109  0.0773
25366W        W45646  10.549   6.339  16.848 -0.2523  0.5098 -0.1751
25367W        W45647  11.461   7.253   4.807 -0.1135 -0.1082 -0.1690
25368W        W45648   1.025  17.622  14.481  0.0452  0.0576 -0.0607
25369W        W45649  14.909  11.446   2.849  0.0695 -0.0091  0.1634
25370W        W45650   1.040   7.980   5.185  0.0522 -0.1463  0.3043
25371W        W45651  11.285  17.377   5.017 -0.0254 -0.1186 -0.0017
25372W        W45652   1.099  12.104   3.855 -0.0560 -0.0834  0.1922
25373W        W45653   4.179  13.498   0.965 -0.1047  0.0799 -0.0727
25374W        W45654  13.544   2.861  14.317  0.0919 -0.0157 -0.0498
25375W        W45655   4.842   6.646   4.214 -0.1127  0.1091  0.0408
25376W        W45656   0.242   7.242  13.617  0.0338 -0.0405 -0.0945
25377W        W45657   1.770   3.059   3.172 -0.0123  0.0980  0.1179
25378W        W45658  14.194   1.668   2.405 -0.0434 -0.1352 -0.0206
25379W        W45659   7.424   2.663   3.301  0.2412  0.3992  0.0548
25380W        W45660   9.941   2.734  13.576  0.0285  0.2436  0.1062
25381W        W45661   5.110  13.275  16.440  0.4764 -0.2125 -0.0904
25382W        W45662   8.238   3.103  15.315 -0.1298  0.2244 -0.1086
25383W        W45663   1.527   3.636  15.237  0.1100 -0.1011 -0.1446
25384W        W45664  14.305   1.642  14.501 -0.2286 -0.0668  0.0551
25385W        W45665   5.975   3.046  12.340 -0.0943 -0.3518 -0.1226
25386W        W45666   8.217   9.941  14.933  0.1244  0.0300 -0.0319
25387W        W45667   7.430  17.605  16.826 -0.0437  0.2660  0.0224
25388W        W45668   9.894  10.675  13.374 -0.1922 -0.0748  0.2471
25389W        W45669   0.986   6.772  15.305 -0.0998 -0.2017 -0.1689
25390W        W45670   4.943   3.816  13.389 -0.0654 -0.0017  0.0090
25391W        W45671  13.063  10.648   4.839  0.0829  0.0638  0.1004
25392W        W45672  17.021  12.461  12.283 -0.4296  0.0172  0.0260
25393W        W45673  16.496   1.587  14.330 -0.1610 -0.0004 -0.1324
25394W        W45674  12.909   4.729  12.780 -0.0857 -0.1270 -0.2128
25395W        W45675  13.360  16.614   1.817  0.0690  0.2801  0.1477
25396W        W45676  16.589  14.349  16.137 -0.1430 -0.0834  0.0370
25397W        W45677  16.457  16.951  13.000 -0.0339 -0.1507 -0.1582
25398W        W45678   1.941  15.904  16.718 -0.3296  0.0235  0.0103
25399W        W45679   6.569  16.184  12.579 -0.1713 -0.3822  0.0915
25400W        W45680   3.260  17.622  13.874 -0.0019 -0.3006 -0.0326
25401W        W45681  15.496   0.988   1.179  0.0428 -0.0823 -0.0467
25402W        W45682   3.512   1.430  14.609 -0.2492  0.1604  0.2306
25403W        W45683  17.427  12.692   1.777  0.1528  0.1222 -0.0965
25404W        W45684   1.384  13.304  16.876  0.3336  0.3030  0.0755
25405W        W45685   6.011  15.985  16.051 -0.1956  0.0717  0.0534
25406W        W45686   2.954  10.632   4.826  0.1045 -0.3372  0.0501
25407W        W45687  17.520  10.514   0.602  0.1271 -0.1811 -0.0631
25408W        W45688  13.064   2.198   3.909 -0.2034  0.1540 -0.0494
25409W        W45689   7.977   5.239  15.255 -0.1112  0.1036 -0.1791
25410W        W45690  16.323  15.748   1.119  0.3166 -0.0531  0.0835
25411W        W45691  14.207   1.022  15.603 -0.0079  0.0782  0.0203
25412W        W45692  10.028   1.805  15.088  0.3712 -0.0748  0.2506
25413W        W45693   6.970   7.883  12.283 -0.1897 -0.1534  0.1165
25414W        W45694  14.929  13.033  12.312 -0.2574  0.0222 -0.2159
25415W        W45695  13.314   5.920  16.943  0.2011  0.0912 -0.0993
25416W        W45696  16.566   1.120  16.755  0.0379  0.1340  0.2019
25417W        W45697   9.031   3.348  12.770  0.1252 -0.0827 -0.2609
25418W        W45698  17.446  14.206   2.712 -0.0984  0.1270  0.2280
25419W        W45699  17.389   5.556   3.844 -0.3640 -0.2701  0.3251
25420W        W45700   8.611  13.335   3.678 -0.3988 -0.1925 -0.0526
25421W        W45701   5.116   9.093  15.417  0.3906  0.1052 -0.0621
25422W        W45702  10.573   3.728   4.091  0.2039 -0.0837 -0.3026
25423W        W45703  16.607   8.204   3.213 -0.1227  0.2326 -0.2004
25424W        W45704  17.008  10.806   4.323  0.1935  0.2678  0.3540
25425W        W45705   8.474   6.040  15.728  0.2276  0.0565  0.1900
25426W        W45706   8.715  12.760   4.340 -0.2286  0.2725  0.4271
25427W        W45707  15.893  10.467  15.155 -0.1153  0.0504  0.0443
25428W        W45708  12.993  15.649  14.457 -0.0919  0.0390  0.1678
25429W        W45709  15.785   8.246  15.614 -0.2190  0.0989  0.0254
25430W        W45710  17.315   5.102   0.845 -0.2353  0.1266 -0.3724
25431W        W45711   8.169  14.500   2.413 -0.0976 -0.0732  0.2259
25432W        W45712   7.331  15.371   3.939 -0.4439  0.1523 -0.0602
25433W        W45713  11.468   1.912   2.376 -0.2635 -0.0283  0.0457
25434W        W45714   9.864   3.024   5.562  0.1172 -0.1930 -0.0129
25435W        W45715   2.505  17.087   5.987  0.0086  0.1084  0.3134
25436W        W45716   9.300   8.891   2.512  0.3639  0.1097 -0.2389
25437W        W45717   9.466  14.756  11.835 -0.0098  0.0380  0.0943
25438W        W45718  13.527   3.040   2.137 -0.0203 -0.0064  0.0705
25439W        W45719  15.797   8.825   2.634  0.1834 -0.1650  0.1238
25440W        W45720   7.805   6.238   5.189  0.1682  0.0869 -0.2590
25441W        W45721   7.539   3.549   4.455 -0.1620  0.0885  0.0295
25442W        W45722   3.354   8.295   1.506 -0.2630 -0.0372  0.1684
25443W        W45723   2.245   1.371   2.778 -0.1893  0.0635  0.0046
25444W        W45724   3.723   7.711   1.967  0.1725  0.2624 -0.2496
25445W        W45725   1.311  15.906   0.799 -0.0658  0.1973 -0.2091
25446W        W45726   0.812  13.454  12.874  0.1950  0.2459  0.1950
25447W        W45727   3.123   2.517  13.639 -0.0745  0.2198  0.0487
25448W        W45728  10.825  11.921  16.531 -0.1392  0.0563 -0.1726
25449W        W45729   3.649   4.399  15.616  0.1670  0.0510 -0.1296
25450W        W45730  13.211   6.395   2.799  0.2450 -0.0661 -0.1293
25451W        W45731  14.616  10.533   2.354 -0.2657  0.0517 -0.2738
25452W        W45732   9.046  16.068   4.664  0.1645  0.1986 -0.0886
25453W        W45733  14.347   5.469  16.466  0.0793 -0.0843  0.0311
25454W        W45734   5.508   5.372   4.575  0.0781  0.0429  0.2651
25455W        W45735   5.523  17.021  13.573 -0.4246  0.2191 -0.5282
25456W        W45736   0.744   5.887   4.165 -0.1601 -0.3782 -0.1041
25457W        W45737  17.122  15.747   5.088 -0.1131  0.2134 -0.0777
25458W        W45738   8.855   5.487  14.866 -0.1627  0.1766  0.1273
25459W        W45739   5.698   6.510   4.749 -0.2087 -0.1076 -0.0900
25460W        W45740   4.720   9.240   4.553  0.3608 -0.0176 -0.1062
25461W        W45741   4.548   0.085   5.118 -0.0500 -0.0001  0.0017
25462W        W45742   1.827   7.862  16.552  0.1649  0.0491 -0.0435
25463W        W45743  11.431  16.231  13.255  0.1340  0.0996 -0.1038
25464W        W45744   4.977  11.918  16.168  0.1109  0.1989 -0.0711
25465W        W45745   1.722   7.481  12.380 -0.0581 -0.1066 -0.0166
25466W        W45746   5.764   5.858   4.749  0.0777  0.1779 -0.1040
25467W        W45747   1.503   2.045   1.319 -0.0932  0.2000 -0.1591
25468W        W45748  15.274   3.244  15.547 -0.1056 -0.3019  0.1433
25469W        W45749  16.977   6.063   0.225  0.1473 -0.0421 -0.1004
25470W        W45750   2.142   3.527   3.485 -0.2218 -0.1839  0.0680
25471W        W45751  11.222  11.903   1.204 -0.1459 -0.0649 -0.0920
25472W        W45752  10.762  15.397   3.466 -0.3012  0.3382  0.1353
25473W        W45753  16.327   5.874   2.142 -0.1567  0.0530 -0.1465
25474W        W45754  13.419   6.217  14.127  0.1157  0.1714 -0.0421
25475W        W45755   1.147  11.209  16.776  0.1210 -0.2387 -0.0572
25476W        W45756  15.406   8.784  16.831 -0.1999 -0.1699  0.0634
25477W        W45757  11.766   3.724   1.278  0.1467  0.0951 -0.0045
25478W        W45758   1.888   6.402   3.791  0.0446 -0.0504  0.1793
25479W        W45759   8.711  15.984   0.106  0.0945  0.1478  0.2507
25480W        W45760   0.257   7.926  14.782  0.0225 -0.1111  0.0164
25481W        W45761  13.018   4.300   4.457  0.0111  0.0268 -0.0304
25482W        W45762  12.389   6.922   1.447  0.4159  0.0857  0.0473
25483W        W45763  16.715  12.134   3.299 -0.0653 -0.0139  0.0952
25484W        W45764   5.637   0.343  14.646  0.0689  0.1729 -0.0021
25485W        W45765   9.722  12.680   0.070  0.0496  0.1105 -0.0255
25486W        W45766   0.091  16.193  13.266 -0.2098  0.1273 -0.0013
25487W        W45767   7.219   0.630   3.209 -0.1642  0.0961 -0.0684
25488W        W45768  10.159  10.841  12.975 -0.0997  0.0468 -0.2607
25489W        W45769  10.326   7.822  15.068  0.0964 -0.0574  0.0728
25490W        W45770   2.416   9.841  16.226 -0.2354 -0.2235 -0.2065
25491W        W45771   0.954  14.542   4.844  0.1197  0.1425  0.0451
25492W        W45772   1.666   7.399  12.997 -0.0269 -0.2242  0.3813
25493W        W45773   2.857  17.196  13.412  0.0411  0.1186  0.1022
25494W        W45774  17.624   3.893   3.333  0.0031  0.1604  0.0347
25495W        W45775   6.456   4.567  15.587 -0.0620 -0.1959  0.4487
25496W        W45776   2.322   1.094  14.947 -0.0817 -0.0989 -0.3354
25497W        W45777  13.531   7.640  16.581  0.2962  0.2054 -0.2513
25498W        W45778  15.745  10.064  15.399 -0.0873 -0.0795 -0.3794
25499W        W45779  16.073   3.664  14.131  0.0129  0.1149 -0.2742
25500W        W45780  17.130   1.197  15.410  0.1074  0.1340  0.0218
25501W        W45781   0.648  10.806  16.448 -0.1141  0.2190  0.1823
25502W        W45782   2.031   4.624   3.724 -0.2447  0.2343 -0.2582
25503W        W45783   9.010   7.366   4.289 -0.0266 -0.1551 -0.1534
25504W        W45784  17.041   8.764  13.825  0.0303  0.0344  0.1277
25505W        W45785   2.683  12.792  16.097  0.2306 -0.2400  0.1523
25506W        W45786   5.690  10.270  14.816 -0.1455  0.2055  0.4229
25507W        W45787  16.597   3.916   3.815 -0.3406  0.1850  0.0751
25508W        W45788   8.862  11.566  14.660  0.1850  0.0716  0.1304
25509W        W45789   8.489  12.230   2.383 -0.0165  0.0089 -0.0899
25510W        W45790  14.357   1.189   2.380  0.1396 -0.2256  0.0263
25511W        W45791  15.622   9.868  13.503 -0.1699  0.5066  0.2224
25512W        W45792   3.398   6.410  14.422 -0.0118 -0.1021 -0.1503
25513W        W45793   8.619   3.120   3.921  0.1916 -0.2687 -0.1272
25514W        W45794  16.020  15.787   3.217 -0.3336 -0.3267  0.1208
25515W        W45795   6.632   9.680   2.940 -0.0825 -0.1747 -0.1538
25516W        W45796  10.785  16.646  14.174  0.2439 -0.1910 -0.1663
25517W        W45797   0.227   3.212   3.040  0.0886 -0.2211 -0.1393
25518W        W45798  10.563  10.977  14.759  0.1682  0.2432  0.0296
25519W        W45799  10.272  15.582  16.253 -0.1970  0.2642 -0.1429
25520W        W45800  12.115  17.036  16.590  0.0713 -0.5109 -0.3514
25521W        W45801   1.983   8.430   4.447 -0.1230  0.1017 -0.1163
25522W        W45802  13.367  15.552   2.278 -0.3737 -0.0064  0.1749
25523W        W45803   8.872  12.408  15.944 -0.0680 -0.1136 -0.1360
25524W        W45804  17.237   4.186  16.967  0.0531  0.0268  0.2514
25525W        W45805  10.665   8.748  16.304  0.0092 -0.0732  0.1185
25526W        W45806   1.724   5.833  16.161 -0.0350  0.2025  0.0639
25527W        W45807   9.723   6.117   3.393 -0.1511 -0.0256 -0.2084
25528W        W45808  12.305   2.628  15.045  0.1678 -0.0550  0.0746
25529W        W45809  10.308   9.971   0.251 -0.1439  0.1422  0.0615
25530W        W45810   3.754   9.408   3.121  0.2216  0.0673 -0.3171
25531W        W45811  16.304   1.280  13.203 -0.0355  0.1008 -0.2938
25532W        W45812   2.473  14.423   0.258  0.2029  0.0407  0.3279
25533W        W45813   3.860   7.286  16.671 -0.1840 -0.1205  0.2509
25534W        W45814   7.403  12.180   2.711  0.1110 -0.1394  0.1559
25535W        W45815   1.027   5.561   1.089  0.1498 -0.1195 -0.1465
25536W        W45816  14.570  16.894  13.263  0.0874  0.0554 -0.0709
25537W        W45817   0.406  17.257   3.123  0.2196 -0.3690  0.2227
25538W        W45818   9.204  14.571   1.418  0.0271 -0.3741  0.0044
25539W        W45819   6.950  12.212   2.301  0.5003  0.0742 -0.2257
25540W        W45820   9.901  12.002  16.792 -0.1940  0.2025  0.0107
25541W        W45821  10.459   5.624   0.397 -0.0915  0.1328 -0.1395
25542W        W45822  17.657   0.691  16.136 -0.0043 -0.0859 -0.2711
25543W        W45823   9.435  17.599  15.591  0.0820 -0.2109  0.2468
25544W        W45824  10.222  14.628  15.743  0.0572 -0.1707  0.2206
25545W        W45825  13.123   8.469   4.065 -0.0400  0.0265  0.1515
25546W        W45826   3.405   2.758  12.719 -0.0072  0.2127  0.0636
25547W        W45827   8.106   9.351   0.734  0.1437 -0.2386  0.0430
25548W        W45828  14.663  14.070   4.575 -0.0730 -0.0614  0.2335
25549W        W45829  11.356  15.628  15.795  0.0832  0.1159 -0.0084
25550W        W45830   7.650   5.924  14.125  0.0988 -0.0079  0.0903
25551W        W45831  12.380   7.515   0.203  0.1910 -0.1087 -0.0752
25552W        W45832  10.265  16.320  12.182 -0.3582 -0.1463 -0.0624
25553W        W45833  12.120  11.313  16.112  0.1085 -0.2284  0.0651
25554W        W45834   7.370   6.205   3.726 -0.4120  0.1729  0.1744
25555W        W45835   2.980  13.866   3.709  0.2174  0.0083 -0.2026
25556W        W45836   5.326  15.663  16.571 -0.0830 -0.3561 -0.4153
25557W        W45837  15.201   7.244  14.480 -0.1471  0.0143 -0.0841
25558W        W45838   7.302  11.225   2.521 -0.2456  0.0703 -0.0172
25559W        W45839   8.346   9.986  15.496 -0.2279 -0.1306  0.0013
25560W        W45840   4.969  15.548  15.019 -0.0056 -0.1511  0.0564
25561W        W45841  17.480   1.350   2.300 -0.1750 -0.1887  0.0746
25562W        W45842   6.277   0.599  16.973 -0.0881  0.0253  0.1703
25563W        W45843  10.877  12.349  13.478  0.0493  0.1758  0.2617
25564W        W45844   4.849   7.344  15.296  0.1291  0.1518 -0.0431
25565W        W45845   2.331  10.858  14.659  0.2373 -0.0479  0.4095
25566W        W45846  17.139   7.672   6.003 -0.2934 -0.1260 -0.0756
25567W        W45847  17.404   4.912  12.312  0.2398  0.1038  0.1031
25568W        W45848   3.751   1.863  12.295 -0.3421 -0.3134 -0.1147
25569W        W45849  12.451   4.478  12.726 -0.0368 -0.1183  0.3205
25570W        W45850   2.946   8.286   1.069 -0.2759  0.3422 -0.1801
25571W        W45851   8.226  13.178   5.377  0.3365  0.0242  0.3903
25572W        W45852  10.896   6.947  12.818 -0.0029  0.0716 -0.0463
25573W        W45853  11.765  12.173  11.732 -0.1415  0.0461 -0.1642
25574W        W45854   6.732  11.194  15.015 -0.0915 -0.0133  0.2326
25575W        W45855  15.458  17.075   3.152  0.2549 -0.3288 -0.0711
25576W        W45856  16.806  17.643   3.680  0.2450 -0.0126  0.0459
25577W        W45857  15.343  10.633  16.881 -0.2029  0.0641  0.3499
25578W        W45858   1.633   5.343  16.065 -0.0395 -0.0090  0.0429
25579W        W45859  10.164   9.837  14.270 -0.1362  0.4333 -0.1844
25580W        W45860   0.247   7.280  15.692  0.1944  0.0460 -0.0432
25581W        W45861  11.425   0.588  12.405  0.0915  0.1336  0.1024
25582W        W45862  13.384  13.757   2.203 -0.1062  0.0752 -0.1079
25583W        W45863   3.396   8.332  12.250 -0.0861  0.2377 -0.0438
25584W        W45864  10.790   4.497  15.334 -0.0474  0.0739  0.1961
25585W        W45865  14.942  14.077   4.030  0.0017  0.1329 -0.1411
25586W        W45866  13.805   9.784  13.010  0.0259 -0.3909  0.2154
25587W        W45867   9.514   8.308   0.773  0.0247  0.2645 -0.0417
25588W        W45868  13.605   3.025   0.071 -0.1928  0.0994 -0.4032
25589W        W45869  17.008  16.746   1.782 -0.0547  0.0738  0.0976
25590W        W45870   7.851  13.368  14.607 -0.2097 -0.1381  0.1027
25591W        W45871   2.160   8.270  15.299  0.1097  0.1648 -0.2891
25592W        W45872  13.253  13.404  11.130  0.0703  0.1112  0.2441
25593W        W45873  13.124   2.957  13.304  0.0975 -0.1572 -0.1840
25594W        W45874  15.731   0.495  15.864 -0.0115 -0.1650  0.4411
25595W        W45875  15.942  12.393   5.300 -0.0914 -0.0129  0.1481
25596W        W45876   1.866  15.837   0.405  0.1896  0.0389  0.2846
25597W        W45877   6.395  17.632   3.292  0.0689 -0.0815 -0.1112
25598W        W45878   4.047  13.555  15.521  0.4487 -0.2376  0.3245
25599W        W45879   7.645   9.321   0.901  0.0359 -0.0674  0.1409
25600W        W45880   1.298   5.427   0.550 -0.1615  0.0415 -0.0416
25601W        W45881   6.058  12.545  12.259  0.1108  0.0254  0.1819
25602W        W45882   3.378   7.371   1.747  0.1432  0.0635 -0.0706
25603W        W45883   8.938   0.192   3.896  0.1526 -0.4184  0.0866
25604W        W45884  11.727  16.562  13.422  0.1071  0.0777 -0.2870
25605W        W45885   4.837   4.733   3.085  0.0596  0.1635  0.2350
25606W        W45886   3.111   8.522   3.760 -0.2492  0.0076 -0.0989
25607W        W45887   1.472   4.955   0.609 -0.3666  0.2109  0.0007
25608W        W45888   4.536   0.606   0.475 -0.0212  0.0454 -0.0025
25609W        W45889   1.485  14.408   0.539  0.0363 -0.0656 -0.0654
25610W        W45890  12.206  10.683  13.009  0.1439  0.0704 -0.0942
25611W        W45891   4.259   6.851   3.247 -0.0676  0.0508 -0.1800
25612W        W45892   5.472   8.977  15.808 -0.2780  0.1033  0.0909
25613W        W45893   6.602  15.972  15.781  0.1415  0.0873  0.3468
25614W        W45894  13.962   7.848  15.431  0.1139 -0.1446  0.1868
25615W        W45895  11.939   8.325   0.976  0.0663 -0.0625  0.2175
25616W        W45896   0.402   8.877  15.489 -0.1657  0.0105 -0.0305
25617W        W45897   1.347   3.912   3.331  0.2186 -0.0822 -0.1676
25618W        W45898  10.810  13.860   4.073  0.0047 -0.0297  0.1824
25619W        W45899   6.155  11.826  15.162 -0.1410  0.0773 -0.0803
25620W        W45900   6.146  16.775  15.862 -0.1687  0.4825 -0.1141
25621W        W45901  12.377   1.422   0.405 -0.2761  0.1323  0.0725
25622W        W45902   8.091   7.678   2.202  0.4353  0.0738 -0.0544
25623W        W45903  13.946   7.917   3.963 -0.1252  0.1245 -0.3698
25624W        W45904   3.375   0.005   1.880 -0.0119  0.0129 -0.2018
25625W        W45905   0.886   7.633   4.692 -0.0435 -0.4520  0.1280
25626W        W45906  11.498   4.126  13.640  0.2278 -0.2181 -0.1320
25627W        W45907  10.667  13.515  15.142  0.2281 -0.1970 -0.1588
25628W        W45908  15.217   2.124   3.424 -0.1471  0.0832 -0.0443
25629W        W45909   7.651  14.808   1.663  0.2721  0.1295  0.1402
25630W        W45910  15.948  15.489  14.998  0.1136 -0.3642  0.1001
25631W        W45911   5.242  16.123  15.562 -0.0034  0.0156  0.0629
25632W        W45912  14.880   0.820  16.506 -0.1973  0.1506  0.1053
25633W        W45913   2.137   1.955  14.607 -0.0121 -0.0304 -0.1246
25634W        W45914   9.693   5.852  16.802  0.2119 -0.0771  0.1841
25635W        W45915   8.663   5.643   0.056 -0.2789 -0.2422  0.0615
25636W        W45916  10.549   8.655  15.156  0.0131 -0.0234  0.0615
25637W        W45917  15.717   0.934   0.147  0.1161  0.0241 -0.3503
25638W        W45918  15.946   1.834   0.599 -0.1965 -0.1167  0.0665
25639W        W45919   9.144  11.781  13.237  0.0270 -0.3052  0.0027
25640W        W45920  12.561  12.682  14.708  0.1286 -0.1170  0.1838
25641W        W45921  14.361  12.973  16.365 -0.0830 -0.0456  0.0497
25642W        W45922  15.522  11.386   2.003  0.1381 -0.1774 -0.3650
25643W        W45923   6.790  13.006   0.088  0.2101 -0.0270  0.0987
25644W        W45924  13.195   8.779  14.903  0.0998 -0.3495 -0.1462
25645W        W45925   9.447   2.509   0.784 -0.0356  0.1826 -0.3418
25646W        W45926   9.117  13.214   3.631  0.0102 -0.1789  0.1022
25647W        W45927  10.862   3.885  13.541 -0.0809  0.1689 -0.3880
25648W        W45928   4.934   4.088  13.836 -0.1566  0.0099  0.1350
25649W        W45929  11.890  12.787  14.007  0.2519  0.0565 -0.0721
25650W        W45930  15.345  13.278  12.567  0.4522  0.2093  0.2878
25651W        W45931  13.559  13.162   4.712  0.2490  0.1586 -0.0788
25652W        W45932  15.723  16.362  16.842 -0.1588 -0.0509  0.1171
25653W        W45933  17.256  10.497  15.450  0.2680 -0.4009 -0.0074
25654W        W45934   2.553  17.309  12.983  0.0537  0.1302 -0.1383
25655W        W45935   2.699   5.630   1.617  0.0796  0.5954  0.0701
25656W        W45936  13.236  13.255   0.075 -0.2393  0.0158 -0.3403
25657W        W45937   3.748  16.830  12.528  0.1413 -0.0187 -0.2099
25658W        W45938  12.590   8.145  12.744 -0.0555  0.0983  0.0357
25659W        W45939   1.148   1.131   0.465 -0.0369  0.2561  0.0726
25660W        W45940  16.121   9.218   3.166  0.0276 -0.0465 -0.0151
25661W        W45941   4.815   2.009  12.352 -0.1656  0.0310  0.0134
25662W        W45942  16.059   7.870  13.196  0.0369 -0.2952  0.0555
25663W        W45943   7.608   2.806  15.817 -0.0418 -0.1208  0.1030
25664W        W45944   5.873   2.400  13.312 -0.0868  0.0501 -0.0583
25665W        W45945  12.755  16.265   2.788  0.3541  0.0729  0.2442
25666W        W45946   7.687  14.986  11.780 -0.0891  0.0334  0.0319
25667W        W45947   9.801   3.673   4.336 -0.1079 -0.1517  0.1047
25668W        W45948  11.105   1.321   3.582  0.1283 -0.0269 -0.3037
25669W        W45949  17.692  12.799   2.243  0.1279  0.2899  0.0227
25670W        W45950   1.562  14.397  13.045  0.1648 -0.0874 -0.0686
25671W        W45951  10.636   4.318  14.415  0.1998  0.2591  0.2689
25672W        W45952   0.452  15.740  15.036  0.0874  0.2048 -0.1262
25673W        W45953  13.205   2.342   4.785 -0.0324  0.0642  0.2354
25674W        W45954  16.897   4.348   3.785 -0.0339 -0.0401  0.1203
25675W        W45955   6.296   5.824  14.770 -0.1221 -0.2870  0.1025
25676W        W45956   9.815  15.396   2.619 -0.1135  0.2323 -0.1513
25677W        W45957   6.356  11.832   1.342  0.0140  0.0759 -0.0683
25678W        W45958   2.020  11.545   2.799 -0.1588  0.0152 -0.2817
25679W        W45959   9.191  13.830  15.139  0.3587 -0.1745 -0.0347
25680W        W45960  13.995   4.233   3.467  0.1590  0.0064 -0.2600
25681W        W45961  13.480   1.953  14.478  0.2147 -0.0087  0.0919
25682W        W45962   4.925   5.262  16.279  0.2109  0.1679  0.3109
25683W        W45963  14.838   8.381  13.375  0.0149  0.1037 -0.0473
25684W        W45964   2.771  16.100   0.697  0.3606 -0.3323  0.0756
25685W        W45965   9.872  14.344  13.250 -0.0338  0.2933  0.1521
25686W        W45966  17.127   0.865   3.548 -0.2720 -0.1832  0.2368
25687W        W45967   4.210   9.638   3.707  0.0848 -0.2538  0.1643
25688W        W45968  14.516   9.303  13.801  0.1268 -0.2384  0.0370
25689W        W45969   3.988   3.915  16.909  0.3140 -0.1014  0.0656
25690W        W45970  16.593  14.082   1.993  0.0692  0.1812 -0.0355
25691W        W45971   8.797  17.212  16.836 -0.2061  0.2977  0.1436
25692W        W45972   6.400  15.692  14.602  0.0822  0.1606  0.0005
25693W        W45973   8.421   2.180   4.377 -0.0578 -0.1552  0.0496
25694W        W45974  15.225  15.232   3.125 -0.0059  0.0073 -0.1036
25695W        W45975   4.128  12.650   4.601  0.1047  0.0399  0.1087
25696W        W45976   6.637  10.017   5.101  0.0631 -0.0696 -0.1230
25697W        W45977   1.156   9.198   5.171 -0.3441 -0.3773 -0.2127
25698W        W45978   1.444   9.584   4.439 -0.2155 -0.0825 -0.3877
25699W        W45979   1.125  15.682   3.435 -0.0435  0.2462  0.1009
25700W        W45980  16.865  16.970   0.531 -0.1480 -0.0465 -0.2277
25701W        W45981  11.058   7.689   0.265  0.0188  0.0191 -0.1498
25702W        W45982   1.985  12.058   1.139 -0.1075 -0.0757 -0.0475
25703W        W45983   2.163  11.628  15.005 -0.3541  0.0428 -0.1273
25704W        W45984  12.947   1.959  14.673 -0.3085  0.0859  0.0667
25705W        W45985  14.158   6.977  15.227  0.0352  0.2435  0.3721
25706W        W45986   7.631  10.146   4.022  0.2062  0.3115 -0.0328
25707W        W45987   7.341   7.416   0.405 -0.0499  0.1474  0.0758
25708W        W45988  11.284  14.200   0.860 -0.0956 -0.1024 -0.1204
25709W        W45989  13.863   9.487   1.737  0.2028 -0.1411  0.0987
25710W        W45990  14.338  13.319  14.600 -0.1463 -0.0436  0.3961
25711W        W45991  11.423   3.672   1.701  0.2065 -0.0268 -0.2195
25712W        W45992  16.988   6.661   4.665  0.0303  0.1403  0.1438
25713W        W45993  14.196   0.694   3.272 -0.3692  0.2603 -0.0023
25714W        W45994  10.573   9.337  13.969  0.2235 -0.0779 -0.1675
25715W        W45995   4.033  15.607  15.103 -0.2498  0.3176 -0.1224
25716W        W45996   0.189   1.556   3.304  0.0578  0.1493 -0.2067
25717W        W45997   9.354   5.243   4.318  0.1384  0.0503  0.3760
25718W        W45998  17.264   3.239   0.915 -0.4395 -0.3882  0.1761
25719W        W45999  15.067  10.226   4.188 -0.0201 -0.0051  0.1464
25720W        W46000   9.641   2.778   4.559  0.0232  0.1724 -0.1148
25721W        W46001   2.397   6.625   0.508  0.0871 -0.1093  0.1110
25722W        W46002  10.259   1.916  13.806 -0.0351 -0.0740  0.4521
25723W        W46003   6.574  13.202  12.714 -0.1152 -0.0280  0.0565
25724W        W46004  12.086  16.768   2.983  0.2385 -0.2530  0.0661
25725W        W46005  15.882   8.803   1.537 -0.0584 -0.0405  0.0136
25726W        W46006   6.060  17.503   0.943  0.3906  0.0264 -0.1879
25727W        W46007   8.932  15.446   2.545  0.0695  0.0486  0.1091
25728W        W46008   1.584   2.302  16.364 -0.0038  0.1307  0.0751
25729W        W46009   5.072  17.090   2.659  0.1646  0.2562  0.1032
25730W        W46010  10.307  10.653   1.730  0.3065 -0.2637  0.0351
25731W        W46011  10.437   9.089  16.563 -0.1934  0.2990 -0.2257
25732W        W46012   3.260   0.239   1.382 -0.2497 -0.2065 -0.1716
25733W        W46013   2.559  12.346   3.062 -0.0284  0.1909  0.1683
25734W        W46014   4.226   3.744   5.057 -0.2177 -0.0566  0.0019
25735W        W46015   4.688  12.778   2.053 -0.0709  0.1135  0.0195
25736W        W46016  16.951   6.235   0.731 -0.1480 -0.1689 -0.1336
25737W        W46017  10.772   1.302  12.181 -0.3140  0.0056  0.0333
25738W        W46018   7.534  17.723  12.926  0.0812 -0.1491 -0.0647
25739W        W46019   6.433   3.019   5.069  0.0011  0.1231 -0.2663
25740W        W46020   2.375   9.152   4.193  0.1319 -0.1863 -0.0468
25741W        W46021   3.115  10.189   4.811 -0.1555 -0.2052 -0.0492
25742W        W46022  13.091   1.924   2.066 -0.1404 -0.0114 -0.0864
25743W        W46023  16.808  11.334  11.182  0.2011 -0.0120 -0.0805
25744W        W46024  11.133  15.854   1.823  0.0931  0.1327 -0.0845
25745W        W46025   0.153   2.364  14.905  0.2087  0.1492 -0.3202
25746W        W46026  11.476  12.897   0.408 -0.0755  0.2124 -0.1576
25747W        W46027  13.651   6.779  14.332 -0.3316  0.1871  0.2503
25748W        W46028   6.338   4.007   0.500  0.1395  0.1369  0.1987
25749W        W46029   8.291  14.713   2.848 -0.0529 -0.1572 -0.0879
25750W        W46030   9.883  16.373   1.265 -0.0302 -0.2858  0.0489
25751W        W46031   8.119  15.949   1.180  0.1516  0.1172  0.2666
25752W        W46032   9.907  12.477  14.973  0.0102 -0.1933 -0.1102
25753W        W46033   9.260   9.951   3.165 -0.2158 -0.0517 -0.2084
25754W        W46034  16.440  14.075  14.143 -0.0155 -0.2864  0.2207
25755W        W46035  10.421   1.199  16.568 -0.1602 -0.2214  0.0751
25756W        W46036  10.694   1.279   0.495  0.1454  0.5251 -0.1228
25757W        W46037   2.832  14.957  12.498  0.2703 -0.1155 -0.0688
25758W        W46038  11.581   7.266   0.732  0.1308  0.1189  0.2066
25759W        W46039   4.103   6.841  13.863 -0.0933 -0.1362  0.0722
25760W        W46040   3.496   6.082   4.764 -0.4813 -0.0481 -0.1381
25761W        W46041   6.107   2.755   3.938  0.0480 -0.0155  0.3469
25762W        W46042  15.454   0.434   1.891  0.1302  0.1051  0.1130
25763W        W46043   3.959   2.968  16.694  0.2269 -0.2514 -0.1402
25764W        W46044  12.722  13.084   4.824  0.3520 -0.0136  0.0624
25765W        W46045  16.130  14.524  14.340 -0.0845  0.0079 -0.2657
25766W        W46046  14.891  12.982   0.460  0.0372 -0.1927  0.3500
25767W        W46047   0.613  10.940  12.178 -0.0081  0.0135 -0.1159
25768W        W46048  10.465  15.664  16.678 -0.2091  0.3469 -0.1503
25769W        W46049   5.918  12.487   4.415 -0.0076 -0.1588 -0.1812
25770W        W46050  10.150  13.776   2.414  0.0122  0.0538 -0.0504
25771W        W46051  17.364  10.132  15.807 -0.0212  0.1458 -0.1583
25772W        W46052   4.723  11.357   2.079 -0.0152  0.0653 -0.1478
25773W        W46053   7.585   1.128  13.789 -0.0916 -0.3645  0.0287
25774W        W46054   3.770   3.354  13.326 -0.0279  0.2042  0.0716
25775W        W46055   7.460   0.181  15.720 -0.0505 -0.1339  0.2039
25776W        W46056  10.014   3.128   3.679 -0.0861 -0.1634  0.1190
25777W        W46057  10.882   1.057  15.335 -0.1669  0.2659 -0.0932
25778W        W46058   2.178   4.580  13.392  0.1921 -0.0689  0.0903
25779W        W46059   8.213  15.330  16.812 -0.1174  0.1077 -0.0786
25780W        W46060   6.664   3.922   4.373 -0.3537  0.3559  0.1481
25781W        W46061   3.209  10.479   1.000  0.1932 -0.2814 -0.1748
25782W        W46062  15.560   7.737   4.261  0.2678  0.0624  0.0777
25783W        W46063   8.774   4.148   0.893 -0.1624 -0.2397 -0.0437
25784W        W46064   8.979   3.371   4.246  0.0672  0.2249 -0.1834
25785W        W46065  12.356  14.931  16.467  0.1656 -0.1287  0.0802
25786W        W46066  13.680   2.739   1.539 -0.2712 -0.1908  0.1207
25787W        W46067  16.739  15.790  14.548 -0.2119 -0.3139 -0.0231
25788W        W46068   9.075   3.877   1.797 -0.1466 -0.2242  0.3220
25789W        W46069   7.637   9.825  12.121  0.3216 -0.0330 -0.1291
25790W        W46070  17.131  17.105  13.775 -0.0299  0.0194 -0.0086
25791W        W46071   4.798  10.639   4.304  0.1529 -0.0124  0.0094
25792W        W46072   0.724  10.643   3.710  0.1453 -0.0677 -0.1000
25793W        W46073  16.605   9.841  12.923 -0.0703  0.3356  0.0294
25794W        W46074   6.562  13.874   0.679 -0.0066 -0.1438 -0.2608
25795W        W46075  12.009  14.006  14.866  0.0810  0.5112  0.0739
25796W        W46076   8.529   4.494  15.098  0.2157 -0.0982 -0.2541
25797W        W46077   5.963   5.391  16.955 -0.0475 -0.0939  0.0195
25798W        W46078   5.147  11.172  15.865 -0.0915 -0.3668  0.0960
25799W        W46079  13.145  11.332  12.273 -0.2779 -0.1470 -0.0974
25800W        W46080   3.890  10.622   2.170 -0.0359 -0.2976  0.0636
25801W        W46081   9.662   1.180  12.235 -0.0863  0.0448  0.1441
25802W        W46082   5.269  11.681   2.881  0.1018  0.2159 -0.1606
25803W        W46083  16.683  12.381   2.159 -0.2093  0.1331  0.2487
25804W        W46084   8.702   3.762  12.696  0.0372 -0.2378 -0.0881
25805W        W46085  12.383  12.911   3.019  0.0434  0.1085 -0.0069
25806W        W46086  14.817   2.448   1.975  0.0522  0.1957 -0.3421
25807W        W46087   1.396   6.398   4.768  0.0242  0.2322 -0.0141
25808W        W46088  14.131   8.291  16.804  0.0122 -0.3069 -0.1888
25809W        W46089   6.895   1.456  16.051 -0.1783  0.2721 -0.1418
25810W        W46090  16.178  15.958   2.743 -0.1994  0.1317  0.1427
25811W        W46091  12.657   4.475   0.634  0.1133 -0.1639  0.6393
25812W        W46092  16.517   8.824  13.758  0.1350  0.0496 -0.2015
25813W        W46093   8.677   8.579  12.698  0.1486  0.2529 -0.1983
25814W        W46094  17.516   3.337  15.780 -0.1617  0.3211  0.1938
25815W        W46095   0.760   3.985   0.423  0.2086 -0.2889  0.0431
25816W        W46096   6.102   9.367   0.290 -0.0981  0.2871 -0.0535
25817W        W46097  12.932  15.920  12.319  0.0866  0.2550 -0.0652
25818W        W46098   3.791   1.154  15.816  0.2874  0.2314  0.2539
25819W        W46099  10.617  12.985  12.680 -0.0523 -0.1139  0.2178
25820W        W46100   4.407   2.129  13.586  0.0907 -0.0507  0.0862
25821W        W46101   4.020  14.399  16.157  0.1055 -0.1217  0.0640
25822W        W46102   3.251  12.546  14.863 -0.1298 -0.1590 -0.0066
25823W        W46103   1.531   8.474  12.569  0.2178 -0.2308  0.4352
25824W        W46104   0.930   6.979  16.393 -0.2728 -0.0444 -0.0316
25825W        W46105   6.173  10.338  14.925  0.4094  0.1479  0.1117
25826W        W46106   6.321   4.889  12.083  0.3939 -0.3316 -0.0571
25827W        W46107  11.553   6.176  12.805  0.2566  0.1240  0.1269
25828W        W46108  11.762   3.167   0.394  0.2097  0.1139 -0.1648
25829W        W46109  16.724  16.081   4.010  0.3474 -0.1074 -0.0210
25830W        W46110  13.960  10.742   3.830  0.1280  0.0097  0.0200
25831W        W46111   4.972   2.959  13.755  0.1667 -0.0238  0.2158
25832W        W46112   4.434   6.646  13.484  0.1202  0.2985  0.2383
25833W        W46113  14.277  10.524   1.497  0.1118  0.0365  0.1244
25834W        W46114  15.900   1.891  13.808 -0.0976 -0.1627 -0.1114
25835W        W46115   1.681   1.417   4.772  0.0988  0.2602  0.3416
25836W        W46116   0.055   7.427  16.533  0.1479 -0.0114  0.1243
25837W        W46117   9.277  16.539   4.525  0.0600 -0.0909  0.0698
25838W        W46118   3.466   0.114  16.655 -0.1614  0.0511 -0.0630
25839W        W46119   9.438   4.381  15.044  0.1425 -0.0895 -0.0873
25840W        W46120   1.335   8.227  15.315 -0.0000  0.1067 -0.0366
25841W        W46121  13.106  10.598   2.864  0.1078 -0.0404  0.3428
25842W        W46122   7.482   2.046   0.811 -0.0489  0.1810 -0.0094
25843W        W46123   6.207  10.425   3.032  0.0017 -0.1564  0.2334
25844W        W46124   4.716  11.260  14.471  0.0014 -0.3622  0.1833
25845W        W46125  12.748  14.784   2.465 -0.2834 -0.0968  0.0483
25846W        W46126  15.592   6.881  16.533  0.3559  0.0069  0.0990
25847W        W46127  13.627   8.708   3.852 -0.1122 -0.1058 -0.2253
25848W        W46128   0.424   2.149  13.052 -0.1324  0.1499  0.4315
25849W        W46129   9.360   7.442  15.213  0.0418  0.2791  0.0008
25850W        W46130  14.272   4.067   1.224 -0.1244 -0.1370 -0.1418
25851W        W46131   9.060  13.978   4.720  0.0541  0.4461  0.2781
25852W        W46132   2.586   3.800   0.502 -0.0720  0.0279  0.2455
25853W        W46133  10.178  17.730   2.626 -0.2450 -0.1591 -0.1267
25854W        W46134   6.471  12.026   3.168 -0.1717 -0.1471  0.2442
25855W        W46135   1.849  13.291   0.539  0.3376  0.0089 -0.0268
25856W        W46136   0.199   5.465  13.893  0.0995  0.0325  0.2309
25857W        W46137  16.840  16.242  15.404 -0.2950  0.0453 -0.1523
25858W        W46138   0.275  11.423  12.258  0.0039  0.2628 -0.0229
25859W        W46139  13.351   3.826  14.904  0.1739  0.0800 -0.1489
25860W        W46140   5.778  16.865  16.818  0.0159  0.0398  0.0001
25861W        W46141  14.632   6.835   2.715 -0.0307 -0.3408  0.0907
25862W        W46142  11.919   1.053   1.333 -0.0413 -0.1554 -0.0953
25863W        W46143   4.090  10.767  14.456  0.0638 -0.0825 -0.0389
25864W        W46144  10.230  11.540   1.991  0.3589  0.1159  0.0738
25865W        W46145  10.354  10.136   4.420 -0.1468  0.3000  0.0487
25866W        W46146  13.197   3.048   3.329 -0.0141  0.0375 -0.0758
25867W        W46147   7.108   9.886  16.270  0.2054 -0.0145 -0.1942
25868W        W46148  15.610   6.856   2.473  0.0201  0.0634  0.0057
25869W        W46149  17.119   3.921   3.656  0.0065  0.0134  0.1462
25870W        W46150   4.900   8.839   0.728  0.0226 -0.1169 -0.0444
25871W        W46151  11.440  12.946  15.624  0.2424 -0.0352 -0.0510
25872W        W46152  15.530   6.833  14.506 -0.1549  0.1506  0.0994
25873W        W46153   5.273  16.324   2.552 -0.3048  0.1365  0.1309
25874W        W46154   0.543   1.905   3.322  0.0187 -0.2189 -0.1574
25875W        W46155   9.376   3.037  13.126  0.1713 -0.0153 -0.1129
25876W        W46156   6.049   3.259   1.403 -0.1605  0.0883 -0.0002
25877W        W46157   4.794   0.367  12.886  0.3899  0.0524  0.2571
25878W        W46158  13.474   4.476  14.859  0.0782 -0.0007  0.1825
25879W        W46159  12.067  15.931  16.253 -0.0021 -0.1358 -0.1168
25880W        W46160  17.352   9.528   2.986  0.0038  0.0372 -0.0425
25881W        W46161  15.852  11.548  16.166 -0.4517  0.2354 -0.2433
25882W        W46162  14.320  10.900  15.816  0.2790  0.1671 -0.0554
25883W        W46163   1.374   9.068   4.422 -0.1625  0.0787  0.2385
25884W        W46164   9.780   0.975   0.596  0.0620 -0.0600 -0.0876
25885W        W46165   9.140   5.802   0.087  0.1197 -0.1669  0.1433
25886W        W46166  14.420   8.929  13.028 -0.0920 -0.1588 -0.0427
25887W        W46167   6.662   2.012   2.229 -0.0825  0.1213 -0.0138
25888W        W46168   1.019   7.964  16.242 -0.1294  0.0233 -0.3551
25889W        W46169   5.332   4.933   0.672 -0.0958 -0.1159 -0.1341
25890W        W46170  12.017   6.206  12.871 -0.0252  0.2445  0.0238
25891W        W46171  16.036  13.185  14.726  0.0921  0.0550  0.2581
25892W        W46172  15.984  13.978   3.783 -0.2947 -0.1040 -0.0112
25893W        W46173  15.541   5.272  13.009  0.2253 -0.0021  0.0569
25894W        W46174   8.209  12.438   4.829  0.2893 -0.1414 -0.3106
25895W        W46175   5.558  14.697  13.283 -0.0822  0.3363 -0.1144
25896W        W46176  10.147   5.421   3.916  0.0397 -0.0870  0.1302
25897W        W46177   9.268   7.920  12.917 -0.0217  0.0496  0.0331
25898W        W46178  11.361  16.667  12.509 -0.2383 -0.0419  0.2054
25899W        W46179  14.634  15.721  13.687  0.0948  0.2686 -0.0960
25900W        W46180   3.510  14.417   2.271  0.1454  0.0182 -0.0639
25901W        W46181   9.558  15.152  16.841 -0.2184  0.1648  0.2060
25902W        W46182  17.145  12.331  15.281 -0.0049 -0.1610  0.0648
25903W        W46183  15.217  16.983  13.369 -0.0470  0.1476  0.1710
25904W        W46184  12.360  16.783   5.391  0.2718 -0.0543  0.0476
25905W        W46185   9.421   4.248   2.016 -0.3362 -0.1651 -0.0342
25906W        W46186  13.114  16.978  15.671 -0.0661  0.1649 -0.0687
25907W        W46187  10.898  12.766   0.510  0.2473 -0.0595  0.1377
25908W        W46188  15.384  17.425  14.716  0.3544 -0.1692 -0.1466
25909W        W46189   0.896   5.417   2.312  0.0280  0.4449 -0.1608
25910W        W46190  16.977   5.795  16.064 -0.0884 -0.1689  0.0079
25911W        W46191   0.051   1.978   5.230  0.1335  0.3071  0.1093
25912W        W46192  13.913   5.603   2.531  0.3073  0.2570  0.2471
25913W        W46193  15.471  15.608  12.519  0.2011 -0.4100 -0.1722
25914W        W46194   2.078  15.068   0.979  0.3026 -0.1720  0.2977
25915W        W46195  12.654   3.215  15.209  0.0171 -0.1773  0.0522
25916W        W46196  16.985   0.080   1.161 -0.0347 -0.0525  0.1477
25917W        W46197  12.584   9.097  15.519 -0.2988 -0.2315 -0.1685
25918W        W46198  16.620  11.638  15.496 -0.1217 -0.1431 -0.3237
25919W        W46199   5.777   4.087  15.434  0.0057  0.1242 -0.1338
25920W        W46200  10.845   2.975  13.668 -0.0472  0.0877  0.1308
25921W        W46201   0.848   7.912  12.495  0.0252  0.1736 -0.0632
25922W        W46202   5.049   7.663   0.164  0.3367  0.0075 -0.1964
25923W        W46203   7.328   8.113   1.624 -0.0332 -0.1512 -0.2565
25924W        W46204   4.922  13.909  16.905 -0.1449 -0.3976 -0.4743
25925W        W46205   9.871   1.891  12.450  0.0148  0.0417 -0.0833
25926W        W46206   7.003   8.881  15.333 -0.2516  0.0118 -0.0332
25927W        W46207   5.268   8.027  12.343  0.0654  0.1827 -0.0419
25928W        W46208   4.164  12.226  16.363 -0.0055 -0.2838 -0.1752
25929W        W46209   6.655  11.980  12.607 -0.3506  0.2967 -0.2046
25930W        W46210   9.115   8.369  15.341 -0.0991  0.3095  0.0480
25931W        W46211   0.905   8.469   0.419  0.0239 -0.1657 -0.0102
25932W        W46212   3.030   7.145  14.245  0.2135 -0.1447  0.0750
25933W        W46213   8.948  10.735  12.468  0.0260  0.0762 -0.1069
25934W        W46214   5.695   4.685  13.361  0.1365 -0.2961 -0.0378
25935W        W46215   6.421  11.302   1.317 -0.1713 -0.3353 -0.0605
25936W        W46216  13.970  13.675  16.515  0.0516  0.0407  0.1909
25937W        W46217  12.749   3.957  14.183 -0.2563 -0.0875 -0.0975
25938W        W46218  11.416  16.399   0.594  0.2323  0.0800  0.1401
25939W        W46219  14.732  13.283  13.745 -0.1341 -0.0583  0.3190
25940W        W46220  10.261   8.304  14.000 -0.0989 -0.1753 -0.1795
25941W        W46221  17.728  14.553   0.824 -0.0444 -0.2140  0.2188
25942W        W46222   0.313  11.660  16.839  0.1366 -0.1822 -0.2589
25943W        W46223   3.427  13.330   1.189  0.2394  0.2619 -0.1296
25944W        W46224  16.090  11.127  16.049 -0.3716  0.3508  0.2538
25945W        W46225  16.069   6.995  14.368  0.2808 -0.0740 -0.0563
25946W        W46226   8.312   4.030  15.358  0.1980 -0.0411 -0.1128
25947W        W46227   6.888   5.359   1.413 -0.1131  0.1229 -0.0959
25948W        W46228  12.463  16.310  16.091 -0.1374 -0.2183  0.2442
25949W        W46229   4.785  17.065  14.044  0.0923 -0.3275  0.2896
25950W        W46230   4.285   0.541   4.429  0.1673  0.1529  0.0146
25951W        W46231  13.721  16.914  14.433 -0.1827  0.0167  0.0717
25952W        W46232   1.203   8.576  14.467 -0.2702  0.2030 -0.0042
25953W        W46233  10.455  12.172   2.897 -0.0422  0.4321  0.1285
25954W        W46234   0.587   2.308  16.250  0.1326  0.1213 -0.0095
25955W        W46235  14.747  15.824   2.283 -0.0194 -0.4300 -0.1414
25956W        W46236  10.862   0.669   4.278 -0.3168  0.2619  0.2250
25957W        W46237  12.409  13.732   3.563 -0.2740 -0.2382  0.1874
25958W        W46238   3.869  17.253  13.469 -0.1007 -0.0518 -0.1386
25959W        W46239   8.521   7.556  12.626 -0.2872  0.2313  0.2919
25960W        W46240   7.316   6.442   0.425 -0.1850 -0.3959 -0.2310
25961W        W46241  15.111   9.991  13.674 -0.1350  0.0187  0.0406
25962W        W46242   5.690   6.945  12.159  0.0594  0.0263 -0.0580
25963W        W46243  14.155   6.512   0.378 -0.0945  0.2408  0.0742
25964W        W46244  12.541   1.065  14.599 -0.0341  0.1029  0.1832
25965W        W46245   7.480   1.509  14.286 -0.0092  0.0342 -0.1944
25966W        W46246  13.711   6.457   3.616 -0.1914 -0.0197 -0.3704
25967W        W46247  12.629  13.998   0.250 -0.1419 -0.1771  0.1214
25968W        W46248   3.142  12.806   4.804  0.0728  0.0323 -0.0347
25969W        W46249  15.288  16.506  14.439  0.4095 -0.0125 -0.1313
25970W        W46250  13.679   7.641  16.050 -0.2761 -0.0434 -0.0754
25971W        W46251   4.915  12.450   3.933  0.2627 -0.2021  0.0817
25972W        W46252   9.565   2.394  12.623  0.0366  0.0204 -0.0726
25973W        W46253  17.245  11.909  16.896 -0.0637 -0.0182  0.0070
25974W        W46254  13.925   5.235  16.395 -0.2256 -0.1775 -0.0508
25975W        W46255   4.925   9.547   1.775 -0.1183 -0.0722  0.0342
25976W        W46256  10.796   4.479  12.931  0.3641 -0.3959  0.2127
25977W        W46257  11.118   9.797  16.854 -0.0235 -0.1457 -0.3741
25978W        W46258   2.201  13.570  16.468  0.0057 -0.0255 -0.0330
25979W        W46259   9.208   1.019   4.255 -0.3081 -0.3437  0.2506
25980W        W46260  15.945  15.674  13.885 -0.2520  0.2227  0.1171
25981W        W46261  17.042   4.836  12.721 -0.2225  0.0879  0.0842
25982W        W46262   5.081  15.406  13.919 -0.1456  0.3845 -0.1117
25983W        W46263   9.382   6.279  16.920 -0.1563  0.2642 -0.1627
25984W        W46264   3.870   6.831   4.035  0.1588  0.0164  0.1628
25985W        W46265   8.291  10.581   4.946 -0.1549 -0.0114 -0.0796
25986W        W46266   8.961   9.733  12.790  0.0549 -0.0430  0.0143
25987W        W46267  14.163   6.273   4.776  0.0086 -0.0220  0.0333
25988W        W46268  11.385  15.329  13.646 -0.0390 -0.0945  0.0178
25989W        W46269   9.380  13.358  13.919  0.2422 -0.0321  0.1749
25990W        W46270  10.624   7.469   0.459 -0.0949  0.1015  0.0039
25991W        W46271  12.260  17.491  16.478  0.2086  0.0557  0.1231
25992W        W46272   1.835  13.143   0.045 -0.0088 -0.0507  0.0934
25993W        W46273  16.961   3.190   2.471 -0.0572 -0.0354  0.0838
25994W        W46274   8.882  13.651   3.275  0.0492  0.2098  0.1834
25995W        W46275  10.693   0.271  13.689  0.1399  0.1055 -0.2283
25996W        W46276  14.625  14.883  15.297 -0.0450 -0.1188  0.0086
25997W        W46277  13.136  10.125  12.664  0.2348  0.2797  0.2383
25998W        W46278   3.099  13.903   3.098  0.2634 -0.0257 -0.2404
25999W        W46279   1.747   1.395   2.594 -0.4045 -0.1979 -0.1678
26000W        W46280   6.084  13.724  12.361  0.0081 -0.0403  0.2071
26001W        W46281  11.531   3.393   2.699 -0.2424  0.1661 -0.2408
26002W        W46282  15.701  13.863   0.145  0.1049  0.0008 -0.2276
26003W        W46283   7.648   9.659   1.323  0.0109 -0.0906 -0.1821
26004W        W46284   0.766   5.113  15.510  0.1808 -0.0273  0.1377
26005W        W46285   0.552  10.308  13.054 -0.2473  0.0815  0.0543
26006W        W46286   8.194  10.215  13.380  0.2863 -0.2087 -0.2450
26007W        W46287  10.281   9.832  16.469  0.3420 -0.4517  0.4285
26008W        W46288  17.350   8.430  13.372  0.0794 -0.0329  0.0361
26009W        W46289   4.546  15.491  15.933  0.2520 -0.0067  0.0922
26010W        W46290   6.420   9.256   3.800 -0.2287 -0.2237  0.0966
26011W        W46291   0.375   4.990   4.887 -0.0673 -0.0606 -0.1301
26012W        W46292  15.706  17.277  15.081 -0.2989 -0.1890 -0.2983
26013W        W46293   2.383   9.566  14.167 -0.0086  0.0287 -0.0189
26014W        W46294   6.745   0.762   0.151  0.4629 -0.2180  0.2210
26015W        W46295   4.716  13.427  16.874 -0.0080 -0.1957 -0.0385
26016W        W46296  15.672   2.333   3.651  0.1259  0.1731 -0.0293
26017W        W46297   8.932   4.072  12.306 -0.2215 -0.0027 -0.0935
26018W        W46298   7.438  15.763   0.695 -0.0100 -0.0421  0.0512
26019W        W46299  13.429   6.139  14.978 -0.2320  0.1330 -0.3440
26020W        W46300  12.186   9.207  14.606 -0.1958 -0.1227 -0.0432
26021W        W46301   0.464  12.174   4.492 -0.1211 -0.2152 -0.2577
26022W        W46302   0.422  13.174  13.843  0.4685  0.0420 -0.0789
26023W        W46303  10.761  16.869  16.524  0.0292  0.1741  0.1696
26024W        W46304  17.714   0.248  12.798 -0.1200  0.1745 -0.0966
26025W        W46305   6.102   9.066  16.165 -0.3550  0.0213  0.2204
26026W        W46306   4.674   3.923  14.239  0.2063  0.2124  0.0480
26027W        W46307   9.782  13.531  14.363  0.1208  0.0398  0.1222
26028W        W46308  10.020   0.482   4.580 -0.2575 -0.0015 -0.0229
26029W        W46309  12.375  12.957  15.424  0.0968  0.0176  0.0168
26030W        W46310  12.257  14.899   0.050 -0.0356  0.0462  0.0920
26031W        W46311  15.948   0.309   3.739  0.3020 -0.0932 -0.2097
26032W        W46312  11.551  16.196  15.116  0.0655 -0.0663 -0.1484
26033W        W46313   4.687   8.610  13.075  0.1327  0.2527  0.3139
26034W        W46314   8.439   5.740  12.545 -0.0231 -0.0659  0.0518
26035W        W46315  13.052   4.950  16.491  0.0557 -0.0798  0.0625
26036W        W46316  13.613   0.028  16.067 -0.3761 -0.0347 -0.1527
26037W        W46317   2.907   9.357  13.926 -0.0021  0.0393  0.1160
26038W        W46318  11.227  10.790  13.062  0.1702  0.0118  0.2277
26039W        W46319   1.737  16.182  14.143 -0.2413  0.2269 -0.2875
26040W        W46320   2.765  17.140   1.224  0.0976  0.1388 -0.2705
26041W        W46321   2.465  11.720  16.880 -0.1228 -0.1189 -0.1102
26042W        W46322   0.354   2.547   0.424  0.0532  0.0717 -0.1049
26043W        W46323   7.128  10.575   2.862  0.1111  0.0258  0.3837
26044W        W46324   9.537   1.966  16.210  0.0306  0.0558  0.2808
26045W        W46325   8.963  15.236  12.161 -0.0072 -0.0590  0.2374
26046W        W46326  11.709   8.570  15.844 -0.0753  0.3057 -0.1803
26047W        W46327  11.797  11.113   4.983 -0.2220 -0.1528  0.0041
26048W        W46328  15.220  11.172   4.141  0.0236 -0.3126  0.2027
26049W        W46329   7.901   3.224  15.636  0.1438 -0.3329 -0.0412
26050W        W46330  12.147  13.409  14.953 -0.0643 -0.0583 -0.0452
26051W        W46331   6.600  13.908  16.712  0.2667 -0.5789 -0.0712
26052W        W46332   7.165  12.614  15.877  0.1653  0.1611  0.2284
26053W        W46333   2.343   4.247  16.328 -0.0032 -0.0381  0.2158
26054W        W46334  11.059  17.481  14.949 -0.2029  0.3340 -0.2666
26055W        W46335  12.757   5.293  15.727 -0.2170  0.0227 -0.1342
26056W        W46336   6.656   4.485  16.960  0.0980  0.1743  0.2577
26057W        W46337  10.253   7.120   2.752  0.1638  0.1549  0.1748
26058W        W46338  13.578  13.559   0.250 -0.1724 -0.1271  0.1748
26059W        W46339  15.582  16.897   1.122  0.0119 -0.2369 -0.1236
26060W        W46340   4.288   7.926   0.587 -0.1050 -0.0620 -0.2190
26061W        W46341   1.217  12.131  15.174 -0.1852  0.0460 -0.0668
26062W        W46342   2.811   2.587  13.266 -0.1181 -0.3329 -0.1639
26063W        W46343   8.789  14.691   2.345 -0.0308  0.1166 -0.0908
26064W        W46344  13.594   8.200  15.500 -0.2024  0.0229 -0.0193
26065W        W46345  10.750   8.629   0.189  0.0392 -0.4654  0.2025
26066W        W46346   2.194  15.613  13.084 -0.1317  0.1902 -0.2185
26067W        W46347  10.380   7.036   0.312 -0.0547  0.0638  0.3239
26068W        W46348   6.402  13.878  15.538  0.0373  0.1556  0.2622
26069W        W46349  17.494   2.819  13.428  0.2194  0.0457 -0.2715
26070W        W46350   1.922  13.796   0.262 -0.0548 -0.0168 -0.0526
26071W        W46351  10.646  14.937  13.141 -0.1930 -0.1726  0.1685
26072W        W46352   2.908  13.763  16.271 -0.2596  0.1625  0.1520
26073W        W46353   4.200  16.894   3.793  0.0091 -0.0385  0.0766
26074W        W46354   1.994   7.772   2.055 -0.4492  0.2090 -0.0739
26075W        W46355  12.467   6.989  16.236  0.4725  0.3514  0.2099
26076W        W46356   8.621  13.252  14.348 -0.1561 -0.1800 -0.0880
26077W        W46357  13.569   8.594   2.175 -0.1978 -0.0061 -0.1855
26078W        W46358  12.086   7.726   3.285  0.0156  0.0200 -0.5017
26079W        W46359  11.753   4.276   3.820 -0.2739 -0.1023 -0.0069
26080W        W46360   0.911   4.583  16.697 -0.1958  0.2688 -0.1720
26081W        W46361   2.840   0.825  15.180 -0.1436  0.1374 -0.2154
26082W        W46362  17.380   2.396   1.399 -0.2563 -0.0926  0.0632
26083W        W46363   9.836   8.210  13.781 -0.2441  0.0384 -0.0411
26084W        W46364  13.029   6.174   0.341  0.0033  0.0607  0.0047
26085W        W46365   1.150   7.928   0.945 -0.0374  0.2197 -0.1284
26086W        W46366   7.949  12.867  14.946  0.3031  0.0136 -0.1370
26087W        W46367  13.969   9.173  15.300 -0.2612 -0.1241  0.1574
26088W        W46368  14.447  12.042  14.309 -0.1137 -0.2558 -0.1641
26089W        W46369  11.892  13.628   0.758 -0.0855  0.1909  0.2045
26090W        W46370   1.675   0.099   4.489 -0.0416 -0.1869  0.2263
26091W        W46371   5.371  12.950  13.351  0.1246  0.1636  0.0085
26092W        W46372  15.783   7.838  16.821  0.0954  0.0168  0.0604
26093W        W46373   9.936   8.927   1.237 -0.0558  0.0340 -0.1405
26094W        W46374  12.283  10.674  16.053 -0.0957 -0.0389 -0.0206
26095W        W46375   7.554  11.423   2.939 -0.0130 -0.0770  0.0168
26096W        W46376   9.125   2.293   1.701  0.1274  0.2135  0.0068
26097W        W46377  17.349   7.819   2.347 -0.0957 -0.0127 -0.2068
26098W        W46378  12.392   1.376   4.377 -0.2745 -0.0490  0.0511
26099W        W46379   7.522  14.711   1.060 -0.1510  0.1698 -0.2671
26100W        W46380   3.774   7.547  12.153 -0.0943  0.0241  0.1045
26101W        W46381  14.126   6.867   2.715  0.0940  0.4071 -0.1410
26102W        W46382   1.402   3.427  13.529 -0.1158  0.0039 -0.2685
26103W        W46383   6.349   0.409  13.323 -0.0708  0.0812  0.0353
26104W        W46384   2.805   2.918   5.125 -0.2072 -0.0873 -0.0158
26105W        W46385  17.272   1.472  12.227  0.0885 -0.3225 -0.2198
26106W        W46386  10.177  14.291   3.580 -0.1357  0.5314  0.0020
26107W        W46387   7.615   1.660  13.801 -0.2324  0.0051  0.1356
26108W        W46388  11.522  16.416   2.060  0.0906 -0.1099  0.0513
26109W        W46389   6.221   3.596  12.605  0.3382  0.1696 -0.1841
26110W        W46390  16.405   3.406   3.885  0.2642 -0.2144 -0.3503
26111W        W46391   9.599   1.542  14.980 -0.0147 -0.2145  0.1790
26112W        W46392  12.103   5.671   4.514 -0.1110 -0.3303 -0.1224
26113W        W46393   2.892   7.164   3.197 -0.2215  0.0720  0.1430
26114W        W46394  14.928  13.886  12.553 -0.1369 -0.1692  0.0748
26115W        W46395   8.843  14.391   1.175  0.1504  0.0157  0.1627
26116W        W46396   5.416  11.865  15.245 -0.0280  0.0553 -0.0613
26117W        W46397  17.318   8.649   3.838  0.3093 -0.2316 -0.4346
26118W        W46398  16.559   6.640  12.063  0.0764 -0.1123  0.0407
26119W        W46399   0.250   1.903   3.717 -0.1362  0.1888  0.0201
26120W        W46400  12.677  11.074  12.238 -0.0539 -0.0028 -0.2446
26121W        W46401   9.953   2.093  14.677  0.2049  0.1440  0.3762
26122W        W46402   9.501  13.952   4.523 -0.0348  0.0767 -0.0265
26123W        W46403   7.323  14.662   3.253  0.2008  0.1319  0.3965
26124W        W46404   5.588  15.024   3.406 -0.2977  0.3342 -0.0448
26125W        W46405  15.391   6.849   4.884  0.2716  0.0894 -0.1422
26126W        W46406  17.101   4.620   0.648 -0.3747 -0.0942  0.1084
26127W        W46407   6.420  10.932  16.930  0.0323 -0.3978 -0.1031
26128W        W46408  13.710  13.044   1.758 -0.0230  0.1379  0.1360
26129W        W46409  12.156   5.241   3.887 -0.0953 -0.0876 -0.2332
26130W        W46410   8.820   5.939  12.953  0.1193 -0.0102  0.0836
26131W        W46411  16.070   6.040  12.764  0.0463 -0.0300  0.3174
26132W        W46412   6.461   4.182  16.431 -0.1130 -0.0842  0.2372
26133W        W46413   0.309   1.027  15.013  0.1284 -0.0320  0.0474
26134W        W46414   0.182  16.866  16.344 -0.0324 -0.1142  0.2005
26135W        W46415   2.172   4.372   4.614 -0.0571 -0.0495  0.2529
26136W        W46416  13.532  14.426  12.208  0.2057 -0.1811 -0.2183
26137W        W46417   5.388  12.690   3.814  0.1148 -0.4203 -0.1597
26138W        W46418  14.122  14.393  13.498 -0.2020  0.3628 -0.1715
26139W        W46419   3.955  11.432   3.311 -0.0994  0.1708 -0.1659
26140W        W46420   5.201   4.954   0.223 -0.0455  0.0572 -0.0785
26141W        W46421   2.100   2.977  12.905 -0.0978 -0.0869  0.0221
26142W        W46422   6.166   3.818   5.190  0.1570 -0.3423  0.0701
26143W        W46423   4.768   1.164  15.932  0.1293 -0.0443 -0.1203
26144W        W46424   7.802   8.824  15.050  0.1228  0.0311  0.2116
26145W        W46425   9.422  11.181   2.046  0.1499  0.2740 -0.1237
26146W        W46426   3.715  13.981  16.998  0.2043 -0.0761  0.0013
26147W        W46427   3.117   8.578   3.197 -0.1303  0.2451  0.0566
26148W        W46428  11.013   8.002  16.873 -0.2735  0.2421 -0.1141
26149W        W46429   6.520   2.883  15.243  0.1056  0.0593  0.0109
26150W        W46430   8.864  10.318   4.940 -0.1801 -0.3016 -0.0392
26151W        W46431  11.237   0.144  15.249 -0.0477  0.1947  0.2985
26152W        W46432   9.060   3.797   3.048 -0.1044  0.1487  0.1256
26153W        W46433   2.633  13.706   0.781  0.1271 -0.1905 -0.1911
26154W        W46434  16.663   5.205  13.946 -0.2678  0.1182  0.2752
26155W        W46435   6.558  17.231  14.395 -0.1986 -0.0623  0.2357
26156W        W46436   4.402   1.635  14.449 -0.0230 -0.1797  0.0983
26157W        W46437  11.300   1.468   2.540 -0.2220 -0.3586  0.2067
26158W        W46438  12.073   0.309  14.654  0.0410  0.1357 -0.1568
26159W        W46439   8.836  13.499   4.961  0.1154 -0.0492  0.1851
26160W        W46440  10.828   1.120   4.594 -0.1302 -0.0891  0.3763
26161W        W46441   0.626   8.204  13.850  0.1821  0.2814 -0.1805
26162W        W46442   4.531  12.333  13.638  0.1114  0.0421  0.1467
26163W        W46443  11.362   3.908   2.765  0.0214  0.0576 -0.2022
26164W        W46444  17.003   4.530  12.183  0.1722  0.2638 -0.2245
26165W        W46445  12.667   6.413   0.555 -0.0906 -0.1473 -0.2110
26166W        W46446  12.937   2.459  13.251  0.2405  0.1290 -0.0896
26167W        W46447  14.097  10.455  15.169 -0.1260  0.3174  0.1078
26168W        W46448   3.555   0.644  16.684  0.0781  0.0925 -0.1304
26169W        W46449  14.558  16.914   2.023 -0.0866  0.1704  0.0642
26170W        W46450  16.233  17.208  13.642  0.3468 -0.2060  0.2582
26171W        W46451   7.859   9.265   2.203  0.0561  0.2601 -0.1581
26172W        W46452  13.077   1.881  14.127 -0.1384  0.1698 -0.0211
26173W        W46453  17.713  16.742  14.280 -0.0115  0.1758 -0.0336
26174W        W46454  14.856   3.571   4.115 -0.1710 -0.1750  0.1749
26175W        W46455  12.904  15.803   1.472 -0.1745 -0.0614  0.1463
26176W        W46456   4.406  13.880  13.572  0.0657  0.1161 -0.1246
26177W        W46457   7.061  15.419  15.302  0.0673 -0.2192  0.0281
26178W        W46458  15.703   6.822  17.002 -0.2299  0.0466  0.0297
26179W        W46459   6.316  13.033  13.834 -0.1439  0.0826  0.0527
26180W        W46460  16.720  14.743  15.008 -0.0264 -0.1247 -0.0462
26181W        W46461   7.573  14.609  15.528  0.2833  0.0541  0.1929
26182W        W46462  16.064   6.991   1.588 -0.1422  0.0173  0.0335
26183W        W46463   0.966  14.574  12.333 -0.0416  0.1132  0.2496
26184W        W46464   3.801   4.155   0.270 -0.2483 -0.0197 -0.1803
26185W        W46465  17.505  13.937   2.299  0.0581 -0.3637 -0.0491
26186W        W46466  11.777   4.404   4.802  0.0244  0.0490  0.1727
26187W        W46467  16.321  15.112   2.566  0.3526  0.1881 -0.1677
26188W        W46468  16.435   1.866  16.089 -0.3607  0.1967 -0.0332
26189W        W46469   3.299  13.024   0.640  0.0693 -0.0314  0.0540
26190W        W46470   6.048  12.951   4.524 -0.0092 -0.0795  0.2484
26191W        W46471   7.182  15.547   0.324  0.0275  0.0326 -0.1139
26192W        W46472  11.698   9.299   0.819 -0.0003  0.3019 -0.0712
26193W        W46473  12.548   3.684  15.506  0.0295  0.1421 -0.1639
26194W        W46474  12.933   6.787  12.521  0.2368  0.0292  0.0344
26195W        W46475   0.061  11.548   2.949  0.2337 -0.1190  0.2487
26196W        W46476   9.859  10.168  13.464  0.0656  0.2305  0.0572
26197W        W46477   5.580   1.281  15.979  0.2522 -0.3125 -0.0698
26198W        W46478   1.361   2.062  13.574 -0.3621 -0.2776 -0.0037
26199W        W46479  16.124  12.578  15.410 -0.2128  0.0807 -0.2422
26200W        W46480  16.307   0.685   3.743 -0.0759  0.2233 -0.1696
26201W        W46481   9.853   9.170   0.549 -0.1269  0.0022 -0.0420
26202W        W46482   9.817   2.038   4.713 -0.1557  0.0285  0.1893
26203W        W46483  11.699   1.913  12.434  0.0614  0.0126  0.0134
26204W        W46484   6.276   9.407   3.263  0.0391 -0.1214  0.1957
26205W        W46485   4.490   2.316  12.577 -0.1463 -0.0834  0.3549
26206W        W46486   0.972   9.635   2.882  0.1902 -0.1843 -0.1921
26207W        W46487  14.748  12.963  14.493  0.0854  0.0401 -0.1205
26208W        W46488  13.166  14.734   4.177 -0.0010  0.0513  0.1453
26209W        W46489  15.151   7.233   0.663  0.0376 -0.2381  0.1815
26210W        W46490   8.697   5.042  15.245  0.1388 -0.0946  0.1367
26211W        W46491  13.535  12.439  15.834 -0.2768  0.0129 -0.4465
26212W        W46492  10.420  16.148   4.986 -0.1587  0.1756  0.1740
26213W        W46493  13.718   1.757   0.340  0.0742 -0.0398 -0.0328
26214W        W46494  15.160   4.176  14.674  0.3813  0.3180 -0.0273
26215W        W46495   2.810   6.609   4.725  0.0932  0.3056  0.1740
26216W        W46496   8.066   3.612   2.908 -0.1301  0.3521  0.3582
26217W        W46497  11.261  17.222   4.510  0.0931 -0.1328 -0.2040
26218W        W46498   2.860   3.426   2.123  0.1821 -0.1275 -0.0675
26219W        W46499  17.625   0.258  15.771  0.3242  0.4558  0.2295
26220W        W46500  15.588   8.196  14.501  0.0681 -0.0401 -0.1707
26221W        W46501  11.848   6.177   3.741 -0.1070  0.1688  0.2204
26222W        W46502  12.641  12.573  13.349  0.3333  0.1466 -0.2192
26223W        W46503  10.831  14.675  14.269  0.0744  0.2102 -0.0907
26224W        W46504   3.443  12.115   1.066 -0.1690  0.3727 -0.0618
26225W        W46505   2.584  14.410   0.717  0.2885  0.3066 -0.1249
26226W        W46506  11.418   6.073   3.505  0.0828 -0.3270  0.0613
26227W        W46507   4.087   4.403   1.642  0.1752  0.1010  0.0178
26228W        W46508  16.770  12.717  16.598  0.2234  0.3367  0.1048
26229W        W46509  13.795   0.229  14.558 -0.1145  0.2218  0.0972
26230W        W46510   6.563  11.705   0.844  0.1106  0.1942  0.1833
26231W        W46511  11.431  14.874   0.316  0.1201 -0.3070 -0.3284
26232W        W46512  14.693   2.092   2.548 -0.4566  0.1537  0.2132
26233W        W46513   7.585   2.429   0.474  0.1135  0.0254  0.1828
26234W        W46514   3.500   9.879  15.979 -0.1944  0.1007  0.2289
26235W        W46515   9.817   0.342   0.832  0.2879  0.1151  0.1201
26236W        W46516   3.947  10.321  13.069  0.2261 -0.1267  0.0371
26237W        W46517   8.865  14.121   3.443  0.3583 -0.0377 -0.0272
26238W        W46518   4.675   0.677  13.778  0.0860 -0.0108 -0.0853
26239W        W46519  15.005  14.276  14.750 -0.2563 -0.0762 -0.0366
26240W        W46520  16.959  12.535  16.120 -0.1677  0.0757  0.3445
26241W        W46521  14.648   0.620   2.980 -0.0564  0.0114  0.1177
26242W        W46522   8.857   6.558   4.592 -0.1188 -0.0043 -0.1477
26243W        W46523   6.650  15.014   1.591  0.0025 -0.0592  0.1258
26244W        W46524  16.898   3.116   3.444  0.4020 -0.0649 -0.4659
26245W        W46525   2.173   5.301  16.248 -0.1410  0.1808 -0.0001
26246W        W46526  16.818   6.523   1.365  0.0356  0.1470  0.2123
26247W        W46527   5.624   9.056   0.024 -0.0924  0.0498  0.0026
26248W        W46528  12.876   8.592  12.976 -0.1237 -0.0260  0.2030
26249W        W46529  12.706  10.772  16.592 -0.0930  0.1277  0.2525
26250W        W46530   3.211   1.005  16.632  0.0854  0.0156 -0.2092
26251W        W46531   9.857  17.600   3.924  0.0287  0.0659  0.0390
26252W        W46532  15.878   5.179  15.461  0.2793 -0.0584  0.2133
26253W        W46533   3.122   2.088  12.687  0.2949 -0.0448 -0.1278
26254W        W46534  17.552   1.877   2.657  0.1796  0.0546 -0.0513
26255W        W46535  13.862   8.933   3.403 -0.1316  0.1356  0.1765
26256W        W46536   2.698   1.494  13.381  0.2058 -0.0575  0.1477
26257W        W46537  12.409   8.318   0.638 -0.0707  0.2657 -0.1770
26258W        W46538   1.926   6.900  12.912 -0.0949 -0.2484  0.0869
26259W        W46539  17.590   3.631   2.250  0.0366 -0.2326  0.0459
26260W        W46540   2.600  15.386   1.971 -0.1011 -0.2609 -0.0551
26261W        W46541   0.603  13.594   2.811  0.1187 -0.4399  0.1837
26262W        W46542   4.801   9.861  12.496  0.0697  0.2978 -0.4131
26263W        W46543   5.727   3.405   1.024  0.1881 -0.0566  0.4013
26264W        W46544   5.513   7.533  13.983  0.1801  0.0213  0.0683
26265W        W46545   9.131   5.414   2.328  0.1167 -0.2491  0.2352
26266W        W46546  14.068  17.430  16.966 -0.0670 -0.0616  0.4284
26267W        W46547   4.756  11.720  14.214 -0.0005 -0.0791 -0.0708
26268W        W46548  16.138  11.278   3.224  0.0575  0.0215  0.1355
26269W        W46549  15.717  13.630   2.205 -0.3099 -0.0185 -0.3128
26270W        W46550  16.751   4.577   2.579  0.1806  0.1624  0.0360
26271W        W46551  10.551  10.399  16.345  0.1228 -0.0202 -0.1275
26272W        W46552   8.687   7.346   1.025 -0.1101 -0.3880 -0.0365
26273W        W46553   1.408   8.012  13.699 -0.3719 -0.0079  0.1754
26274W        W46554  16.509  17.060  14.729  0.0464 -0.0413 -0.2048
26275W        W46555  15.133   8.172   3.892 -0.0044 -0.1515 -0.3407
26276W        W46556  14.612   7.455   0.874 -0.2018  0.1322 -0.1287
26277W        W46557   4.118  12.010   2.047 -0.0177 -0.1436 -0.2587
26278W        W46558   3.451  15.438  12.902 -0.0482 -0.1423 -0.0417
26279W        W46559   5.426  13.019  17.019 -0.0947  0.1208  0.1952
26280W        W46560  10.282   2.027  15.425 -0.2015 -0.0440  0.0720
26281W        W46561   1.491  11.962   0.146 -0.0450 -0.1784  0.0845
26282W        W46562   0.917   2.002   5.552 -0.1590 -0.1926  0.3281
26283W        W46563  12.540  15.303  16.772 -0.1011 -0.1145 -0.3232
26284W        W46564  11.429   2.552  12.797 -0.0945  0.2822  0.1118
26285W        W46565   2.400  16.302  15.416  0.0971  0.0156 -0.1216
26286W        W46566  17.680  14.038  14.131 -0.0751 -0.2160 -0.1499
26287W        W46567   8.272   6.963   1.208  0.0339  0.2625  0.0639
26288W        W46568   8.024   8.407   2.589  0.0836 -0.0353  0.0741
26289W        W46569  11.734   9.510   5.133  0.2963 -0.1639 -0.0113
26290W        W46570   6.450   5.157  13.151  0.2257 -0.0932  0.1376
26291W        W46571  11.405  14.369   3.070  0.1168  0.3362 -0.0512
26292W        W46572   0.737   2.861   0.402  0.0079 -0.2715  0.1399
26293W        W46573   2.183  12.919   0.463  0.1082 -0.3518 -0.0707
26294W        W46574   3.878  15.811   1.661 -0.1896 -0.1140  0.3755
26295W        W46575  13.781  12.738   0.821  0.1158  0.2405  0.1284
26296W        W46576   6.796  17.520   2.597 -0.3266  0.0633 -0.2807
26297W        W46577   9.274  10.618   4.755  0.1104 -0.0182 -0.0350
26298W        W46578  16.446  10.270  14.927  0.1526 -0.1234 -0.0428
26299W        W46579  17.616  14.515   2.245  0.2438  0.0804  0.2537
26300W        W46580  16.793  15.648  15.644  0.2302 -0.0199  0.0503
26301W        W46581   1.613   3.465  16.242  0.2376  0.1785  0.0618
26302W        W46582   0.601  16.972   4.127  0.1531  0.0334 -0.2277
26303W        W46583   9.655   5.967   0.825 -0.3280 -0.1073  0.3757
26304W        W46584   7.677   4.289   1.350  0.0545 -0.4518  0.0371
26305W        W46585   2.077  13.784  12.570  0.0778 -0.2818 -0.0969
26306W        W46586  13.557   0.928   4.736 -0.2064 -0.2595 -0.0391
26307W        W46587  12.150  15.028   1.435 -0.1451  0.0944 -0.1716
26308W        W46588   3.345  16.704  12.060 -0.2607  0.1067 -0.2600
26309W        W46589   1.834   1.778  16.039 -0.3382  0.0710  0.0364
26310W        W46590   2.282   6.204  16.823 -0.1236 -0.1053 -0.2217
26311W        W46591   1.684   3.542   1.927 -0.0827  0.0223  0.1199
26312W        W46592   5.510   1.116  16.484  0.1809  0.1330 -0.0080
26313W        W46593  10.794   2.800   3.348 -0.1990  0.1029  0.1172
26314W        W46594   1.988   3.907   5.315  0.1029  0.1431 -0.0116
26315W        W46595   9.515  15.720  12.844  0.0954 -0.2469 -0.1973
26316W        W46596   1.089  13.151   0.773  0.1517 -0.1639  0.0063
26317W        W46597   1.197  11.744   3.052  0.2278 -0.2972 -0.0017
26318W        W46598  15.618  12.406   1.823 -0.1641  0.2966  0.0536
26319W        W46599  13.285  13.957  16.772  0.0647 -0.1166 -0.0448
26320W        W46600  16.611   6.554   4.376  0.1714  0.4514 -0.1462
26321W        W46601   0.553   2.037   2.466  0.1149 -0.2140  0.0382
26322W        W46602  13.927  16.009   3.435 -0.2055  0.1998  0.2248
26323W        W46603   3.662   6.857  13.609 -0.0654  0.0472 -0.0523
26324W        W46604  15.874   2.619   4.139  0.2100  0.1782 -0.0957
26325W        W46605   2.385   8.406  16.227  0.0977 -0.1225 -0.1065
26326W        W46606   4.678  10.361   0.836 -0.2424 -0.0353  0.0308
26327W        W46607   8.182  16.589  14.840  0.1309 -0.0511 -0.0554
26328W        W46608   3.156  12.963   3.311 -0.1655 -0.2825  0.1009
26329W        W46609   2.358  13.678  13.470  0.2479  0.2144 -0.1759
26330W        W46610   9.402   4.249   3.789  0.0864 -0.0442 -0.0055
26331W        W46611  10.428  13.026  13.427 -0.1010 -0.2749  0.0318
26332W        W46612  11.372  11.918  13.488  0.0514  0.2056 -0.1065
26333W        W46613   2.041   4.184  14.568  0.1080 -0.3053 -0.0746
26334W        W46614   0.260   2.437   1.275  0.0426 -0.2518  0.0535
26335W        W46615   8.465  14.649   1.349  0.4680  0.2278  0.1651
26336W        W46616  16.505  13.619   3.525  0.0563 -0.2594  0.1762
26337W        W46617   7.948  15.596  15.149  0.0634 -0.1910  0.0632
26338W        W46618  14.033   5.280   2.932 -0.0602  0.3884 -0.4472
26339W        W46619  11.945  16.116   4.431 -0.0523 -0.0078 -0.1637
26340W        W46620  17.281   7.240  13.248  0.0579 -0.2656  0.1425
26341W        W46621   1.435  12.866   4.381 -0.2651  0.2387 -0.2031
26342W        W46622  17.320   0.851  15.769  0.3358 -0.2540  0.1006
26343W        W46623   8.307   7.302  16.206 -0.0823 -0.2943  0.2824
26344W        W46624   9.621   1.542   3.695  0.1500  0.0448  0.1849
26345W        W46625  13.670  14.219  16.564  0.3524  0.4611 -0.0226
26346W        W46626  17.270   9.571  14.470  0.0570  0.2162  0.1096
26347W        W46627   7.680   4.269  15.876  0.1580 -0.3129  0.0364
26348W        W46628  12.562  12.152   2.662  0.0438 -0.0103  0.2445
26349W        W46629   3.076  10.108  16.922  0.1944  0.1832  0.0466
26350W        W46630   5.211  10.450  14.154  0.2407 -0.1495  0.2529
26351W        W46631   6.212   1.885  15.961  0.1052 -0.0567 -0.0758
26352W        W46632  12.551  14.138   2.478 -0.0323  0.0716 -0.0175
26353W        W46633  13.525  12.966  12.486  0.0057  0.2709 -0.0040
26354W        W46634  17.456  17.422   1.283  0.1287  0.2931  0.0544
26355W        W46635   1.136  14.169  13.259 -0.1172  0.1675 -0.0614
26356W        W46636   0.191   2.063  15.912  0.0227 -0.0524 -0.2912
26357W        W46637   3.595  15.400   4.018  0.0366  0.0777 -0.0835
26358W        W46638  12.870   7.532   3.771 -0.0468 -0.1382 -0.0287
26359W        W46639   0.087  14.983   2.171 -0.0713 -0.2044 -0.1392
26360W        W46640  16.642   7.405  17.016 -0.0879  0.2460 -0.0219
26361W        W46641   3.165   7.254   2.715  0.0794 -0.3031  0.1439
26362W        W46642   2.115   8.296   0.054  0.0530  0.0736  0.0347
26363W        W46643  12.652   8.504   3.198  0.1017 -0.1756  0.0035
26364W        W46644  11.579   6.462  13.194 -0.3271  0.0136  0.3818
26365W        W46645   9.450   9.641  16.177 -0.2280  0.2771  0.2470
26366W        W46646   7.259   3.999  16.187 -0.1199  0.2285  0.1109
26367W        W46647   3.151   7.756   2.629  0.0095 -0.0433 -0.2493
26368W        W46648   5.729   3.538  16.261  0.1492  0.0435 -0.1625
26369W        W46649   2.346  15.560   3.555  0.2282  0.1015  0.0799
26370W        W46650  17.432   6.986  13.711  0.1133 -0.2577 -0.0382
26371W        W46651   6.015   2.401   2.863  0.1102  0.0839 -0.1266
26372W        W46652   7.826   3.234   3.229 -0.1207 -0.0765  0.0869
26373W        W46653   2.006  12.406  14.591 -0.0908  0.1504 -0.0807
26374W        W46654   3.176   6.080   3.393 -0.1667 -0.0014 -0.2074
26375W        W46655   4.062   7.798   2.419 -0.1703  0.1991 -0.2324
26376W        W46656   3.630   1.870   4.102  0.1976  0.0550 -0.0361
26377W        W46657  17.603   5.324  16.263  0.1794 -0.2778  0.0734
26378W        W46658  10.729   8.859   3.223  0.0224 -0.0965 -0.2839
26379W        W46659  10.060  15.893   4.636 -0.2159  0.0521  0.2562
26380W        W46660  17.319   5.043   2.712 -0.0651  0.2816  0.0035
26381W        W46661   9.932   3.553   1.016  0.2018 -0.0976  0.0564
26382W        W46662  11.712  16.441  14.013  0.0002  0.2114 -0.0391
26383W        W46663  17.303  14.942   2.172  0.0759 -0.0864 -0.0196
26384W        W46664   9.902  14.788   0.406 -0.1323  0.1611  0.1892
26385W        W46665  14.522   9.114  16.851 -0.0298  0.1100 -0.2155
26386W        W46666   5.079   2.877   1.455 -0.1565 -0.3022 -0.1038
26387W        W46667  13.703   8.828   2.920  0.0947 -0.1919 -0.0464
26388W        W46668  16.714  14.180   5.261  0.2125 -0.1321 -0.0863
26389W        W46669  14.788   8.818   4.695  0.0688  0.2348 -0.0540
26390W        W46670   3.227   4.336   0.846 -0.1061  0.0481 -0.0525
26391W        W46671   6.405  13.249   0.227  0.1200 -0.0363 -0.0590
26392W        W46672   2.453   7.879  14.577 -0.1310  0.1736  0.2028
26393W        W46673   0.781  10.454  13.830  0.1238 -0.0475 -0.1154
26394W        W46674  11.434  13.506   0.354 -0.1870  0.1150 -0.0668
26395W        W46675   3.033   6.764   0.101 -0.0398 -0.2455 -0.1682
26396W        W46676   4.676   4.023   2.429  0.1678 -0.0042 -0.4002
26397W        W46677  16.149  16.010  16.889 -0.3503  0.0405  0.1564
26398W        W46678   5.561   1.785  16.761 -0.0572 -0.1600  0.2283
26399W        W46679  15.477  10.953  12.744  0.1745  0.0852  0.1486
26400W        W46680  12.954  13.627  15.568  0.1928  0.0895 -0.1096
26401W        W46681   2.217  16.704  16.794  0.0979 -0.0529 -0.0820
26402W        W46682   2.788  14.881   0.738  0.0696  0.2293 -0.0483
26403W        W46683   9.558  10.229   2.079  0.1016 -0.0364  0.0261
26404W        W46684  12.272   4.367  14.281  0.2985 -0.0028 -0.0262
26405W        W46685  13.291   9.877  14.164  0.2031 -0.2865  0.0364
26406W        W46686   5.005  13.797  12.784 -0.1824 -0.0191 -0.0794
26407W        W46687   0.156  15.155   3.990 -0.1789 -0.1274  0.0005
26408W        W46688  10.749  14.253  13.942  0.1005 -0.0754 -0.0610
26409W        W46689   3.500  14.223  12.574  0.2441  0.0184  0.1799
26410W        W46690   8.948   1.135   3.235  0.1408  0.2523  0.1898
26411W        W46691  11.536  11.916  12.996  0.0701  0.1281 -0.1887
26412W        W46692  13.137  17.418  13.802 -0.0837  0.0648 -0.2434
26413W        W46693   5.731   1.719   4.736  0.1131 -0.2105 -0.0506
26414W        W46694   7.730  11.451   1.541 -0.0076  0.0808  0.0460
26415W        W46695   9.705  11.393   1.720 -0.1339 -0.1230  0.1848
26416W        W46696  15.628  14.141   0.519  0.2393  0.0792 -0.2490
26417W        W46697   9.032  14.690  15.045 -0.2665 -0.2127  0.0585
26418W        W46698   5.624   9.632  14.103  0.4420  0.1586  0.1498
26419W        W46699   2.849   2.438  14.784  0.0782  0.0916 -0.2090
26420W        W46700   8.789   2.497  16.972  0.0006  0.1321  0.0851
26421W        W46701   0.218   3.665  14.787 -0.1977 -0.0722  0.0002
26422W        W46702   6.874   6.713   1.077  0.0313  0.0431  0.2027
26423W        W46703  15.091   6.215  13.863  0.1259  0.1507 -0.0501
26424W        W46704   8.497   6.814   3.228  0.0231  0.0270 -0.2378
26425W        W46705   1.699  17.632   2.243  0.0779 -0.0458 -0.0351
26426W        W46706   6.768  15.311   0.025  0.1574  0.1494  0.1319
26427W        W46707  15.943   3.421  16.656 -0.2300  0.1472 -0.0857
26428W        W46708   5.854   5.664   4.331  0.0332  0.4666  0.1844
26429W        W46709  14.629  12.969  15.067  0.0103 -0.3053  0.1107
26430W        W46710   9.515  17.552   1.075 -0.1440 -0.0679 -0.2993
26431W        W46711   8.141   8.811  15.947  0.1592 -0.1361 -0.0240
26432W        W46712  13.299  15.420  14.947  0.0931 -0.0630 -0.0671
26433W        W46713   0.411   7.819   0.570  0.0355 -0.5076 -0.2601
26434W        W46714  14.325   9.641   1.122 -0.3350  0.0009  0.2138
26435W        W46715  13.678   5.349   0.839  0.2268 -0.0916  0.0944
26436W        W46716  12.749  12.691   3.314 -0.1477 -0.2502  0.1637
26437W        W46717  14.238  14.003  13.182 -0.2984  0.0530  0.1387
26438W        W46718   2.598   8.889  12.700 -0.1116 -0.0421  0.0877
26439W        W46719   9.027   0.479   0.858 -0.2374 -0.1267  0.1684
26440W        W46720   6.631   2.486   2.127 -0.1280 -0.0370 -0.2685
26441W        W46721  13.697   7.563  13.189  0.0799 -0.1234 -0.3464
26442W        W46722   4.451   5.097  14.517  0.1678  0.0013 -0.1118
26443W        W46723   8.448  13.668   4.068 -0.1580  0.0024 -0.2565
26444W        W46724   6.584   1.089   3.942  0.1099 -0.2717  0.0772
26445W        W46725   3.012   6.235   1.521 -0.1579  0.1337  0.1479
26446W        W46726   4.639   0.973  16.447 -0.2049 -0.0949  0.0579
26447W        W46727  17.190   5.523   1.353  0.0098 -0.2302  0.3087
26448W        W46728   6.802   6.340   3.479  0.0071 -0.2561 -0.1208
26449W        W46729   2.330   6.748   2.191  0.1201  0.0941 -0.0052
26450W        W46730   2.378  10.838  13.728 -0.3216 -0.0214 -0.1931
26451W        W46731   5.096  15.437  12.566 -0.3492  0.1373  0.0256
26452W        W46732   8.047   2.710  14.398 -0.1155  0.1220 -0.1666
26453W        W46733   3.518  17.016   1.174 -0.1026  0.1763  0.1813
26454W        W46734   5.141  11.302  12.431  0.0919  0.0691  0.1845
26455W        W46735  12.543   9.046   0.499  0.2041  0.3799 -0.0438
26456W        W46736   9.660  16.468  16.019 -0.0777  0.1127  0.2215
26457W        W46737   6.084   9.566  12.462 -0.1551  0.0512  0.1671
26458W        W46738   8.057   7.464  15.667 -0.2862 -0.0885 -0.0781
26459W        W46739  10.174  11.317  14.029  0.1731 -0.0887 -0.0371
26460W        W46740   9.641   5.185   2.156 -0.1190 -0.1311  0.0454
26461W        W46741   6.147  12.420  15.103  0.0774 -0.0594 -0.0343
26462W        W46742  13.967   5.302   1.310 -0.2294  0.1266  0.3334
26463W        W46743   0.598  17.224  13.775  0.2602 -0.1909  0.0546
26464W        W46744  11.171   6.246  16.621  0.2735  0.1129 -0.1353
26465W        W46745  15.524   4.846   2.953 -0.2800  0.0162 -0.1109
26466W        W46746  15.612  14.472  14.241  0.0579  0.0748 -0.1259
26467W        W46747   3.108  14.187  15.100  0.3166  0.3982 -0.4166
26468W        W46748   9.172   7.560   2.868 -0.3794 -0.4038  0.4154
26469W        W46749  11.662   3.773  14.564 -0.0454 -0.1607 -0.0220
26470W        W46750  12.962   5.968  16.271 -0.6360  0.0173  0.0813
26471W        W46751   6.478  11.497  15.366 -0.0401  0.0918 -0.2027
26472W        W46752   6.041  16.000  14.428  0.0316 -0.0859 -0.1484
26473W        W46753   7.992  10.768   3.548 -0.3415 -0.2752 -0.2405
26474W        W46754  16.606   4.952   4.522 -0.2165  0.2236 -0.2732
26475W        W46755   3.833  10.841  16.403  0.0044  0.1928 -0.0314
26476W        W46756  11.282   3.138  14.603 -0.1821 -0.1374  0.2202
26477W        W46757   4.026   0.295   1.538 -0.1384 -0.1088  0.1069
26478W        W46758  11.148   8.821  15.815 -0.1745  0.0809  0.1560
26479W        W46759  14.070  15.003   0.533 -0.0525  0.1043 -0.1119
26480W        W46760   8.981   5.129  13.010 -0.1041  0.1029  0.0604
26481W        W46761   9.667  10.308  13.050 -0.1688  0.3363 -0.3461
26482W        W46762  10.297   8.856  14.059  0.2786 -0.0213  0.1803
26483W        W46763   8.807  13.048   0.663 -0.0285  0.1067 -0.2210
26484W        W46764   3.167  16.730  13.921 -0.0833  0.2514 -0.0842
26485W        W46765  16.079   1.704   0.070  0.0173  0.0538  0.1893
26486W        W46766  13.542  17.167   2.370 -0.0345  0.1818 -0.0458
26487W        W46767  13.596  17.490   1.277 -0.0636  0.0691  0.1686
26488W        W46768   6.475   6.108   1.202  0.2934  0.1435  0.0380
26489W        W46769   6.789  10.012  13.377  0.0027  0.2313  0.2058
26490W        W46770   9.405  15.877   3.296  0.0997  0.0618 -0.0400
26491W        W46771   7.941  13.307  16.896  0.0023  0.0283 -0.1631
26492W        W46772  10.242   7.559  15.466  0.0402  0.1095 -0.0463
26493W        W46773  11.404   2.352  16.067  0.2953 -0.2569 -0.1654
26494W        W46774   0.318   7.663  15.361  0.1149  0.0180  0.0304
26495W        W46775   8.901  14.430   4.508  0.1035 -0.0282  0.0295
26496W        W46776   1.980   3.646  12.359 -0.2546 -0.0805 -0.0266
26497W        W46777   1.760   9.542   2.214 -0.1650 -0.0806  0.0795
26498W        W46778   4.541  10.027  15.872 -0.0401 -0.0959  0.1893
26499W        W46779  11.379   0.407   2.280  0.1350 -0.3316 -0.2130
26500W        W46780  11.889   3.184  15.717  0.0795 -0.0349  0.0309
26501W        W46781   9.961   9.233   2.908  0.2365  0.4483 -0.0456
26502W        W46782   9.972   1.652   2.739  0.0667 -0.0693 -0.1976
26503W        W46783   1.639  15.090  14.878  0.0282  0.0013 -0.1695
26504W        W46784  13.051  12.327  15.972 -0.2326  0.1882 -0.0048
26505W        W46785   2.790   8.681  16.735  0.4446  0.2173  0.2629
26506W        W46786   2.171   0.441  12.778 -0.1991 -0.3265 -0.0680
26507W        W46787  13.566  12.036   4.855  0.0068  0.2029  0.3677
26508W        W46788   4.104  16.093  15.207  0.2064  0.0200 -0.2192
26509W        W46789   5.388   9.978  13.276 -0.2800  0.1801 -0.1318
26510W        W46790  14.910   4.940   1.350 -0.0101  0.1502  0.1655
26511W        W46791   9.396  17.001   4.669 -0.2022 -0.0999 -0.0043
26512W        W46792  12.519  16.969   4.932 -0.2265  0.0604 -0.0519
26513W        W46793  15.300  11.751   0.635  0.1754  0.2948 -0.1065
26514W        W46794  15.289   0.651   0.755  0.2427 -0.2108  0.1211
26515W        W46795   8.558   1.361  16.931  0.1462  0.2431 -0.0627
26516W        W46796   8.770   5.046   0.563 -0.1907 -0.1266 -0.1733
26517W        W46797  11.550   8.166  13.403 -0.0613  0.2532  0.1942
26518W        W46798   3.158   3.062   0.717  0.1855  0.1406 -0.1256
26519W        W46799   3.444   5.682  12.812 -0.2577  0.2860  0.0239
26520W        W46800   5.881  14.029   1.806 -0.1413 -0.0286  0.0531
26521W        W46801   2.693  10.750   1.692  0.2142 -0.0336 -0.2140
26522W        W46802  11.380   1.278   2.086 -0.3083 -0.1232 -0.1325
26523W        W46803  15.285  11.324   0.175  0.0468  0.2373  0.3996
26524W        W46804   0.177  12.325   4.921  0.0638  0.0003 -0.1577
26525W        W46805   5.095   2.294  14.614 -0.0753  0.3531  0.0009
26526W        W46806  12.678   5.891   1.290 -0.0235 -0.1701 -0.2862
26527W        W46807   9.978   2.225  14.157 -0.0992  0.5578 -0.1985
26528W        W46808  11.054   3.135  11.681 -0.0702 -0.1642  0.0020
26529W        W46809   3.253   1.371  13.073  0.1150  0.2181 -0.1241
26530W        W46810   6.634   0.391   0.800  0.0062  0.1418  0.0415
26531W        W46811  12.362   8.635   1.023  0.0491  0.1732 -0.0028
26532W        W46812  16.985  12.915   2.789  0.0341 -0.0357  0.0993
26533W        W46813   3.217   3.627  14.141  0.0592 -0.0136  0.1267
26534W        W46814  10.538   9.462   1.203  0.1528 -0.2089  0.1430
26535W        W46815   7.096   1.030   1.194 -0.0548  0.3451 -0.2538
26536W        W46816  14.042  10.871  16.259 -0.1725 -0.1288  0.2365
26537W        W46817  14.681  10.859  14.621 -0.0266  0.1657  0.0377
26538W        W46818   6.716  16.442  15.761  0.0576  0.0499 -0.0317
26539W        W46819  12.609   2.741  14.224 -0.2468  0.0310 -0.2836
26540W        W46820  14.465   3.224  13.751  0.0382  0.1168  0.2172
26541W        W46821   8.228   2.335  14.138 -0.1032 -0.1425  0.2569
26542W        W46822   2.712   2.989   3.276 -0.3799  0.0193 -0.0279
26543W        W46823  15.234   7.632  12.956  0.0556 -0.3068  0.0729
26544W        W46824   7.992  16.138   2.184 -0.0124 -0.0664  0.3866
26545W        W46825  10.546   4.560  15.885  0.0752  0.0034 -0.0050
26546W        W46826   5.067  16.039  13.767  0.1445 -0.1299  0.0762
26547W        W46827   8.242  13.250  13.921 -0.0716 -0.3976 -0.1149
26548W        W46828  14.372   0.780   4.209  0.4656  0.2882  0.3138
26549W        W46829   0.099   6.044  12.193  0.0296 -0.3004  0.0822
26550W        W46830   8.729   3.027   0.162  0.1302  0.0398  0.1167
26551W        W46831   2.151  17.605  12.902  0.1720 -0.1795  0.0906
26552W        W46832   5.469   8.416  11.953  0.1839 -0.1365 -0.0309
26553W        W46833  16.472   9.762   5.185  0.0777 -0.2612  0.2007
26554W        W46834   0.279  16.641   3.885 -0.0447 -0.0132 -0.0089
26555W        W46835   4.270  13.410  15.053 -0.1688  0.0525  0.1716
26556W        W46836   9.866   9.720  15.068 -0.3156  0.2807 -0.0390
26557W        W46837   3.275  14.598  12.987  0.0285 -0.0672 -0.1303
26558W        W46838  10.631   9.743   4.268  0.2778 -0.0366 -0.2471
26559W        W46839   1.376  11.818   3.484 -0.1390 -0.3530 -0.0444
26560W        W46840   5.818  10.337  15.822 -0.1705  0.0339 -0.2051
26561W        W46841  16.189  15.250   0.170  0.0798  0.1916 -0.1503
26562W        W46842  16.192  12.962   2.530  0.1901  0.0973 -0.1185
26563W        W46843   1.598   1.802  14.803 -0.2466  0.0583 -0.1165
26564W        W46844   5.187   7.006   4.047 -0.2757 -0.2760  0.0384
26565W        W46845   6.992  13.415  14.883 -0.0164 -0.1075  0.1291
26566W        W46846  16.716  10.331   5.053 -0.1643  0.0477  0.1118
26567W        W46847  15.344  17.298  16.833 -0.1617  0.1461 -0.0168
26568W        W46848   8.645  12.742  14.481 -0.2937  0.3187 -0.3685
26569W        W46849  12.191   6.673   2.363 -0.0342 -0.1669 -0.1124
26570W        W46850   0.845   9.075   3.647 -0.1794  0.1085  0.3095
26571W        W46851   1.990   9.395   0.402 -0.3812 -0.0157  0.1228
26572W        W46852  10.290   3.865   1.863 -0.0636  0.0912 -0.1315
26573W        W46853  12.637  14.630   0.287 -0.1478  0.0926  0.0686
26574W        W46854   2.380   3.064  15.099 -0.0459  0.3161  0.3617
26575W        W46855  12.139   5.153   2.437  0.0538 -0.1442 -0.0546
26576W        W46856  14.550   5.712  15.076 -0.0194 -0.1580 -0.1687
26577W        W46857  10.942   1.171  14.193  0.1743 -0.4076  0.0207
26578W        W46858  16.612  17.314  16.551 -0.3038  0.0385  0.1537
26579W        W46859  15.227   9.886   2.193 -0.1790  0.0094  0.0729
26580W        W46860   3.675   2.529  14.590 -0.0086  0.1030  0.1058
26581W        W46861  14.718   0.586   3.561 -0.4265  0.1380 -0.1859
26582W        W46862   9.284  15.876  15.016 -0.1436 -0.3981  0.0146
26583W        W46863  11.482  11.432  16.056 -0.0670  0.1553 -0.0181
26584W        W46864  10.883  15.731  14.503  0.0355 -0.1886 -0.4055
26585W        W46865  14.259   4.698  12.575  0.1351  0.2267 -0.1068
26586W        W46866  12.392   0.319  15.299  0.2567 -0.2505  0.0201
26587W        W46867   8.362   5.883  14.043  0.1282 -0.0464 -0.0366
26588W        W46868  17.441  14.809   4.689  0.1062 -0.1047 -0.3180
26589W        W46869  12.132   5.188  14.038 -0.0795 -0.1087  0.1289
26590W        W46870   7.201  10.255  16.584  0.2387 -0.0161 -0.1281
26591W        W46871   2.627  16.124   1.523 -0.1195 -0.0694  0.1178
26592W        W46872   5.992  17.013   2.486 -0.0475 -0.0173  0.0108
26593W        W46873   9.199   8.021   2.710  0.3382  0.0512 -0.0008
26594W        W46874  15.749   5.790  15.474 -0.1574 -0.0749  0.2187
26595W        W46875  10.254   1.113   0.702  0.2033 -0.0800 -0.2883
26596W        W46876   8.577   7.230   5.159 -0.1762  0.0669  0.0485
26597W        W46877  13.526  10.300  12.396  0.1588  0.0288 -0.2832
26598W        W46878   9.439   4.193   1.463  0.0316  0.1211 -0.1399
26599W        W46879  14.108  11.346   2.073 -0.1055  0.2285  0.1816
26600W        W46880   3.785   5.823   2.110  0.3095  0.0397 -0.0692
26601W        W46881  16.046   7.425  12.964  0.1208 -0.1071 -0.0519
26602W        W46882  17.106   1.121  12.505  0.0552  0.1594 -0.2829
26603W        W46883   9.031  11.145   0.272 -0.0446 -0.1251  0.0790
26604W        W46884   6.688  15.181  15.140  0.1319 -0.0857 -0.0983
26605W        W46885  10.170   9.623   2.686  0.2415 -0.2784 -0.0409
26606W        W46886   3.800  15.629  14.447 -0.1652  0.0510 -0.0189
26607W        W46887  10.749   6.596  11.945 -0.0173  0.1483 -0.0855
26608W        W46888   4.679   9.321  15.515 -0.3115  0.1052  0.0075
26609W        W46889   6.688   3.722   3.904  0.0821 -0.0744  0.2352
26610W        W46890  11.025   1.462   4.153  0.1191  0.3354 -0.1362
26611W        W46891  17.004   2.703   3.765  0.1698  0.0767  0.1586
26612W        W46892  10.284  13.481   2.962 -0.0460 -0.1229 -0.3644
26613W        W46893  12.771  12.055   1.523  0.0067 -0.0644  0.0546
26614W        W46894   6.638   2.862   2.597 -0.4997  0.2647 -0.1284
26615W        W46895   0.990  16.818   0.308  0.1834  0.1363  0.1826
26616W        W46896  10.468   8.375   2.643 -0.0505  0.0198 -0.0399
26617W        W46897   0.137   4.741  14.607  0.2616 -0.0596  0.1571
26618W        W46898   3.971  16.893  14.740  0.0646  0.1010 -0.0459
26619W        W46899  13.686  11.732   0.907  0.0617  0.0019 -0.3758
26620W        W46900  15.213   2.186   3.908  0.0794  0.0788 -0.0831
26621W        W46901  14.480  14.186  15.596 -0.2776  0.0910 -0.3594
26622W        W46902  12.167  12.778  14.974  0.0910 -0.3169  0.0460
26623W        W46903   7.751   6.354   2.447  0.2169 -0.0301  0.0592
26624W        W46904   2.212  11.103  15.128  0.1221 -0.1088  0.0161
26625W        W46905  11.174   7.684   2.903  0.1779 -0.1014  0.0800
26626W        W46906  12.822  12.303  14.871  0.2589  0.0900 -0.0321
26627W        W46907  13.442  12.259   2.069 -0.3208  0.0825 -0.1595
26628W        W46908   5.771   0.665  14.227 -0.2474  0.2788  0.0364
26629W        W46909   4.374   4.776   1.777 -0.1668  0.0812  0.0282
26630W        W46910  11.846  14.815  12.351 -0.0522  0.1879  0.0214
26631W        W46911   7.801  16.215   0.497 -0.2428  0.0430 -0.1767
26632W        W46912  15.657   1.809  13.383  0.2456  0.2486 -0.1167
26633W        W46913   6.990  16.889  15.658  0.2106  0.1513 -0.3188
26634W        W46914  16.801  16.554  13.015 -0.0419 -0.1200 -0.3158
26635W        W46915  12.831  17.365   1.876  0.2057  0.3009  0.2124
26636W        W46916   5.803   3.536  12.310  0.1656 -0.2756  0.1205
26637W        W46917  16.043   8.910   0.931  0.1291 -0.1114 -0.3594
26638W        W46918  10.797   7.073  13.327  0.3067 -0.0177  0.0171
26639W        W46919   1.825  11.385   2.271  0.0412 -0.3592 -0.0089
26640W        W46920  15.435  12.693   2.633  0.1223 -0.2181  0.0539
26641W        W46921  16.642  15.117   4.306 -0.0763  0.2283  0.0011
26642W        W46922   5.890  16.663  12.223 -0.2829 -0.3413 -0.2097
26643W        W46923   5.839   6.460   1.240 -0.0340  0.1061  0.2023
26644W        W46924   3.588   2.191   4.927  0.2051 -0.1665 -0.3536
26645W        W46925   0.810   2.160  16.708 -0.1554 -0.3790 -0.1082
26646W        W46926   4.861   6.059  16.362  0.1516 -0.0228  0.0813
26647W        W46927  14.311   8.121   1.395 -0.2765  0.0538 -0.0040
26648W        W46928   4.320   7.255  14.658  0.2531  0.0904 -0.0519
26649W        W46929   9.356  16.762  14.215  0.0163  0.2696 -0.0955
26650W        W46930  13.073  15.127  14.469  0.0270 -0.1076  0.1844
26651W        W46931   5.130  17.182   2.081  0.0248 -0.2372 -0.0621
26652W        W46932   9.757   0.438  13.767 -0.1281 -0.1560 -0.0749
26653W        W46933  13.849   1.996  14.181 -0.2393  0.1519  0.1735
26654W        W46934   2.122  14.406   2.706  0.3633  0.0237 -0.0403
26655W        W46935   6.150  10.678  12.060 -0.0253 -0.0454 -0.1846
26656W        W46936   9.449  13.641  16.600 -0.1312  0.0089 -0.1288
26657W        W46937   7.247  17.086   3.622 -0.3444 -0.0149 -0.0682
26658W        W46938   0.923   8.566  13.017  0.1566 -0.0483 -0.0363
26659W        W46939  14.600  11.856   3.904 -0.1215 -0.0061 -0.1708
26660W        W46940  13.130  10.094   0.740  0.1904 -0.0323  0.0679
26661W        W46941  13.192   5.718   2.179 -0.4951 -0.2554 -0.1716
26662W        W46942   2.683  13.073   3.620 -0.1001  0.0264  0.3241
26663W        W46943  14.110   6.070   3.716  0.1512  0.3157  0.0194
26664W        W46944  13.558   2.952  16.581  0.3660  0.0052 -0.2043
26665W        W46945  11.928  15.305  13.705 -0.0212 -0.0208  0.3233
26666W        W46946  17.578  10.179  14.286 -0.0764 -0.1385  0.1771
26667W        W46947  10.915   5.894   4.570 -0.0184 -0.2426 -0.2478
26668W        W46948   5.723  11.491  15.130 -0.1176 -0.1676  0.2909
26669W        W46949  15.028   8.258   2.505 -0.0960 -0.0288  0.1180
26670W        W46950   7.245  11.193   0.079  0.1045 -0.2239 -0.0222
26671W        W46951  11.240  11.368  13.234 -0.3187 -0.2225 -0.3643
26672W        W46952  10.401   8.875   4.048  0.0273  0.3280  0.1637
26673W        W46953   6.352   0.166  15.462  0.4168  0.0457  0.2065
26674W        W46954  16.247  15.360   3.507 -0.0185 -0.3541 -0.0252
26675W        W46955   5.414   6.234   0.945 -0.3189  0.1987 -0.1809
26676W        W46956   4.327   1.663   1.405  0.1287  0.3034  0.2404
26677W        W46957   7.152   4.251  15.706 -0.2365 -0.1767  0.0417
26678W        W46958  15.256  14.557   5.916 -0.2216 -0.1779  0.2226
26679W        W46959  15.638  11.661   4.745 -0.3374 -0.1346  0.0078
26680W        W46960  12.802  16.897  15.224  0.0687  0.1873 -0.0627
26681W        W46961  15.951   6.505   3.144  0.0426  0.2173 -0.2657
26682W        W46962   1.673  11.668  16.287 -0.1796  0.2270 -0.2897
26683W        W46963   8.752   0.747   1.188 -0.1028  0.0374 -0.1045
26684W        W46964   6.158   9.615   2.770 -0.0210 -0.0460 -0.0984
26685W        W46965   9.147   9.597   1.410  0.0088  0.1635 -0.2153
26686W        W46966   1.740  10.541  15.769 -0.2766 -0.0582 -0.0889
26687W        W46967   6.296   7.358   4.244  0.1974 -0.0192  0.1517
26688W        W46968   6.508   9.738  15.036 -0.1526 -0.0706 -0.2784
26689W        W46969   1.224   4.231  13.274 -0.1366 -0.0975  0.0184
26690W        W46970  16.305   5.449  14.147  0.0056  0.0983 -0.2284
26691W        W46971  14.476   8.141   3.091 -0.1372  0.1470  0.1422
26692W        W46972  12.092  15.376   3.725 -0.3043 -0.2926  0.2014
26693W        W46973  15.172   0.909  14.311  0.0702 -0.1310  0.2311
26694W        W46974   0.092   4.747  16.516 -0.3377 -0.0611 -0.0190
26695W        W46975   5.469   7.962   5.593 -0.0859 -0.3667 -0.0330
26696W        W46976  14.213  14.078  16.289 -0.2147 -0.0246 -0.2658
26697W        W46977   9.636  16.048  16.324 -0.0565  0.1719  0.0760
26698W        W46978  14.976   1.019  15.741  0.2047  0.1537 -0.2028
26699W        W46979  14.505   4.195   0.415 -0.0135  0.0647 -0.2681
26700W        W46980   1.450  14.226   4.355 -0.1853  0.0780  0.1647
26701W        W46981  11.176   5.004  16.271  0.4975  0.1958 -0.1624
26702W        W46982  15.771   8.195   4.149 -0.2114  0.0505 -0.2113
26703W        W46983   5.153   1.580   1.693  0.2935 -0.0790 -0.2550
26704W        W46984  11.307   2.099   0.397 -0.1737  0.0515 -0.0943
26705W        W46985  12.592   3.564   0.263 -0.2882  0.0583 -0.2454
26706W        W46986  16.693  10.085   2.867  0.1520 -0.0399  0.0816
26707W        W46987   8.360   4.958   2.483 -0.2881  0.1129  0.0639
26708W        W46988   6.917  16.217   1.636  0.3388  0.2701  0.0400
26709W        W46989   4.814   0.447   1.808 -0.2219  0.1457  0.2276
26710W        W46990  12.201  16.372   3.631 -0.2328  0.2426  0.1993
26711W        W46991   3.493   2.827  15.045 -0.1310 -0.1979  0.1256
26712W        W46992   8.224   0.462  13.276  0.1098 -0.0771  0.2579
26713W        W46993  14.524   6.426   4.502  0.0164 -0.2881  0.0876
26714W        W46994  10.646   1.686  16.667 -0.0918 -0.1374  0.1101
26715W        W46995   2.510   5.278  15.369  0.0837  0.5597 -0.1565
26716W        W46996  14.251  10.503  13.104 -0.2255 -0.0737  0.0756
26717W        W46997  13.753   5.155  12.778  0.0186  0.0649  0.1818
26718W        W46998  17.481   7.591  15.986  0.2475 -0.3533  0.4110
26719W        W46999   3.949  16.827   4.215  0.2559  0.0474  0.0959
26720W        W47000  12.667   1.734   2.380 -0.0740  0.1800  0.1679
26721W        W47001  10.677   1.291  13.533 -0.1730 -0.0951  0.0686
26722W        W47002   4.325   9.467  11.946  0.1681 -0.0617 -0.1720
26723W        W47003   8.690   7.864  14.671  0.0067  0.0703 -0.1214
26724W        W47004   1.207   0.742   2.302  0.0136  0.0605  0.2486
26725W        W47005   5.931   1.404  16.725  0.1316 -0.3213  0.1117
26726W        W47006   3.883   6.279  14.608 -0.1940  0.2699 -0.2226
26727W        W47007  12.819  14.143  16.647 -0.0088 -0.0302  0.0689
26728W        W47008   6.873  15.706   2.386 -0.0056  0.4463 -0.0380
26729W        W47009   7.411   4.821   2.143  0.2671  0.3238 -0.1720
26730W        W47010   8.710  15.184  14.476 -0.2553  0.1869 -0.3165
26731W        W47011  12.862   5.875   2.936 -0.0890 -0.3636 -0.0105
26732W        W47012   9.499  10.800  13.075 -0.1868 -0.1264  0.1900
26733W        W47013  16.665   3.149   1.811  0.1190 -0.0965 -0.3271
26734W        W47014   3.707   4.518   4.216 -0.1862 -0.1671  0.1499
26735W        W47015  17.165  14.751   5.164  0.1412  0.0386 -0.1255
26736W        W47016  14.827  11.104   4.472 -0.3936 -0.0045 -0.0716
26737W        W47017   4.637   2.261  16.412  0.0249 -0.0164 -0.3513
26738W        W47018  17.559  12.749   0.929 -0.0786 -0.2151 -0.0335
26739W        W47019  15.776   2.331  14.116 -0.0391  0.1918  0.0219
26740W        W47020   1.090   9.955   1.043  0.1265 -0.1149 -0.1353
26741W        W47021  13.099   8.074  16.720 -0.3493  0.0666  0.0392
26742W        W47022   8.692  11.658  12.319  0.3056  0.1301  0.1629
26743W        W47023  13.692   8.536  12.726  0.0845  0.1128  0.1050
26744W        W47024   7.239   7.638   3.334 -0.0086  0.0066 -0.1846
26745W        W47025   7.728   6.185  13.647 -0.0217 -0.1626 -0.1851
26746W        W47026  16.075   2.206  12.734 -0.5360  0.2105  0.0349
26747W        W47027  14.993   0.598  13.395  0.1055  0.0891 -0.2279
26748W        W47028   1.806   6.103  16.653  0.3351 -0.2195 -0.1673
26749W        W47029   8.015  14.394  12.789 -0.0839  0.0233  0.1986
26750W        W47030  15.114   7.913  15.260 -0.0237 -0.1375  0.1110
26751W        W47031   9.044   0.002   1.109 -0.0055 -0.2154 -0.2097
26752W        W47032  17.265   4.141   2.286  0.1104  0.0995  0.0456
26753W        W47033  16.100   4.381  15.755 -0.2169 -0.0509  0.1516
26754W        W47034   1.076   2.588  13.969  0.2928  0.1247  0.2198
26755W        W47035   2.686   4.336   4.419 -0.1479 -0.1767  0.0416
26756W        W47036  12.624   7.395  16.771  0.0156  0.2022 -0.0721
26757W        W47037  16.162   1.626   2.878  0.1177  0.1886  0.0148
26758W        W47038  10.158   3.512  12.044  0.3038 -0.0768 -0.0774
26759W        W47039  17.282   9.174   3.740 -0.0151 -0.0358  0.2470
26760W        W47040  14.952  13.415  16.383 -0.4394  0.0900  0.2091
26761W        W47041  17.484   1.916   2.155 -0.1688  0.1379 -0.2868
26762W        W47042  15.183   6.712  16.984  0.0197 -0.2200 -0.1970
26763W        W47043  10.025   5.042  14.830 -0.1356  0.0624  0.2305
26764W        W47044  14.839   7.477  15.453  0.0300 -0.2217  0.2022
26765W        W47045   9.615   4.600  16.778  0.1008 -0.2385 -0.0140
26766W        W47046  12.631  11.149  13.861  0.0577  0.0359 -0.2806
26767W        W47047  17.631  11.970  13.971 -0.0394  0.2025 -0.1009
26768W        W47048   6.092   6.381  12.603  0.1815 -0.1557 -0.0165
26769W        W47049  14.859  17.625  16.794 -0.3485  0.1312  0.1338
26770W        W47050   3.770   0.240   2.741  0.0528  0.2424 -0.1965
26771W        W47051  16.503   9.214   4.431 -0.1478  0.1822  0.1722
26772W        W47052  10.328  16.084   0.040  0.0593  0.1172  0.3817
26773W        W47053   4.948   4.603   0.493 -0.1646  0.1327  0.2099
26774W        W47054   2.555   0.585  15.561 -0.3597  0.1235  0.0660
26775W        W47055   6.139   7.925   3.577  0.0721  0.2125 -0.0108
26776W        W47056   3.550  17.726  13.473  0.4108  0.2459 -0.1986
26777W        W47057   9.763  12.056  14.358 -0.0224 -0.0790  0.1028
26778W        W47058   2.056   5.531  13.186 -0.1410 -0.1291  0.0654
26779W        W47059  17.409  15.446  14.892 -0.3042  0.0556  0.4729
26780W        W47060   5.096   7.782  13.799  0.0929  0.3516  0.0738
26781W        W47061  17.518  16.032   0.561 -0.0729  0.2141 -0.1251
26782W        W47062   6.024   9.783   5.082 -0.0926 -0.0085  0.4049
26783W        W47063  16.411   1.242  12.700  0.0500 -0.1085 -0.3674
26784W        W47064  17.198  15.294   4.374  0.0941  0.0855 -0.1276
26785W        W47065   4.101   0.875  13.556  0.3111  0.3663  0.0142
26786W        W47066   7.713  12.141   3.525  0.2024  0.3040 -0.0736
26787W        W47067   0.403   5.696   4.517 -0.1098  0.0747 -0.1480
26788W        W47068   9.450   3.301   4.328  0.0366  0.2148  0.1802
26789W        W47069   0.001  17.082   5.069 -0.0157  0.1762  0.0259
26790W        W47070   5.721   8.605   3.155 -0.1070 -0.2196 -0.0054
26791W        W47071  10.240  13.554   4.689 -0.2525 -0.2290 -0.0029
26792W        W47072   4.982  10.618  17.017 -0.0515  0.0227  0.1858
26793W        W47073  14.348   8.189  16.296 -0.0882  0.0652  0.3216
26794W        W47074   7.238   4.649   4.708 -0.1623  0.2792  0.2111
26795W        W47075  14.110   2.129   4.677 -0.1045 -0.0969  0.1455
26796W        W47076   9.528   2.389   3.116 -0.1958  0.3178  0.0540
26797W        W47077  12.415  14.710   4.435 -0.3666  0.0658 -0.0155
26798W        W47078   9.176   2.556   0.352  0.0497  0.0539  0.4169
26799W        W47079  11.815   9.831   3.158  0.0689 -0.1557 -0.0887
26800W        W47080   4.088   8.960  16.624  0.4266  0.0061  0.1958
26801W        W47081  13.108   3.312   4.294  0.0659 -0.1430  0.0649
26802W        W47082  11.505  14.005   3.465 -0.1481  0.1806 -0.0403
26803W        W47083  13.998   2.911  14.536 -0.0702  0.0281  0.0626
26804W        W47084  16.425  10.511   2.790 -0.0110  0.1226  0.1804
26805W        W47085   2.747   4.260   0.590  0.3893  0.0202  0.0733
26806W        W47086  16.371   6.431   3.376  0.0311 -0.2384 -0.2235
26807W        W47087  16.861   4.915   2.941 -0.0969 -0.0636 -0.2210
26808W        W47088   5.773  17.586   0.484  0.0240  0.1530 -0.1350
26809W        W47089   6.366  17.260   1.360 -0.1128 -0.2502 -0.1456
26810W        W47090  17.639  16.043  16.495 -0.0145  0.2487  0.4922
26811W        W47091  10.902  16.143  13.373 -0.0853 -0.0519  0.1102
26812W        W47092   9.098  14.933   1.729  0.0714 -0.1088 -0.0679
26813W        W47093   8.620   6.808   2.634  0.2662 -0.1687  0.2282
26814W        W47094  16.417  13.736   0.867  0.0995  0.0305 -0.0793
26815W        W47095   6.022   5.619  16.496 -0.1285 -0.2353  0.0794
26816W        W47096  13.983   5.023   2.493 -0.0441  0.2756 -0.1393
26817W        W47097  11.591   4.616  14.108 -0.1812  0.1177 -0.2378
26818W        W47098  17.524  15.857   2.391 -0.2902 -0.1956 -0.0293
26819W        W47099   2.263   5.474   3.356 -0.1104  0.1072  0.2105
26820W        W47100   3.577  15.955  14.003 -0.1721 -0.1046  0.1657
26821W        W47101  11.752   3.688   0.155  0.0638  0.3447  0.0221
26822W        W47102   0.134  16.625  13.499 -0.0427 -0.0220  0.0815
26823W        W47103  10.030  12.746  13.832  0.1043  0.1678 -0.2625
26824W        W47104   2.326  12.596   1.784  0.1805 -0.2658 -0.1405
26825W        W47105  15.852   3.184  13.931  0.2414  0.0330  0.0361
26826W        W47106   9.136  16.280  16.989 -0.2899  0.3425  0.5950
26827W        W47107   0.657   1.113   4.393 -0.1186 -0.0015  0.0871
26828W        W47108  13.219   7.913  12.282 -0.0007 -0.1737 -0.2882
26829W        W47109  12.902   0.407   1.455  0.0248 -0.0716  0.2619
26830W        W47110  12.825  14.799  14.068  0.1102  0.1702 -0.0001
26831W        W47111  12.872   2.776   2.960 -0.3032  0.2069  0.0966
26832W        W47112   9.071  17.273  12.006  0.2310 -0.1123  0.0806
26833W        W47113  12.044  17.022   1.472  0.0898  0.0292  0.1179
26834W        W47114  10.496  10.165  16.862 -0.2703  0.2213  0.0247
26835W        W47115  12.150   3.355  15.285 -0.0345 -0.3645  0.1002
26836W        W47116  12.098   8.323   3.359  0.2749 -0.0907 -0.2181
26837W        W47117   8.805  11.651   3.813 -0.2709 -0.0127 -0.0531
26838W        W47118   1.184  12.015  16.472 -0.2952 -0.0054  0.0054
26839W        W47119   8.544   1.452  15.353  0.2707 -0.0340  0.2304
26840W        W47120  12.425  12.340  15.236 -0.1829  0.3310 -0.0004
26841W        W47121   5.156   1.776  14.544 -0.2950 -0.5548  0.2017
26842W        W47122  12.055   7.892  13.384  0.0065  0.2229 -0.2388
26843W        W47123  16.643   1.541  13.417 -0.0424  0.1822  0.0902
26844W        W47124  11.631  12.529   4.074 -0.0713 -0.0805  0.1739
26845W        W47125   8.789  12.613   2.487  0.1901  0.0506 -0.1833
26846W        W47126  12.883   5.626   4.146 -0.0697 -0.0382  0.0155
26847W        W47127   6.462   4.847   0.699 -0.0802  0.2830  0.2832
26848W        W47128   5.558   0.849   5.147  0.2026  0.1799 -0.0420
26849W        W47129  12.788   1.562   4.623  0.0048  0.0425  0.0621
26850W        W47130  15.047   5.227   0.434  0.0016 -0.2097  0.0200
26851W        W47131  11.028   7.965   1.243 -0.1303  0.2345  0.1490
26852W        W47132   4.328  11.235  13.588 -0.1070  0.0133  0.2376
26853W        W47133  13.215  16.554   0.247  0.2853  0.1682 -0.0993
26854W        W47134   4.869   3.249   0.761  0.1622 -0.1601  0.0806
26855W        W47135   8.802   4.615   4.197 -0.1322  0.1739  0.0339
26856W        W47136   7.902   9.574  14.035  0.0555  0.1861 -0.2170
26857W        W47137  10.353   6.745   4.279  0.0868 -0.4946 -0.1974
26858W        W47138   6.169   0.723   2.791 -0.0906 -0.1014  0.1446
26859W        W47139   7.830  12.873   2.196  0.1644 -0.1328 -0.1021
26860W        W47140   0.841  10.043   3.086  0.0422 -0.0704 -0.2361
26861W        W47141   6.872   9.668   4.435 -0.2520  0.1329  0.0423
26862W        W47142  17.339   0.043  16.295  0.1890 -0.2014 -0.3515
26863W        W47143   4.497  10.334   3.978  0.0459 -0.4589 -0.1957
26864W        W47144   9.585  14.235   2.898  0.0641 -0.1510 -0.2218
26865W        W47145   4.277   9.861  12.753 -0.1790 -0.2704 -0.2113
26866W        W47146   2.392  12.512   0.328  0.2408  0.0235  0.3622
26867W        W47147   5.273  13.767  16.622 -0.1369  0.0177  0.0209
26868W        W47148   4.907   0.919   2.113  0.1717  0.3037  0.2831
26869W        W47149  10.462  15.746   4.344 -0.0108 -0.0368  0.2707
26870W        W47150   9.936   9.230   1.911 -0.3557  0.1545  0.2368
26871W        W47151  14.474  15.426   2.651 -0.0979 -0.0108  0.1107
26872W        W47152  12.289   6.431  16.626  0.0756 -0.0886 -0.2494
26873W        W47153  16.793  11.076   1.033  0.1790 -0.1712  0.1692
26874W        W47154   7.560   4.998  13.936 -0.0315 -0.0827  0.1540
26875W        W47155  14.028   7.481  16.446  0.0611 -0.1530 -0.1226
26876W        W47156  11.172  16.913  15.724 -0.1294  0.2840  0.1069
26877W        W47157   0.575  13.910  14.204 -0.1031 -0.1245 -0.0176
26878W        W47158   7.682  16.027  15.801 -0.1094 -0.1945  0.2147
26879W        W47159   4.431  16.884  15.036  0.3567  0.2764  0.1224
26880W        W47160   7.139  14.423   4.534  0.1371 -0.1981 -0.2428
26881W        W47161   8.727   9.522  13.918 -0.2840 -0.1627  0.1793
26882W        W47162   0.061  12.975   1.565 -0.2288 -0.0167  0.2180
26883W        W47163   8.147   2.105   0.376  0.0380  0.1009  0.0560
26884W        W47164   5.145   2.325   1.353 -0.2793  0.0738  0.0552
26885W        W47165  11.604  10.234  13.937  0.0281  0.0730  0.0953
26886W        W47166  15.016   5.035   2.954  0.0909 -0.0957 -0.0867
26887W        W47167   7.391   4.013   4.662 -0.1493  0.1539  0.1585
26888W        W47168   5.572   9.557  12.335  0.1932  0.0686 -0.1046
26889W        W47169   8.499  11.689  14.277 -0.0494 -0.2901 -0.0575
26890W        W47170   3.552  15.240  15.221 -0.1022 -0.0351  0.0226
26891W        W47171   3.589   1.322   3.024 -0.1108  0.0542 -0.2178
26892W        W47172   8.657   4.747   1.497 -0.0289 -0.1785 -0.0863
26893W        W47173  10.413   3.195  15.573  0.0417 -0.1325 -0.0484
26894W        W47174  12.060   7.105   4.793 -0.1242 -0.3722 -0.1574
26895W        W47175   9.485   9.544   0.734  0.0271 -0.0095 -0.1181
26896W        W47176  10.759  10.308   4.758  0.1710 -0.3032 -0.1600
26897W        W47177   8.035   1.925  13.807  0.3709  0.0650  0.0964
26898W        W47178  12.868   6.881   0.571  0.1541  0.0389 -0.1037
26899W        W47179  15.264  13.726   4.243 -0.1403  0.0272 -0.1094
26900W        W47180   4.667   6.887   4.581 -0.3080 -0.1725  0.0343
26901W        W47181  12.499  13.732  14.745  0.1859  0.1795 -0.2289
26902W        W47182  12.303  12.356   0.595  0.0456  0.1405 -0.0406
26903W        W47183  15.700   5.950  16.409  0.1564 -0.4300  0.0834
26904W        W47184   7.902  13.280   4.516 -0.0461  0.2634  0.1421
26905W        W47185   9.513   2.567   1.395  0.1357  0.0312  0.0383
26906W        W47186   6.706   2.761   0.428  0.1682 -0.2227 -0.1802
26907W        W47187   6.953   8.377  15.347 -0.3693  0.0304 -0.0248
26908W        W47188  13.266  10.231  14.529  0.1110 -0.0821 -0.1546
26909W        W47189   8.130   6.199   4.867  0.1464  0.0874 -0.1040
26910W        W47190   4.991   7.919   3.733  0.1619 -0.2518 -0.0311
26911W        W47191   8.352  11.350  14.659 -0.0081  0.0202  0.0070
26912W        W47192   8.361   8.158  14.454 -0.1304 -0.1208  0.4810
26913W        W47193  13.102   2.763  14.122  0.1515 -0.0670 -0.0718
26914W        W47194  13.686   7.545   3.274  0.1738  0.0192 -0.1551
26915W        W47195   9.834  13.942  13.642  0.0680 -0.0599  0.1469
26916W        W47196  17.222  10.986   1.342 -0.2181 -0.1098 -0.0445
26917W        W47197  12.467  17.126   0.638 -0.1880  0.0533  0.0407
26918W        W47198  14.019   0.356  14.133  0.0390  0.1223 -0.0362
26919W        W47199   8.632   0.202   2.938  0.3122  0.0261  0.0217
26920W        W47200  11.533   7.537  15.320 -0.1397 -0.1723  0.3436
26921W        W47201  10.050  10.590   3.722 -0.0557  0.0704 -0.0294
26922W        W47202   7.276   0.012  15.145 -0.0583  0.1285 -0.0459
26923W        W47203   2.271  16.774   4.410 -0.0125 -0.1322 -0.0379
26924W        W47204   4.898  15.269  15.539 -0.1899  0.0698  0.1736
26925W        W47205   6.096   7.755  12.093 -0.0091  0.2103  0.0855
26926W        W47206   0.020   5.735   1.216  0.0848 -0.0447 -0.2047
26927W        W47207  15.273   9.386   0.439 -0.1586  0.3625  0.0175
26928W        W47208   8.640  11.471  13.768 -0.0879 -0.0414  0.0891
26929W        W47209   6.417   3.659   1.439  0.0115  0.1110  0.0938
26930W        W47210  13.839   9.775   1.298  0.4866 -0.2117 -0.1246
26931W        W47211   3.124   1.453  16.446 -0.0557  0.1390 -0.2656
26932W        W47212  13.478  10.241   2.779  0.1096 -0.0603  0.0269
26933W        W47213  12.497   2.646   0.417 -0.0592  0.2004  0.1343
26934W        W47214   3.607  10.143   3.990 -0.1533 -0.0389 -0.0724
26935W        W47215  12.734  16.598   3.858 -0.1190  0.1843  0.0425
26936W        W47216   9.688   8.522  14.160 -0.2678  0.1269  0.3435
26937W        W47217   8.921  15.572   3.319  0.0073  0.1792 -0.1695
26938W        W47218   7.722  13.189  13.664  0.0704 -0.1687  0.1348
26939W        W47219  10.219   8.836   2.757 -0.0885 -0.1830 -0.1678
26940W        W47220   7.997   7.222  13.943  0.3248 -0.0013 -0.3233
26941W        W47221   5.380   4.126  16.549 -0.0430  0.1593  0.1490
26942W        W47222  17.681  15.044  12.962 -0.1142 -0.0948  0.0724
26943W        W47223   9.987   8.422   2.590  0.0474  0.0700 -0.1533
26944W        W47224  15.318  11.337  12.532  0.0122 -0.0681 -0.3308
26945W        W47225  16.551   1.218   0.484 -0.0334 -0.0128  0.0001
26946W        W47226  11.865  11.715  16.231 -0.1954  0.0663  0.0840
26947W        W47227   8.667   6.815   3.707  0.2124  0.1988  0.0201
26948W        W47228  11.395   8.617  15.458 -0.0703 -0.0945 -0.0577
26949W        W47229  11.587   0.806   0.127  0.1495 -0.0989  0.0534
26950W        W47230   2.831  14.136  15.847  0.1144 -0.1734  0.0618
26951W        W47231   0.510   1.100   3.925 -0.3485 -0.0819 -0.0221
26952W        W47232   2.746  13.221  13.000 -0.2692  0.2332  0.0660
26953W        W47233  12.012   7.815  14.406 -0.0520  0.0155  0.1097
26954W        W47234  10.769  12.882   2.128  0.3012  0.3285  0.1768
26955W        W47235   3.008  15.994  12.609 -0.1317 -0.1957 -0.1547
26956W        W47236  12.205  16.723   3.954 -0.0015 -0.0708 -0.1161
26957W        W47237  15.721   9.270   1.320  0.2184  0.1640 -0.2797
26958W        W47238   5.365   3.880  16.113  0.0644 -0.0184 -0.0757
26959W        W47239  13.945   5.543   3.432  0.2084  0.0787 -0.3617
26960W        W47240  15.336   8.905   0.333  0.1800  0.1086 -0.0249
26961W        W47241   6.751   6.148   1.672  0.0260  0.0556 -0.3585
26962W        W47242   0.850   7.172   0.303 -0.0677  0.1444  0.1429
26963W        W47243   9.421  16.977  16.180 -0.0353 -0.0970 -0.0681
26964W        W47244   9.731  12.394  12.068  0.0211  0.1015  0.0689
26965W        W47245   2.504   6.215  12.486 -0.4900  0.1246 -0.1672
26966W        W47246   1.223   6.546  13.098 -0.2557  0.0902  0.0893
26967W        W47247  13.973   4.655  13.944 -0.0515 -0.0253  0.2257
26968W        W47248   0.426  11.452   2.543 -0.1569  0.0050 -0.5304
26969W        W47249   2.865   4.960  12.750  0.0084  0.2655 -0.4470
26970W        W47250  16.612  17.667   0.404 -0.1225  0.1296 -0.0563
26971W        W47251   7.886  15.648  11.258  0.0313 -0.0823 -0.1341
26972W        W47252  14.563   9.365   2.781 -0.0119  0.0182 -0.1284
26973W        W47253   3.573   6.927   4.703 -0.1991 -0.5271  0.2813
26974W        W47254   3.066   4.345  13.562  0.2083 -0.1752  0.1073
26975W        W47255   1.750   3.432   0.413 -0.0919  0.1550 -0.0622
26976W        W47256   9.062  10.903   1.844  0.0194 -0.2978 -0.4191
26977W        W47257   9.229  16.268  15.576  0.0940 -0.0471  0.0958
26978W        W47258  13.205   1.372  15.810  0.1646  0.3377  0.0241
26979W        W47259   2.664   6.074  12.063  0.1966 -0.1735 -0.2299
26980W        W47260  13.700  14.671   4.362 -0.1271 -0.0383  0.2373
26981W        W47261   1.110   3.903  16.798  0.3898  0.3089  0.3052
26982W        W47262   5.261   7.626   4.640 -0.1299  0.0118  0.0845
26983W        W47263   0.683   4.003  13.492 -0.1321  0.0273 -0.0761
26984W        W47264  15.156  14.959  15.154  0.2030  0.0876  0.0100
26985W        W47265   8.842  10.472   1.194 -0.1162 -0.2258  0.0185
26986W        W47266  17.491  13.326   2.399 -0.0511  0.1295 -0.1542
26987W        W47267   6.585   9.593  12.460  0.4613  0.3950  0.1413
26988W        W47268   8.089   0.192  16.212  0.0970  0.0728  0.0063
26989W        W47269   5.699  17.504  13.400 -0.0450  0.0571  0.2035
26990W        W47270   5.966  10.326   1.236  0.2970 -0.2806  0.0096
26991W        W47271  16.415  15.569   3.000  0.0795  0.2001  0.2122
26992W        W47272  13.005  15.447  12.109 -0.0857  0.0183 -0.1845
26993W        W47273   1.715   8.700  16.757 -0.2331 -0.0757 -0.0579
26994W        W47274  12.779   5.983   2.270 -0.1296 -0.0809  0.1068
26995W        W47275  16.739  10.974   2.739 -0.0721 -0.2527  0.1125
26996W        W47276   4.973  15.013  15.956  0.1036 -0.0573 -0.0471
26997W        W47277   5.380   6.742  15.952 -0.1311  0.3909  0.4112
26998W        W47278   7.742   1.851  15.176  0.2004  0.0797 -0.2254
26999W        W47279  14.697   6.164   1.156 -0.2181  0.0081  0.0127
27000W        W47280  15.843   3.533  16.169  0.1011 -0.1100  0.0520
27001W        W47281  13.692  13.248   0.751  0.0032  0.2176  0.2337
27002W        W47282   9.315   8.265   4.427 -0.2170  0.0677 -0.2022
27003W        W47283   4.805  12.307   4.518 -0.0390  0.0494 -0.1089
27004W        W47284   2.337  10.030  14.308  0.1503 -0.3479 -0.3583
27005W        W47285   5.372  10.185   1.272 -0.0622  0.2710  0.1549
27006W        W47286   9.541  16.885   0.500 -0.1895 -0.0514  0.0400
27007W        W47287   1.189  12.422  12.922 -0.0092 -0.1179  0.2933
27008W        W47288   2.964   8.930  13.390  0.3115 -0.0880  0.0783
27009W        W47289  11.780   4.317  16.375  0.2541 -0.0303  0.0605
27010W        W47290  14.602  10.106   3.924 -0.2686 -0.1140  0.1487
27011W        W47291  11.541  11.458   3.150 -0.1745 -0.1388  0.2288
27012W        W47292  17.556   5.705  12.461  0.1018  0.1996 -0.0041
27013W        W47293  11.169  12.203   2.215  0.1863  0.1494  0.2584
27014W        W47294   5.612   3.976   5.171 -0.2975  0.2537  0.1516
27015W        W47295  14.320   0.935  13.866  0.2234 -0.0211 -0.0875
27016W        W47296   5.048   3.163   2.960 -0.0579 -0.0879 -0.0087
27017W        W47297  16.862   2.201   1.711 -0.1437  0.0852 -0.3453
27018W        W47298   8.288  14.041  15.220 -0.1874 -0.0058  0.1675
27019W        W47299  13.273   6.409  16.110  0.2482 -0.0781  0.1125
27020W        W47300   6.944   8.676   3.493  0.0953 -0.1340  0.1512
27021W        W47301   0.536  12.750   3.183 -0.0282 -0.0002 -0.1045
27022W        W47302  16.008   5.068   3.091 -0.3785  0.0621  0.0885
27023W        W47303  15.346  11.028   0.604  0.0613  0.2622  0.2142
27024W        W47304   9.051  12.987  14.282  0.1242  0.0121  0.0519
27025W        W47305   4.648   0.469  14.731 -0.2939  0.1072 -0.0451
27026W        W47306  11.686   8.007   4.187 -0.3860  0.2020 -0.2451
27027W        W47307   7.484   5.010   4.445 -0.2435 -0.0634  0.4659
27028W        W47308   0.477  16.141  12.750  0.0832 -0.0431  0.1061
27029W        W47309  14.305  10.315   0.023  0.2611 -0.0892 -0.3797
27030W        W47310   7.529  15.864   4.794 -0.0455 -0.0780 -0.1385
27031W        W47311   1.951   7.132  13.403 -0.0340 -0.0663  0.2454
27032W        W47312   5.798  10.567   0.682  0.1087 -0.2203 -0.0542
27033W        W47313   0.359   9.671  16.442 -0.1575  0.2302  0.1022
27034W        W47314  13.197   8.943   3.990 -0.0156  0.1728  0.0830
27035W        W47315   2.168   1.653   4.575 -0.0209  0.0278 -0.1628
27036W        W47316   9.769  14.419  16.357  0.0077 -0.3163 -0.1812
27037W        W47317   9.310   6.417  16.086  0.1823  0.0669  0.0585
27038W        W47318   2.808   4.541  16.286  0.2635 -0.3547 -0.1133
27039W        W47319   5.148  16.943   4.397 -0.2689 -0.0795  0.0789
27040W        W47320  16.707  12.350   1.178 -0.1264 -0.0621 -0.0066
27041W        W47321  14.539   8.983   0.422  0.2258  0.0282  0.0913
27042W        W47322   2.735  12.233  12.905 -0.2243 -0.1312 -0.0158
27043W        W47323  17.028  17.703  14.983 -0.0565 -0.1262 -0.1922
27044W        W47324   0.040   2.895   2.652 -0.0022  0.0228 -0.0227
27045W        W47325  10.613  16.568   4.094 -0.1302  0.1251  0.0902
27046W        W47326   3.022  17.035  12.897  0.2013  0.0369  0.0282
27047W        W47327   3.769   8.819   3.249 -0.2522  0.0223  0.2168
27048W        W47328   4.716   1.558   3.414  0.0092  0.2835  0.0772
27049W        W47329   7.552   9.038   1.936 -0.1380  0.0423 -0.2444
27050W        W47330   4.084   0.794  12.530 -0.0737  0.0026 -0.0080
27051W        W47331   5.469  13.491  16.176  0.0687  0.0263  0.0589
27052W        W47332  11.342  13.450  12.187  0.0509 -0.1119 -0.0019
27053W        W47333  16.863   2.437  11.994  0.3906 -0.1550 -0.0949
27054W        W47334   2.173  12.152  14.982  0.0696 -0.0833 -0.0630
27055W        W47335   9.821   1.459   0.229  0.1321  0.3740 -0.2599
27056W        W47336   9.320   6.376   0.888  0.0450 -0.2844 -0.0568
27057W        W47337   7.769  14.846  12.255 -0.0307 -0.2196 -0.4159
27058W        W47338  13.271   0.043   3.187 -0.2432  0.0297 -0.1126
27059W        W47339   0.767   6.498   1.046  0.1434  0.1125  0.1196
27060W        W47340  11.792   0.554  14.308 -0.1416  0.1396 -0.1117
27061W        W47341   6.826   7.085   0.198  0.1616  0.0004 -0.1081
27062W        W47342   6.248  16.812  13.602 -0.0005 -0.0606 -0.2000
27063W        W47343   8.612   5.097   2.934 -0.0270  0.0306  0.0257
27064W        W47344   5.992   4.470  15.753 -0.3371 -0.0943  0.0535
27065W        W47345  16.133  12.222   0.638  0.4055  0.1725 -0.1075
27066W        W47346   8.334   9.804   4.410  0.1060 -0.1257  0.0854
27067W        W47347   8.748   9.044  12.251 -0.0199 -0.0002  0.0620
27068W        W47348   3.995   8.370  13.677  0.3267 -0.0878  0.0337
27069W        W47349  12.695  17.398   4.318  0.4082 -0.2532  0.1304
27070W        W47350  17.531   8.572   0.294 -0.2581 -0.1739 -0.1088
27071W        W47351   5.512   6.951   4.800  0.1912  0.1756  0.1471
27072W        W47352   9.256  17.564  16.779 -0.0976 -0.0148  0.2670
27073W        W47353   9.120  15.179   4.069  0.0106 -0.1021 -0.1766
27074W        W47354  15.005   5.070  14.355 -0.1378  0.1366 -0.3632
27075W        W47355   9.362  13.268  14.551 -0.2256  0.3580  0.2555
27076W        W47356  16.521  16.882   1.544  0.0352  0.1271  0.2228
27077W        W47357  13.396  12.485   0.203  0.2067  0.0588  0.3149
27078W        W47358  10.601   0.220  16.967 -0.2758  0.3775  0.0395
27079W        W47359   4.606  16.708   0.632 -0.0048  0.0890 -0.0296
27080W        W47360   6.583   6.340  16.877 -0.2960 -0.2346 -0.0913
27081W        W47361   7.454  12.440   0.944  0.1406 -0.2099 -0.3408
27082W        W47362  12.822   4.964   1.735 -0.1713  0.3012  0.3857
27083W        W47363   4.340   1.115  14.982 -0.0877 -0.1596  0.0258
27084W        W47364  11.852   2.620   2.847 -0.0330  0.1950 -0.1931
27085W        W47365  14.618  15.758  16.882 -0.0534 -0.1137 -0.0038
27086W        W47366   5.464   9.347  16.649 -0.2364  0.1648 -0.1772
27087W        W47367   9.345  17.688  12.132  0.0258 -0.2557  0.0743
27088W        W47368   3.852  10.263  16.505 -0.1629 -0.2774 -0.0965
27089W        W47369  14.990  11.848   3.580 -0.1306  0.1411  0.2682
27090W        W47370  16.562  16.147   0.104  0.3090 -0.0100 -0.0273
27091W        W47371   4.688   3.695   1.133  0.0793 -0.0086 -0.0795
27092W        W47372   4.700   2.270   2.866 -0.1795  0.0783  0.1390
27093W        W47373   9.408  17.381   3.296  0.0914  0.1198 -0.0118
27094W        W47374   3.915   4.330  13.741  0.0620  0.1972 -0.2511
27095W        W47375  16.981   9.004   2.856 -0.3889 -0.1500 -0.0660
27096W        W47376   3.830  16.261  14.302 -0.2681  0.4069  0.0402
27097W        W47377  10.246  14.097  15.487 -0.2260 -0.0464  0.1085
27098W        W47378   2.760  11.482   2.414  0.0662 -0.3368  0.0644
27099W        W47379  10.138   5.196   0.503 -0.0744  0.2390  0.1203
27100W        W47380  15.019   5.568  13.159 -0.0198 -0.1262 -0.1256
27101W        W47381   8.215  16.387  16.277  0.1802 -0.3722  0.0248
27102W        W47382   8.881   2.695  12.254 -0.2834  0.1628  0.0255
27103W        W47383   1.806  12.081  13.811  0.0367  0.0191 -0.1400
27104W        W47384   0.844  14.149  15.052 -0.3055  0.0423  0.1561
27105W        W47385   8.494   1.011  15.478 -0.3003  0.2077  0.0380
27106W        W47386  13.018   4.520   3.017 -0.0119 -0.1007 -0.2949
27107W        W47387   3.567  17.664   0.104 -0.0918 -0.1599  0.3386
27108W        W47388  10.086   6.006   0.593 -0.1676  0.0475 -0.0292
27109W        W47389   6.638  16.741   3.182 -0.1772  0.1904 -0.1626
27110W        W47390  12.433  17.148  15.091  0.3789  0.0144 -0.0419
27111W        W47391   7.647   4.465   2.375  0.2266 -0.0871 -0.0040
27112W        W47392   7.035  14.213  14.907  0.3739  0.0216  0.0865
27113W        W47393   4.701   7.467  14.024  0.0563 -0.1586  0.2722
27114W        W47394  11.208  17.174  16.595  0.3383  0.0367  0.0099
27115W        W47395   1.092  10.987   0.243  0.0419  0.0283 -0.0672
27116W        W47396  11.917   9.163  16.724 -0.0428  0.2904 -0.0857
27117W        W47397   4.214  11.276  16.083  0.0641 -0.0906  0.2568
27118W        W47398   0.605   4.687  13.979 -0.0603  0.1342 -0.1490
27119W        W47399  10.246  10.405   4.912 -0.0481  0.2020 -0.1029
27120W        W47400  12.648   4.597  12.272 -0.1762  0.0623  0.6932
27121W        W47401   9.866  15.977   0.993 -0.0679 -0.0016 -0.1862
27122W        W47402  13.950   4.394  16.584 -0.1253 -0.2484  0.2718
27123W        W47403  13.772   7.908   1.120 -0.3069  0.0155 -0.1084
27124W        W47404   8.552  10.141  13.000 -0.0683  0.0680 -0.1394
27125W        W47405   3.590   6.312  13.447 -0.0341  0.1177  0.1566
27126W        W47406   9.304   7.162  12.108  0.0253 -0.2025  0.1376
27127W        W47407   3.876  16.465   3.851  0.0675 -0.0689  0.1436
27128W        W47408  14.777  11.378   4.032 -0.0219  0.1414  0.0227
27129W        W47409  11.740  14.556   0.135  0.0562 -0.1744 -0.0465
27130W        W47410   7.951   0.938  12.017  0.1299 -0.1524 -0.1351
27131W        W47411   1.211   6.447   3.215 -0.1472 -0.0365  0.0478
27132W        W47412   7.583  10.676  15.140 -0.1421  0.2743 -0.2092
27133W        W47413   1.267   5.276  14.923 -0.1791 -0.2703  0.0382
27134W        W47414   4.228   0.783   4.857  0.0658  0.2050  0.0610
27135W        W47415  11.045   5.009  14.597 -0.1696  0.2943 -0.0083
27136W        W47416  16.765  14.522   2.192 -0.3309 -0.2780 -0.0803
27137W        W47417   7.735  10.498  13.597 -0.1297 -0.2934  0.2228
27138W        W47418   2.314  17.003  13.415 -0.3303 -0.1404  0.0016
27139W        W47419  12.767  14.672  14.579  0.0959 -0.3268 -0.2007
27140W        W47420  12.158   3.037  14.316  0.1268  0.2349  0.1274
27141W        W47421  15.091  13.618  13.592 -0.2805  0.2176  0.0660
27142W        W47422  10.773  17.511   4.560  0.1200 -0.1147  0.1796
27143W        W47423  15.452  15.906   1.112 -0.0471  0.1014  0.1923
27144W        W47424  13.343   2.084  13.732 -0.3559  0.4110  0.0071
27145W        W47425  13.748  10.521  14.396 -0.1525  0.1667  0.0698
27146W        W47426   5.507   0.333  13.975 -0.1143 -0.2610  0.1868
27147W        W47427   1.508   3.546   4.597  0.2257  0.1078  0.0706
27148W        W47428   4.110   4.576   0.205  0.0618 -0.0718  0.2673
27149W        W47429  13.077  11.657  16.868  0.2569 -0.0566  0.2567
27150W        W47430  13.415   6.886  12.689 -0.2226 -0.1059 -0.2337
27151W        W47431   3.848   1.428   1.398 -0.1949 -0.5435 -0.0833
27152W        W47432  15.826   7.146  14.892 -0.0709  0.2278 -0.1649
27153W        W47433  13.085  12.454  13.692  0.0094  0.0659 -0.1706
27154W        W47434   6.642  14.635   1.160 -0.1170 -0.0389  0.1049
27155W        W47435   5.062   8.905   4.825 -0.2393  0.0118 -0.0800
27156W        W47436  10.330  17.482   1.416 -0.1157  0.0492  0.0767
27157W        W47437   9.887  15.210  12.863 -0.0100 -0.3014  0.0621
27158W        W47438  13.900   7.476   3.713  0.2276 -0.0192  0.0873
27159W        W47439  17.045  13.028   4.206  0.0847 -0.1829  0.1462
27160W        W47440  13.766  17.018   4.468 -0.2089  0.2767 -0.2534
27161W        W47441  16.760   3.628   3.462  0.0472  0.0095  0.0870
27162W        W47442   9.856  16.178  13.033  0.3566 -0.0362 -0.1676
27163W        W47443   2.513  11.611  14.259  0.1595  0.1382 -0.0142
27164W        W47444  14.057  13.096  14.188  0.2409  0.2658 -0.2168
27165W        W47445  14.075   5.591  14.347 -0.0410  0.3922 -0.0742
27166W        W47446   3.271   7.561   2.183 -0.1138 -0.0533 -0.0029
27167W        W47447   7.914   3.166   2.605  0.0445  0.1467 -0.2354
27168W        W47448   2.326  13.901  16.936  0.2105 -0.1035  0.1344
27169W        W47449   3.918   4.550   0.738 -0.0645 -0.0304 -0.4287
27170W        W47450  14.761  14.798  12.465 -0.0244 -0.2460 -0.0515
27171W        W47451  12.110  13.620  13.192 -0.2854 -0.0042  0.1821
27172W        W47452  15.413  16.137  14.939 -0.0185 -0.1722  0.2775
27173W        W47453  13.452  15.188  12.790  0.2250 -0.0090 -0.0674
27174W        W47454   8.888  16.917  16.392 -0.0191  0.1181  0.0322
27175W        W47455   9.505   4.638   3.164 -0.1845 -0.0990  0.1496
27176W        W47456   6.340   1.254   4.314  0.0452  0.0073 -0.1199
27177W        W47457   1.213   0.160  12.744  0.1197  0.1549  0.1806
27178W        W47458   1.353   4.627   2.314  0.1129 -0.2314  0.0721
27179W        W47459   8.733   8.173   2.764  0.1359  0.3522 -0.0886
27180W        W47460  15.421  10.303   4.520  0.2479 -0.0537 -0.2143
27181W        W47461  14.536  12.647   0.308 -0.1236  0.0652 -0.1110
27182W        W47462  10.065   5.845   1.582  0.0038  0.0125  0.1855
27183W        W47463  12.410   5.407  12.210  0.0179  0.1248  0.1027
27184W        W47464   3.834   8.984   4.657  0.0009 -0.0994 -0.2860
27185W        W47465   1.789   8.950  12.980 -0.1098 -0.1692  0.1354
27186W        W47466  14.931   2.968  15.846  0.2625 -0.0288 -0.1630
27187W        W47467  13.238   6.513  13.471 -0.1439  0.0310 -0.1138
27188W        W47468   5.348   0.208  13.462 -0.0290  0.1343 -0.2724
27189W        W47469   9.889  12.566  11.617  0.4011  0.1685 -0.0314
27190W        W47470   2.328   8.405   0.454  0.3272 -0.0557 -0.0246
27191W        W47471   2.307   5.227   4.171 -0.1110 -0.2428  0.2664
27192W        W47472   7.413   5.726  13.612 -0.1493 -0.0830  0.1484
27193W        W47473   0.293  10.802   2.689  0.0051 -0.0733 -0.2684
27194W        W47474   5.181   2.539   2.839  0.1271 -0.1381  0.4188
27195W        W47475  13.179   2.914  16.865  0.0375 -0.0597 -0.0210
27196W        W47476   0.631  17.136   0.579  0.0808 -0.1287  0.2146
27197W        W47477   5.486  11.783   0.471 -0.0251  0.0478 -0.1753
27198W        W47478   0.318   5.043  13.624  0.0647 -0.5760  0.1215
27199W        W47479   5.090   3.307   1.822  0.0980 -0.0145  0.1783
27200W        W47480   1.556  13.826   0.719 -0.2392 -0.2224 -0.2642
27201W        W47481  14.406  16.448  15.085 -0.2664 -0.1490  0.1010
27202W        W47482   8.440   2.705  16.135  0.2276 -0.0624  0.0613
27203W        W47483  11.699  17.107   2.697 -0.0460 -0.1382  0.3109
27204W        W47484  11.638  15.166  12.673 -0.1690 -0.1350 -0.0356
27205W        W47485  10.560  10.463   0.447  0.3016 -0.3850  0.3123
27206W        W47486   4.290   3.360  15.936  0.0636 -0.2647  0.1403
27207W        W47487   6.756  11.149   0.189  0.1699 -0.0130 -0.0642
27208W        W47488   7.338  11.994   1.996 -0.0736 -0.1242 -0.1725
27209W        W47489   1.793  16.102  11.233  0.3050  0.2063 -0.3572
27210W        W47490   3.544   7.049  15.468  0.2433  0.0502  0.2662
27211W        W47491   9.163  11.770  16.639 -0.1404 -0.0558  0.0822
27212W        W47492  16.805   9.577   2.750  0.2221 -0.0387 -0.1971
27213W        W47493  14.590   1.541   0.886 -0.4126 -0.1408 -0.0556
27214W        W47494  10.638   0.517   1.874 -0.0694 -0.1272 -0.1505
27215W        W47495   0.467   8.422   3.992 -0.1508 -0.1314  0.1501
27216W        W47496   2.085  13.818   3.378 -0.3478  0.2350 -0.3462
27217W        W47497   2.351  11.819  16.392 -0.0048 -0.0251 -0.3018
27218W        W47498  14.613   9.475   2.161 -0.1683  0.0696 -0.0630
27219W        W47499  16.308   4.717   1.610  0.0278 -0.1959 -0.1180
27220W        W47500   2.294   8.260  13.615 -0.5171 -0.1243  0.2387
27221W        W47501  17.169  14.332   0.494  0.1014  0.0457  0.1745
27222W        W47502   3.273   1.014   0.610  0.1990  0.0203 -0.0150
27223W        W47503  16.636   7.956   4.077  0.1370 -0.1994 -0.3242
27224W        W47504  12.830  16.847   5.282 -0.2671  0.2370  0.0215
27225W        W47505   1.540  16.730   0.624  0.0778 -0.3482  0.3596
27226W        W47506  13.694   8.985  13.624 -0.0315  0.1180 -0.3844
27227W        W47507  14.243   7.947   0.861  0.0229  0.0248 -0.0536
27228W        W47508   6.121  16.351  12.598  0.0082 -0.2307 -0.3191
27229W        W47509  10.713   3.200   2.459 -0.0344 -0.2047 -0.0598
27230W        W47510  11.480  14.552  13.059  0.0446 -0.2325  0.0538
27231W        W47511  16.482   2.716   1.535  0.0020  0.1806  0.2071
27232W        W47512  11.724   0.061   0.296 -0.0095 -0.0701  0.2359
27233W        W47513  17.080  15.830   0.593 -0.0911  0.0266  0.0240
27234W        W47514   7.198  14.572   2.321  0.0308  0.0166 -0.0769
27235W        W47515   0.982  11.367   0.674  0.0121 -0.2405 -0.3215
27236W        W47516   7.583   0.724   4.777 -0.0969  0.0593 -0.2382
27237W        W47517  10.873  12.235   4.649  0.0425 -0.0091 -0.1292
27238W        W47518  13.397   1.395   2.784 -0.1475  0.0706 -0.2600
27239W        W47519  13.159  12.873   4.738  0.1051  0.0233  0.1509
27240W        W47520  10.420  13.729  16.122 -0.3058  0.1449  0.0113
27241W        W47521   3.280   7.942   1.903  0.0556  0.0587  0.1623
27242W        W47522   5.918   8.808   5.277 -0.2930 -0.1313 -0.1111
27243W        W47523  10.988  10.032  13.321 -0.1135  0.1138 -0.1736
27244W        W47524   1.064   2.491   0.653 -0.1175 -0.0296 -0.1962
27245W        W47525  13.906  16.382   3.111 -0.1022  0.0346  0.1599
27246W        W47526  16.643   8.607  15.660  0.0949 -0.0475 -0.1057
27247W        W47527  16.196   6.201  14.700  0.0661  0.3704  0.2748
27248W        W47528  14.989   3.562   2.539  0.2745  0.3006  0.0559
27249W        W47529  11.024   1.728   2.176  0.0655  0.1343  0.1157
27250W        W47530   7.719  14.206  13.229  0.2181 -0.0303  0.1077
27251W        W47531  12.321   9.379   1.702  0.0414  0.0127  0.2722
27252W        W47532  13.304  13.249   3.725  0.1863  0.1267  0.0413
27253W        W47533  13.043   5.019   2.759 -0.0992  0.0059  0.0878
27254W        W47534  13.287   7.657  13.732  0.0381 -0.2272 -0.1445
27255W        W47535   7.032  14.381  14.395 -0.2998  0.1114 -0.0673
27256W        W47536   0.578   9.853  13.670  0.0762 -0.2128 -0.1800
27257W        W47537  13.474   5.930   0.429 -0.0945 -0.3362  0.1266
27258W        W47538   7.213  10.863   4.494  0.0362  0.2482 -0.0891
27259W        W47539   6.094  14.700   2.561 -0.1552 -0.0925 -0.1937
27260W        W47540  15.121   0.610  12.840  0.1747  0.1018  0.2741
27261W        W47541  15.448   9.570  13.874 -0.1343 -0.1384  0.0519
27262W        W47542   5.668   2.096  14.110  0.0670  0.0879  0.0227
27263W        W47543  16.151   0.488   3.262  0.3762  0.0630 -0.0813
27264W        W47544  16.674   2.985  14.415  0.3850  0.0053  0.1184
27265W        W47545   7.938   3.332  15.021  0.1557  0.0583 -0.0182
27266W        W47546  13.065   4.771   4.596 -0.2261 -0.2076  0.1473
27267W        W47547   0.676  10.704   4.564  0.0668 -0.3269  0.0191
27268W        W47548   5.484   8.848   4.524 -0.2123  0.1740  0.1107
27269W        W47549   0.504   1.024  15.937 -0.0564 -0.0525  0.0484
27270W        W47550   9.498  14.076  16.183  0.3937  0.1743 -0.1532
27271W        W47551  12.155   4.552  14.771  0.3456 -0.0636 -0.0265
27272W        W47552   2.174  17.598   2.764  0.1172  0.0459 -0.0253
27273W        W47553  10.045   0.659   1.180  0.0895 -0.0342  0.2059
27274W        W47554   1.089   7.752   2.454 -0.2588 -0.2312  0.2732
27275W        W47555   8.669  14.364  16.585  0.0493 -0.6034  0.1596
27276W        W47556   8.031   1.109  16.224  0.1690 -0.0270  0.1224
27277W        W47557   6.657   0.301   0.173  0.1932  0.2581 -0.1112
27278W        W47558   6.753   0.876   5.139  0.1083 -0.0814  0.0328
27279W        W47559   3.038  17.141  15.536  0.0296 -0.0024  0.0613
27280W        W47560   0.943  16.845  14.847  0.2723  0.1246 -0.1112
27281W        W47561   2.725   6.207  16.013 -0.1806 -0.2466  0.0644
27282W        W47562   1.687  15.597   0.887 -0.0236 -0.1647 -0.0682
27283W        W47563   9.977  12.903   3.216 -0.1302 -0.0217 -0.2352
27284W        W47564   8.395  12.874  12.093  0.3547 -0.1020  0.0819
27285W        W47565   4.759   2.753  16.314  0.0675 -0.1859  0.2703
27286W        W47566  12.275  11.148   0.296 -0.0899 -0.0690  0.0032
27287W        W47567  10.014   6.843  14.093  0.0611 -0.2469 -0.0858
27288W        W47568   9.802   2.683   3.737  0.0383 -0.3746 -0.0292
27289W        W47569  11.535   2.468  15.366 -0.0046 -0.0098 -0.1353
27290W        W47570   7.181  10.032  15.770  0.0825  0.2780  0.0489
27291W        W47571   4.109  10.295  16.063 -0.2198 -0.4083  0.1406
27292W        W47572  14.914   6.782  13.661 -0.0481  0.2602  0.1426
27293W        W47573   7.699  14.546   2.185 -0.0439 -0.2778  0.1901
27294W        W47574   7.562   7.628  15.615  0.4771 -0.1418  0.2952
27295W        W47575   2.344   8.749  16.960 -0.0375  0.0242  0.1168
27296W        W47576  13.259  13.782  15.053 -0.0972  0.1221 -0.0419
27297W        W47577  12.830   5.826  12.880  0.2988  0.1350  0.1692
27298W        W47578   9.744  10.034   0.836 -0.0223 -0.0190  0.0338
27299W        W47579   8.421   5.463   3.532 -0.1203  0.0496 -0.1896
27300W        W47580   3.598  13.324  13.754  0.1260  0.0896 -0.1331
27301W        W47581  17.172   9.886  15.365 -0.1006 -0.1499  0.0161
27302W        W47582  12.306  16.812  13.698  0.0739  0.0203  0.0130
27303W        W47583   5.041   0.098   0.048  0.1811  0.3228  0.0160
27304W        W47584  11.139  17.545   1.645 -0.3659  0.3966  0.1086
27305W        W47585  16.232   5.819   3.871 -0.1086 -0.1188 -0.1910
27306W        W47586   8.980  17.355   4.807  0.1304 -0.2895  0.4457
27307W        W47587   4.454  15.721   3.066  0.0715  0.2072  0.1200
27308W        W47588  13.664  12.530  16.334 -0.1171 -0.0819 -0.1544
27309W        W47589   5.393   2.168   0.317 -0.0498 -0.1150 -0.1122
27310W        W47590   3.052   2.391  16.640 -0.0814  0.1497  0.2039
27311W        W47591   5.465  11.305   4.876 -0.1411 -0.2604 -0.0970
27312W        W47592   8.134  15.912  12.546  0.2196 -0.0342  0.2524
27313W        W47593  16.564   5.123   1.383  0.0283 -0.3089  0.1084
27314W        W47594   1.383   9.571  16.329  0.0539 -0.1494  0.1312
27315W        W47595   8.049  15.608  15.703  0.4373 -0.1885  0.0972
27316W        W47596   6.218   8.220  12.311 -0.0684  0.0465  0.0792
27317W        W47597  13.115   8.873   4.538 -0.1396 -0.2643  0.1405
27318W        W47598   8.447   9.896  12.527 -0.1176  0.1923  0.1323
27319W        W47599  15.065   6.632  14.174 -0.3282  0.0216 -0.1573
27320W        W47600  11.064  16.183  14.987  0.1457  0.0646  0.1443
27321W        W47601  10.609   6.630  16.459  0.0789  0.1341 -0.0279
27322W        W47602   5.775  11.463  16.406 -0.0886  0.1294 -0.1131
27323W        W47603  12.657  12.646   4.558  0.0397 -0.0415 -0.1478
27324W        W47604  13.848  17.404  14.573  0.0555 -0.1080 -0.0605
27325W        W47605   5.677   5.424  14.812 -0.0949 -0.1380 -0.0373
27326W        W47606   6.145   8.382   3.398  0.4953  0.1752  0.0656
27327W        W47607   9.974   0.210   2.242 -0.0833  0.2095  0.2604
27328W        W47608  10.139   1.688  12.831 -0.0983  0.1591  0.2623
27329W        W47609   0.484  13.880   0.619 -0.1168  0.1704 -0.0227
27330W        W47610   2.551  13.850   3.968 -0.1029  0.3690  0.3177
27331W        W47611  13.937   8.328  13.604  0.2362 -0.0408  0.2134
27332W        W47612  17.470   0.944  12.218  0.3540 -0.6806 -0.2914
27333W        W47613   0.797  12.296   1.466  0.0233  0.1472 -0.0703
27334W        W47614  14.465  13.867   2.493  0.0069  0.1397  0.3272
27335W        W47615  10.747   8.320   3.256 -0.0201  0.0843  0.1095
27336W        W47616   3.198   9.813   2.493 -0.0401 -0.1152 -0.1177
27337W        W47617   2.060   1.848   2.419 -0.0276 -0.4478 -0.0103
27338W        W47618  12.380   0.662  16.567  0.2607 -0.0079  0.2173
27339W        W47619  13.230  15.262   4.402 -0.2984 -0.1396  0.1240
27340W        W47620  11.530   3.551  13.844  0.1135  0.4065  0.2295
27341W        W47621   8.482  13.380   0.803  0.0300  0.1513  0.0487
27342W        W47622  12.179   3.938   4.498 -0.0546  0.2117  0.0177
27343W        W47623   9.271   0.028   0.265  0.3254 -0.0002 -0.0034
27344W        W47624   4.228  17.223  13.979 -0.1699 -0.0356  0.1135
27345W        W47625  17.376  10.864   4.748 -0.0865 -0.0257 -0.1283
27346W        W47626  15.955   0.543   0.333 -0.2643  0.1905  0.2245
27347W        W47627   2.233   9.790  13.364 -0.0827 -0.0923 -0.1706
27348W        W47628  11.204  16.344  13.786 -0.2313  0.1636  0.4750
27349W        W47629   3.508  16.724   0.709  0.3224  0.0186 -0.1262
27350W        W47630   9.654  11.134  15.351 -0.1513 -0.0995 -0.1441
27351W        W47631   2.208   9.534  15.283  0.1166 -0.1544 -0.2143
27352W        W47632  12.843  10.336   1.113 -0.1007 -0.1143 -0.1727
27353W        W47633  16.797  17.188   1.936  0.1325 -0.1098 -0.2366
27354W        W47634   1.369  16.894   1.775 -0.1121  0.2885  0.2822
27355W        W47635   0.015   8.614   2.800  0.0617  0.0036  0.1663
27356W        W47636  10.721   1.800  12.425  0.1374  0.2372 -0.1768
27357W        W47637   7.492   1.859  16.762  0.2280 -0.1669  0.1059
27358W        W47638  10.105   6.864  13.173  0.0735 -0.2564 -0.0277
27359W        W47639  13.998   3.043   4.482  0.0454  0.0084  0.0874
27360W        W47640  14.587  12.151   0.540  0.2764 -0.2258 -0.0457
27361W        W47641  13.993   2.289  12.353  0.1191 -0.4035 -0.1927
27362W        W47642   6.924  16.804   0.820 -0.1870  0.2693  0.1574
27363W        W47643   5.974   7.040   0.710  0.0876 -0.1437 -0.2469
27364W        W47644  15.330  12.764  16.254 -0.2650 -0.1279 -0.0898
27365W        W47645   6.008   8.682   2.604  0.1524  0.2790 -0.0048
27366W        W47646  12.846   9.404   0.765  0.1078  0.2287 -0.1846
27367W        W47647  11.957  10.502   4.452 -0.1395 -0.0424 -0.0187
27368W        W47648   4.822  14.516  14.695  0.1710 -0.0669 -0.0006
27369W        W47649  17.446   4.755  14.406  0.1792  0.0410  0.1401
27370W        W47650   0.275  15.868  16.215  0.2887 -0.2087  0.1266
27371W        W47651   8.600  15.365  15.496  0.0138  0.2607 -0.1373
27372W        W47652  10.547   6.654  13.184 -0.1499  0.1994 -0.1619
27373W        W47653  13.992  17.452  15.563 -0.0002 -0.2279 -0.0833
27374W        W47654  13.385  16.424   2.761 -0.0036 -0.2609 -0.0281
27375W        W47655  12.009   5.674   3.585  0.1439 -0.6389 -0.0893
27376W        W47656  13.420  13.530  16.334 -0.2279  0.2758 -0.1093
27377W        W47657   9.943  10.245  16.832  0.0054  0.0456  0.0557
27378W        W47658   6.893  13.670   2.851  0.1034  0.0371  0.0270
27379W        W47659   6.723  13.338   0.689 -0.0542  0.1136  0.0772
27380W        W47660   4.366   0.379  13.528 -0.2870  0.1248  0.0136
27381W        W47661  11.927   2.002  16.793  0.2553 -0.1109 -0.1728
27382W        W47662  15.312  14.071  16.790 -0.2495 -0.1577 -0.2883
27383W        W47663   8.259   3.952   4.277  0.3816 -0.3741 -0.0107
27384W        W47664   4.804   1.503  14.725 -0.1137 -0.0374 -0.1440
27385W        W47665  15.840  16.583  15.056  0.0532  0.0842  0.1862
27386W        W47666  14.118  14.734  12.193 -0.0324  0.1226  0.0265
27387W        W47667  11.549   8.391   3.314 -0.0802 -0.0229 -0.2256
27388W        W47668   7.478   3.222  14.775  0.1295  0.2481 -0.0966
27389W        W47669   4.204  15.257   2.243  0.2154  0.0834  0.2882
27390W        W47670   0.322   8.786  16.519  0.1321  0.1533 -0.2275
27391W        W47671  17.198   0.242  16.818 -0.0758  0.2281 -0.1635
27392W        W47672   5.526  15.931   5.033 -0.0648  0.1522  0.0277
27393W        W47673   8.623  10.056  15.988 -0.0951  0.1779 -0.2832
27394W        W47674  15.353  16.206   0.089  0.2573 -0.2511  0.1504
27395W        W47675   4.083   4.135   3.310  0.0806 -0.0711 -0.2145
27396W        W47676   0.018   0.132   2.495 -0.3158 -0.0844 -0.6842
27397W        W47677   3.777   1.309  13.768  0.3891 -0.1585 -0.2629
27398W        W47678   7.611  16.150   4.335  0.3083  0.5140 -0.2374
27399W        W47679  15.436   9.203   2.564 -0.2824 -0.1370 -0.1395
27400W        W47680   9.083  13.714  16.271  0.0573  0.0518 -0.0059
27401W        W47681   9.558   8.182  14.561 -0.1557  0.1131 -0.0477
27402W        W47682  12.077  17.216   3.825 -0.1303  0.0260 -0.3558
27403W        W47683  14.681   5.478  12.559 -0.0838 -0.2139 -0.1109
27404W        W47684  16.932   3.224   3.959  0.1020  0.1316 -0.2284
27405W        W47685   4.265   2.121  14.620 -0.1034  0.0237 -0.0795
27406W        W47686  10.723  15.654   2.206 -0.1701 -0.1309  0.1937
27407W        W47687  13.860  11.452  15.618  0.1201  0.0591  0.1949
27408W        W47688   5.367   1.582  16.347 -0.1319  0.1017  0.0949
27409W        W47689   9.964  11.667   0.771  0.2279  0.1029 -0.2476
27410W        W47690   5.213   6.120  13.711  0.0797 -0.3273  0.0880
27411W        W47691  16.174  11.405  12.392  0.0482  0.1205 -0.0031
27412W        W47692   5.444  14.230  16.625  0.1478  0.0201  0.3441
27413W        W47693   1.681   1.170  14.125  0.0561 -0.2948  0.1379
27414W        W47694  10.944   7.774   0.749 -0.0673  0.1020  0.1874
27415W        W47695   2.563   9.661   1.074 -0.0241 -0.0222 -0.0717
27416W        W47696  14.668  10.933  15.126  0.2110 -0.0901 -0.1701
27417W        W47697  11.159   8.421  13.078  0.1261  0.3271  0.0251
27418W        W47698  15.911   9.001  15.596  0.0905 -0.1403  0.1900
27419W        W47699   5.816   6.874   2.463  0.1305 -0.0740 -0.1074
27420W        W47700   8.704   0.314   3.441  0.2152 -0.1770 -0.1121
27421W        W47701   0.209   1.276   0.550 -0.0475 -0.1600 -0.0530
27422W        W47702  12.705  13.102   0.029 -0.0661  0.0305 -0.0439
27423W        W47703   1.045  13.812  15.436  0.0355  0.1528  0.0719
27424W        W47704  16.870  12.924  12.984 -0.2071  0.2421 -0.1593
27425W        W47705   7.696   3.069  12.201 -0.2323  0.2132 -0.2061
27426W        W47706   8.493   5.841  14.939 -0.1063 -0.2342  0.0446
27427W        W47707  14.053   5.609   3.966  0.0066 -0.0864  0.0287
27428W        W47708  11.455  10.332   1.111  0.2457  0.0790  0.4636
27429W        W47709   8.825   0.755  12.715  0.2063 -0.1819 -0.0238
27430W        W47710  10.043   3.219   1.423 -0.3169 -0.1108  0.1973
27431W        W47711  16.073  12.919   4.345 -0.0739 -0.2120 -0.1892
27432W        W47712   7.142  12.916   3.248 -0.0842 -0.2496  0.1901
27433W        W47713   5.651   2.972   0.249 -0.1608  0.1045 -0.1354
27434W        W47714  12.135  13.384   4.793  0.0895 -0.3449 -0.0424
27435W        W47715   9.731   1.475   0.762 -0.1411  0.0058  0.1731
27436W        W47716  11.237   2.722  13.323 -0.2595 -0.3619 -0.2355
27437W        W47717   0.088   0.737  15.614  0.2755 -0.2656  0.0986
27438W        W47718  10.287  16.096  13.406 -0.0082  0.0669  0.1295
27439W        W47719  11.719  14.454   3.471  0.2050  0.0078  0.0684
27440W        W47720   4.917   7.868   1.477  0.1722 -0.0319  0.1520
27441W        W47721   7.736   2.342  16.584 -0.0805  0.1643  0.0637
27442W        W47722   3.808   5.849   0.985 -0.0991  0.1397 -0.2574
27443W        W47723   5.010  12.780  12.988 -0.3203 -0.1633  0.3412
27444W        W47724  16.619   6.633  16.548  0.1232 -0.0434  0.3526
27445W        W47725  15.190   7.945   3.372  0.1096 -0.0325  0.1383
27446W        W47726   7.398   1.569  15.978 -0.1103 -0.2226 -0.0959
27447W        W47727  10.185  11.956   1.143 -0.0074  0.3176  0.1353
27448W        W47728  12.121   6.264  12.357  0.1706 -0.2263 -0.3221
27449W        W47729   0.773   0.431  14.053  0.2002  0.0391 -0.1425
27450W        W47730   8.388   1.367  14.530  0.4698 -0.1209  0.0295
27451W        W47731   1.723   3.441  14.401 -0.2383  0.0423 -0.4775
27452W        W47732   4.220  11.520   0.598 -0.1355  0.4317 -0.0165
27453W        W47733  16.930  14.161  13.856 -0.0060 -0.0646 -0.3054
27454W        W47734  10.754   5.829   0.983 -0.1566  0.3727 -0.0596
27455W        W47735  14.561   2.825   3.579 -0.1086 -0.0733  0.0625
27456W        W47736  17.492   4.558   1.991  0.1944  0.0958 -0.1110
27457W        W47737   6.874  12.082  11.912  0.1533  0.3159  0.0592
27458W        W47738   7.747   9.292   4.784  0.1269 -0.0178 -0.0229
27459W        W47739  15.596  13.889  13.119  0.4105 -0.1823 -0.2929
27460W        W47740   1.513   0.794   0.570  0.0137  0.0204 -0.0795
27461W        W47741  10.332   9.514  15.281 -0.1140 -0.0060  0.0931
27462W        W47742   3.876  14.580   0.409 -0.1351 -0.0275 -0.1014
27463W        W47743   9.275   9.966   1.722 -0.0199  0.0140 -0.2021
27464W        W47744  10.859  14.588  14.852  0.0265  0.4403 -0.0289
27465W        W47745   2.047  13.560   3.957  0.0777 -0.0880  0.2599
27466W        W47746   3.765   4.686   1.942 -0.2503 -0.0039  0.1077
27467W        W47747   8.304  12.935  15.337 -0.0106  0.0572  0.1820
27468W        W47748  13.266   4.536   0.763  0.4067 -0.1461 -0.0939
27469W        W47749   9.901  11.269   2.983  0.2689  0.2281  0.2354
27470W        W47750  11.363  10.836   2.010  0.4653 -0.0626 -0.1143
27471W        W47751   8.606  17.435   3.692  0.3447 -0.0829  0.0790
27472W        W47752  15.068   5.759   2.766 -0.2690 -0.2151  0.0555
27473W        W47753  15.297  15.112  14.635  0.0978 -0.1190 -0.0895
27474W        W47754  15.709  11.799   5.229  0.0542 -0.1608 -0.0758
27475W        W47755  14.583   0.085  15.066 -0.0604  0.1088 -0.0878
27476W        W47756  12.336  16.848   3.516 -0.2556  0.4733  0.1074
27477W        W47757   0.304   5.308   0.655 -0.0458  0.2666 -0.2407
27478W        W47758   3.992   1.809  13.311  0.0396  0.1015 -0.2169
27479W        W47759   9.154  13.145  16.485 -0.1059  0.3211  0.1813
27480W        W47760  10.932   1.008  13.196  0.1669  0.2295  0.0215
27481W        W47761  12.030   0.431   1.271  0.1138  0.2171  0.1451
27482W        W47762   9.284  10.100   4.704  0.0585 -0.0514 -0.1408
27483W        W47763  16.294   0.751  15.910  0.1716 -0.2666  0.3045
27484W        W47764  10.829   5.700   5.319 -0.0208 -0.1553  0.2019
27485W        W47765   5.099   9.695   2.352  0.2134  0.0244  0.1721
27486W        W47766  13.181  17.316  15.175 -0.0530  0.1682  0.1777
27487W        W47767  17.060  15.740  13.670 -0.1185 -0.2314 -0.0463
27488W        W47768   1.468  16.958   1.235 -0.0794  0.3285 -0.0195
27489W        W47769  16.562   9.551   2.297 -0.0225 -0.0788  0.1842
27490W        W47770   2.027   3.862  14.204  0.0533 -0.0583 -0.1034
27491W        W47771   1.159  16.163   4.684 -0.1675 -0.1135 -0.0569
27492W        W47772   7.129  16.062   0.332  0.1803 -0.1421 -0.1232
27493W        W47773   8.569  11.215   4.435  0.2198  0.0689 -0.0247
27494W        W47774   3.700   9.576  13.913 -0.0661 -0.0602  0.0738
27495W        W47775  11.919  10.073   2.235 -0.1088  0.0516 -0.1492
27496W        W47776  13.031  16.350  14.044  0.0198 -0.1560  0.0495
27497W        W47777  10.238   8.915   0.293  0.1425  0.0842  0.0200
27498W        W47778  15.130   8.485  15.849  0.0272 -0.0116  0.1637
27499W        W47779   7.828   1.597   1.494  0.0378 -0.1909 -0.2278
27500W        W47780   9.400  15.056   1.312  0.3558 -0.0650 -0.1538
27501W        W47781  15.586   9.348   4.679 -0.1545 -0.2330 -0.0206
27502W        W47782  12.917   0.248   0.845 -0.3179 -0.1701  0.1471
27503W        W47783  13.460  10.915   0.411  0.2081  0.0383  0.1968
27504W        W47784   8.517   5.359   3.998 -0.1341 -0.2965 -0.2126
27505W        W47785   3.520   3.000   5.024 -0.1542 -0.0222  0.0958
27506W        W47786   4.470   8.856   2.687 -0.0766 -0.1634 -0.0956
27507W        W47787   9.562   3.521   3.171 -0.1931  0.3040 -0.2453
27508W        W47788  14.463  16.443  12.357 -0.1130 -0.0624  0.2611
27509W        W47789  12.179  13.943  16.886  0.1549  0.1924 -0.0693
27510W        W47790   9.485  15.112   0.520  0.3521 -0.1884 -0.1019
27511W        W47791   5.626  12.785   2.404 -0.0973 -0.1055 -0.0883
27512W        W47792   7.184  16.231   3.985  0.1166  0.2220 -0.2029
27513W        W47793  10.450   0.078  14.166 -0.2290 -0.1009  0.0094
27514W        W47794   6.173  13.286  14.636 -0.1325  0.1546  0.0363
27515W        W47795  17.319   1.979   0.819  0.0108  0.2602  0.0230
27516W        W47796   4.439   5.073  11.851 -0.0428  0.2654  0.2682
27517W        W47797  11.438   5.617   2.537 -0.1426 -0.0007  0.1791
27518W        W47798   1.782  15.265  12.806 -0.1278  0.1253 -0.0564
27519W        W47799  14.599  10.561   0.335 -0.0093 -0.0723  0.3902
27520W        W47800   2.930  13.015   4.360  0.0125  0.5077  0.0601
27521W        W47801   2.561  16.308   3.036 -0.1585  0.0025  0.1328
27522W        W47802  15.229  13.342   1.920 -0.0091 -0.2535  0.2972
27523W        W47803   4.905  14.941   1.599 -0.1208 -0.1466  0.2586
27524W        W47804  13.239  15.396  14.076 -0.2913 -0.0168 -0.1088
27525W        W47805   9.903   0.169   1.346  0.0311 -0.3329  0.0256
27526W        W47806   3.906   1.898  15.201 -0.0323 -0.1383 -0.0081
27527W        W47807  17.541  15.863   1.091  0.0172 -0.1150 -0.1296
27528W        W47808   1.941   0.014   0.183  0.5223 -0.0602 -0.3203
27529W        W47809   8.197  15.220   4.341  0.0250  0.0279  0.0437
27530W        W47810   3.008   4.856  13.928  0.0638  0.1738 -0.1003
27531W        W47811  13.294   8.092   0.903  0.1206  0.1611  0.0688
27532W        W47812  17.727   9.023   3.509  0.0459  0.1725  0.3520
27533W        W47813   0.412   9.970  12.699 -0.0628 -0.0982 -0.0761
27534W        W47814   1.452  13.566  16.447 -0.0866  0.0431  0.0251
27535W        W47815   3.186   5.967  16.322 -0.2269  0.1887 -0.3222
27536W        W47816   7.907  13.902  12.832 -0.2207 -0.0082 -0.0899
27537W        W47817  11.213   1.410  13.424  0.2648  0.4008  0.0185
27538W        W47818  10.177  16.196   2.919 -0.2402 -0.1373  0.3356
27539W        W47819   1.883   0.333  14.451 -0.3322  0.2387  0.0116
27540W        W47820   0.886  13.468   1.643 -0.0088 -0.0228 -0.2262
27541W        W47821   6.047   1.899  14.488  0.1545 -0.1345  0.3925
27542W        W47822   0.125   0.279  13.407 -0.1992 -0.2591 -0.0297
27543W        W47823   4.482   9.460  12.409  0.0988 -0.1022  0.0595
27544W        W47824  12.344   6.663  12.778 -0.2770  0.0385 -0.1678
27545W        W47825   5.510  11.735   4.643 -0.0927  0.0838 -0.2126
27546W        W47826  17.626  10.152  15.329  0.0146 -0.0201  0.0118
27547W        W47827  10.382   2.630   0.577 -0.4221  0.1611  0.2449
27548W        W47828   4.044  12.825  14.303  0.0106  0.0425 -0.0604
27549W        W47829   0.083  13.626   0.505 -0.0629  0.0260  0.0886
27550W        W47830   6.993   6.902  15.923 -0.0261  0.1147  0.0105
27551W        W47831  11.184   8.386   0.283 -0.2655  0.3933  0.0290
27552W        W47832  17.509  16.072   5.141 -0.2467  0.2110 -0.1631
27553W        W47833  10.995   0.676   4.760  0.0408 -0.0201  0.1187
27554W        W47834  11.331   8.350  16.029  0.0485  0.0485  0.0919
27555W        W47835  15.344  14.489   2.630 -0.3283 -0.0632 -0.0136
27556W        W47836   8.548   9.541   1.530  0.1217  0.4108 -0.0126
27557W        W47837   9.681  15.524  12.404 -0.0789  0.1656  0.0820
27558W        W47838   5.499  17.730  16.675  0.1658  0.0224  0.2425
27559W        W47839   8.589  11.743   4.406 -0.2740 -0.1360 -0.1610
27560W        W47840   7.177  17.016   0.466 -0.2117 -0.0009  0.0875
27561W        W47841   3.062  14.028   2.342  0.0905 -0.0171 -0.0975
27562W        W47842   7.965   2.067   0.821  0.1749 -0.0154  0.2197
27563W        W47843  15.647  11.390   0.786 -0.0472  0.1227  0.1167
27564W        W47844  13.146  15.827   5.018 -0.0411  0.0134 -0.2281
27565W        W47845  12.213   3.849   1.563  0.0310  0.2006 -0.0398
27566W        W47846  13.088   9.121   3.150  0.2096  0.0967 -0.2936
27567W        W47847  16.907  14.963   4.702 -0.1083  0.2083 -0.0938
27568W        W47848  16.486   3.172   2.609 -0.2944  0.0507 -0.0369
27569W        W47849   3.731   1.286   3.492  0.4241 -0.1948 -0.2318
27570W        W47850   4.772   7.514   2.740  0.0327 -0.0798 -0.0622
27571W        W47851   9.621   6.091  16.340  0.0489  0.0638 -0.0109
27572W        W47852  11.936   3.492  16.080 -0.1292 -0.0393  0.0599
27573W        W47853  11.242  11.078   4.681  0.0639 -0.1370  0.0277
27574W        W47854  12.637   4.091   4.274  0.0854  0.1164 -0.1960
27575W        W47855   2.979  14.461  11.495  0.0217  0.2329  0.3070
27576W        W47856   5.985   6.605   4.037  0.0942 -0.1179  0.2419
27577W        W47857   6.471   5.183   3.808 -0.0931 -0.0882 -0.1213
27578W        W47858   8.936  11.034  14.696  0.1136  0.0270  0.0679
27579W        W47859   9.332  14.243  16.622  0.0847  0.2088  0.4865
27580W        W47860  15.592  13.075   2.326  0.0430 -0.0644  0.0063
27581W        W47861   2.373   3.638   1.308  0.1725 -0.0240 -0.0184
27582W        W47862   9.454   2.872   4.066 -0.4186 -0.0339  0.0920
27583W        W47863  14.823   7.268   2.129  0.1667 -0.0514  0.0658
27584W        W47864   2.938   3.877  13.363  0.0230 -0.0601 -0.2061
27585W        W47865  11.729  10.979   4.518 -0.0809  0.1446  0.3574
27586W        W47866  14.414   7.269  16.681 -0.1255 -0.0522 -0.0590
27587W        W47867   9.780  14.597  14.438 -0.2796 -0.0208  0.2594
27588W        W47868   4.311   4.921   4.987  0.1804 -0.3768 -0.1304
27589W        W47869   6.122  16.935   3.156 -0.0366  0.4786 -0.0967
27590W        W47870   6.139  17.151  15.544  0.3258  0.1484 -0.1473
27591W        W47871   7.859  10.100   4.550 -0.1063 -0.1594  0.1647
27592W        W47872   4.847  10.377   3.052  0.0523 -0.4850 -0.0934
27593W        W47873   9.452  13.613   3.679  0.0319 -0.1247  0.0538
27594W        W47874   2.378  16.921   0.207 -0.3154 -0.2611  0.0572
27595W        W47875  16.231   7.108  16.885 -0.1561 -0.0702  0.3195
27596W        W47876  11.333   6.809   4.241  0.3738  0.4301 -0.0761
27597W        W47877   0.691   3.539  14.743 -0.1286  0.0747  0.0243
27598W        W47878   0.311   6.457  14.077  0.0917  0.1007 -0.1468
27599W        W47879   7.496   5.049   3.562 -0.0855 -0.0325  0.0272
27600W        W47880   5.985  17.667   4.101 -0.0518 -0.1906  0.0292
27601W        W47881   4.238  12.175   4.421 -0.1773  0.2255  0.1829
27602W        W47882  16.280   5.615   1.747 -0.0514 -0.2714  0.0137
27603W        W47883   6.491   9.424   4.266  0.0655 -0.0300  0.0877
27604W        W47884   6.449   7.753  14.858  0.2238 -0.0758  0.0747
27605W        W47885  16.629  10.783   1.395  0.1155 -0.1739 -0.0050
27606W        W47886   0.767   2.016  15.356  0.1144 -0.1891 -0.2934
27607W        W47887  14.759  12.643   2.164 -0.2614 -0.2262 -0.3813
27608W        W47888   7.313   2.441  15.634 -0.1358  0.0323  0.2423
27609W        W47889  14.427  12.937  12.235  0.1232 -0.1846 -0.3079
27610W        W47890  10.070  16.013  16.047  0.0357 -0.2090  0.0229
27611W        W47891  16.504   4.358   2.975  0.0022  0.0542  0.0307
27612W        W47892  13.340  12.443  14.943 -0.0926  0.2312 -0.1249
27613W        W47893   6.487   3.979  13.391 -0.0178 -0.0777  0.1674
27614W        W47894   9.229   9.307  14.267  0.1209  0.2131  0.0748
27615W        W47895  13.467   7.565   1.075 -0.0456  0.2524 -0.0787
27616W        W47896   2.311   2.879  16.293  0.1611 -0.1483  0.0151
27617W        W47897  10.157  14.709   5.073  0.1708  0.0868  0.0602
27618W        W47898  14.876  12.890  16.388 -0.1593  0.2643  0.0337
27619W        W47899   9.798   7.038  12.148  0.4414 -0.0977 -0.1424
27620W        W47900  17.187  17.377  12.704  0.1082 -0.2308  0.0954
27621W        W47901   2.394  15.121   4.610  0.3206 -0.0867  0.0295
27622W        W47902   6.589   1.700   4.412 -0.4345  0.0249 -0.2332
27623W        W47903  16.278  12.146   3.498  0.2430 -0.0588 -0.1113
27624W        W47904   2.453  13.231  12.563  0.0841  0.1660  0.0649
27625W        W47905   8.232  16.533   4.723 -0.0974 -0.0994  0.1361
27626W        W47906   4.384  10.236   2.839 -0.0327 -0.2181  0.1688
27627W        W47907  16.491  17.472  15.105  0.1756 -0.0262 -0.1446
27628W        W47908  17.644   2.938   4.900 -0.0851 -0.1455  0.4208
27629W        W47909  13.071  12.741   1.294  0.0077  0.0700  0.1419
27630W        W47910  13.376  15.860  15.472 -0.1366  0.1065 -0.0144
27631W        W47911  12.596  10.019  12.548 -0.0328  0.0674 -0.0721
27632W        W47912   0.765  10.861   2.853  0.3013 -0.0363 -0.0137
27633W        W47913  14.991   4.211  15.652  0.0399  0.1663 -0.0514
27634W        W47914   4.913   5.800  15.593  0.3179 -0.1324 -0.4002
27635W        W47915   3.653  17.000   4.556  0.1046 -0.3688  0.0807
27636W        W47916   4.256   3.981  12.441  0.1939 -0.2574  0.1431
27637W        W47917   2.726   1.977   3.281  0.1826 -0.0105 -0.0065
27638W        W47918   3.305   3.015  16.398  0.1779  0.1381  0.0177
27639W        W47919  13.019  11.927  12.080 -0.0820  0.2476 -0.4053
27640W        W47920   6.648  10.219   3.091 -0.0752 -0.3058  0.1229
27641W        W47921   9.920   5.497  14.934  0.1840  0.1464 -0.0437
27642W        W47922  10.752  17.186   0.596  0.0957 -0.0226  0.1478
27643W        W47923  17.045  15.296   0.674  0.4209  0.1680  0.0343
27644W        W47924   7.700   1.357   1.995 -0.1980 -0.1024  0.0779
27645W        W47925   8.657  11.766   0.364 -0.0059 -0.0841  0.1985
27646W        W47926   5.339   5.996  16.502  0.0851  0.0722  0.2316
27647W        W47927   5.822   8.976  15.360 -0.0125 -0.5098  0.1400
27648W        W47928  11.417  16.852   0.869  0.3325 -0.0216  0.0586
27649W        W47929   4.623  10.888   3.768  0.1031 -0.1053  0.2896
27650W        W47930   8.150  14.686   4.262 -0.2397 -0.1201 -0.0063
27651W        W47931  14.982  13.640   1.132  0.0652 -0.0573 -0.0264
27652W        W47932  16.663   1.130  14.609  0.1721 -0.0906 -0.0234
27653W        W47933  13.280  17.346   3.803  0.0793 -0.2046 -0.0679
27654W        W47934   9.429  14.675   3.019  0.0211 -0.1905 -0.0408
27655W        W47935   7.661  11.186   4.601  0.1842  0.1809  0.0857
27656W        W47936   5.129   8.793  12.704  0.2768 -0.1032 -0.1026
27657W        W47937   5.228   6.644  15.492 -0.2903  0.0262  0.0204
27658W        W47938   1.564  12.147   4.105 -0.0001 -0.3408 -0.0742
27659W        W47939   4.266  11.795  16.734 -0.0974  0.0086 -0.1174
27660W        W47940  10.020  12.408  12.559  0.5257  0.1314 -0.2192
27661W        W47941  14.953   3.499   0.842  0.0169 -0.0655  0.1730
27662W        W47942  12.821   7.311  15.912 -0.0323 -0.2766 -0.0251
27663W        W47943   1.634   1.437  15.137  0.2621  0.0725  0.0314
27664W        W47944   4.483   9.835  16.992  0.0634  0.0299 -0.0031
27665W        W47945  11.852   6.598  15.231  0.2481 -0.0908 -0.0627
27666W        W47946  10.934  10.339  16.668  0.0922  0.2343  0.2478
27667W        W47947  14.407  10.433  16.076  0.1809 -0.0418 -0.1127
27668W        W47948  13.583  16.372  16.295  0.1001 -0.3383 -0.2868
27669W        W47949   4.252  13.314   2.338 -0.1115  0.0088 -0.0177
27670W        W47950   2.993  17.333  16.583  0.2235  0.0107 -0.1045
27671W        W47951  17.374  17.596   4.347  0.0876 -0.2445 -0.3011
27672W        W47952  14.779   2.940  13.532  0.0251 -0.1073  0.1939
27673W        W47953  12.526   7.721  12.999 -0.1347 -0.1788 -0.2770
27674W        W47954   9.987   8.272   2.141 -0.3666  0.0591 -0.1852
27675W        W47955  13.031   3.214  12.886  0.0842  0.0081  0.1599
27676W        W47956   4.749   9.546   3.553  0.2146  0.1372  0.3777
27677W        W47957  15.843  13.035  15.666 -0.1155 -0.0709 -0.0208
27678W        W47958   7.647  13.391   4.048 -0.3061  0.0652 -0.0916
27679W        W47959  17.394   4.328   3.386 -0.0092  0.2370  0.0579
27680W        W47960  17.255   7.309   4.120  0.0367  0.0213 -0.0058
27681W        W47961   0.330   2.976   1.315 -0.3207 -0.0236 -0.1679
27682W        W47962   3.327  16.605   3.392  0.0139 -0.1397  0.0174
27683W        W47963  12.665   7.771  15.044  0.3699  0.0306 -0.0602
27684W        W47964  12.769  11.642  14.071  0.2786  0.1860 -0.3563
27685W        W47965  16.399   8.593   3.583  0.1353 -0.0062  0.0044
27686W        W47966  17.242   0.069   2.510  0.0937  0.1209  0.1152
27687W        W47967  17.397   5.001  13.984  0.1949  0.1117  0.2696
27688W        W47968   8.903   8.186   1.353  0.0691 -0.0674  0.2263
27689W        W47969   4.776   2.348   5.885 -0.2378  0.0489 -0.0082
27690W        W47970  16.390  11.581   3.544  0.0421  0.2847  0.1062
27691W        W47971   7.419  10.835   2.206 -0.0694 -0.2089 -0.2332
27692W        W47972   3.510   7.697  16.289  0.1157  0.0089 -0.0192
27693W        W47973  13.284   0.880   4.173 -0.3071  0.1225 -0.1379
27694W        W47974   3.437   8.795   2.309 -0.2780 -0.0220 -0.3506
27695W        W47975  14.131  13.562   1.890  0.2822 -0.0849  0.0713
27696W        W47976  10.546   1.934  16.140  0.0212 -0.0336  0.3021
27697W        W47977   0.993   2.292  14.944  0.0705  0.0838  0.0038
27698W        W47978   2.292  17.330  12.463  0.1518  0.1014  0.1076
27699W        W47979  16.656   3.169  13.536  0.1169  0.1986 -0.3302
27700W        W47980   6.885  12.540   0.285 -0.0414 -0.1263 -0.1901
27701W        W47981   3.570  11.960   2.006 -0.0170 -0.1880 -0.4716
27702W        W47982  17.037   6.719  12.482  0.0168 -0.2343 -0.0363
27703W        W47983  10.593   5.167  15.929  0.0353  0.4207  0.0507
27704W        W47984  14.451  16.951  13.740  0.1248  0.0286 -0.4352
27705W        W47985  11.335  13.144  15.158 -0.2342 -0.0216 -0.2128
27706W        W47986  16.249   9.431  16.090 -0.0262 -0.1108  0.1329
27707W        W47987  12.396   2.016   3.781  0.0887  0.0506 -0.1025
27708W        W47988  12.814   1.060  15.707 -0.0800  0.0784 -0.1572
27709W        W47989   6.153   7.886  16.736 -0.0236  0.1727 -0.0158
27710W        W47990  13.256  14.070   3.705 -0.0381 -0.3367 -0.1492
27711W        W47991  16.777  16.377   4.634  0.1608 -0.2748 -0.2366
27712W        W47992  16.614  12.823   0.109 -0.1799 -0.1001 -0.0836
27713W        W47993   2.079   5.516  15.846 -0.1088  0.0449 -0.4787
27714W        W47994  15.618  11.376  15.770  0.1227 -0.1423  0.2930
27715W        W47995   7.870   4.572   0.914 -0.1237 -0.2004 -0.2160
27716W        W47996   7.172  13.319   1.188  0.3533 -0.1794 -0.2955
27717W        W47997  17.554  11.214  14.515  0.2093  0.0334  0.1889
27718W        W47998   4.886  15.867  12.079 -0.0598 -0.1272  0.0897
27719W        W47999  11.710   4.903  12.297 -0.2544 -0.1647 -0.2234
27720W        W48000  11.936   8.023   4.635  0.1690  0.2136  0.3322
27721W        W48001   2.797  15.790  13.482 -0.2919  0.3251  0.0792
27722W        W48002  10.760  12.296  12.006 -0.0870  0.3088 -0.1375
27723W        W48003   2.030  17.621  14.541  0.0801  0.1894  0.2525
27724W        W48004  12.366  12.753  14.185 -0.0534  0.3034  0.2817
27725W        W48005  12.563   5.938   4.388  0.0496  0.0104  0.3169
27726W        W48006   1.376  10.823   3.196 -0.0729  0.0446  0.1219
27727W        W48007  12.905   8.794   0.147 -0.1178  0.1117 -0.0423
27728W        W48008   8.016  10.303   0.185  0.1843  0.0204  0.1677
27729W        W48009   4.733  11.188   2.524 -0.0407  0.3431 -0.2614
27730W        W48010  10.911   0.608   2.826 -0.0643  0.3822  0.0286
27731W        W48011  10.466   5.081  13.026  0.0808 -0.0639 -0.0926
27732W        W48012   3.520   7.224   0.574 -0.1852  0.0850 -0.1070
27733W        W48013   6.070  15.446  12.434  0.0075 -0.1780  0.0897
27734W        W48014   9.072  17.261  13.524 -0.0755  0.2256  0.2131
27735W        W48015  16.617  17.359   1.419 -0.1496  0.1641 -0.0186
27736W        W48016   5.017   6.887   4.959 -0.1315 -0.0726  0.2033
27737W        W48017   2.340   5.461   2.424  0.2104  0.1306  0.2382
27738W        W48018  17.649   4.810  16.999 -0.2309 -0.2368  0.0714
27739W        W48019  17.693  12.682  14.712 -0.2119  0.1138  0.0440
27740W        W48020  12.951  17.552   3.497  0.0056  0.1791  0.4649
27741W        W48021   7.106   1.141  15.224 -0.0459 -0.1382 -0.0645
27742W        W48022   7.301  16.649   2.397  0.1668 -0.0166  0.0017
27743W        W48023  15.977  10.287  13.451 -0.1720  0.1602  0.2568
27744W        W48024   8.854   8.588   0.053  0.2166 -0.2667  0.0509
27745W        W48025  13.460   6.635   2.073 -0.1175 -0.4778  0.0735
27746W        W48026   2.561   6.922   4.417 -0.3115  0.1954  0.2364
27747W        W48027   7.678  11.831   1.213  0.2788  0.0331  0.0593
27748W        W48028   3.545   4.041  16.127  0.0344  0.0475  0.0009
27749W        W48029   3.388   7.054   3.157 -0.2412  0.1454 -0.0126
27750W        W48030  10.371   0.528   2.655  0.2420  0.1662 -0.0687
27751W        W48031   2.241   5.065  13.256  0.1106  0.0472 -0.2336
27752W        W48032  12.380  14.458  15.913 -0.0791 -0.1233  0.0350
27753W        W48033   9.169   8.748   2.055  0.1974 -0.1622  0.1469
27754W        W48034  14.201   9.323   3.575  0.1159 -0.0018 -0.1589
27755W        W48035  15.092   1.991   2.249  0.0532  0.0220  0.2499
27756W        W48036   1.928  16.013  15.407 -0.2584  0.0075  0.3662
27757W        W48037  15.458   6.022  13.636 -0.0009  0.0481  0.3370
27758W        W48038   0.673   1.546   1.810  0.1760 -0.3879  0.0697
27759W        W48039  17.694  10.479  13.816 -0.3102 -0.2517 -0.0264
27760W        W48040   4.896  10.051  15.370  0.1749 -0.2182  0.2586
27761W        W48041  17.002  17.345   4.088  0.1285 -0.0692 -0.4173
27762W        W48042  12.995   0.919   1.539  0.2512  0.4898 -0.1184
27763W        W48043  16.734  10.995  15.049 -0.0668 -0.0407 -0.2075
27764W        W48044   3.822   8.328   3.930 -0.1072  0.1838 -0.0437
27765W        W48045  13.241   0.521   0.312  0.1391 -0.3226  0.1690
27766W        W48046   8.425   2.110   4.852  0.2758  0.1584 -0.2264
27767W        W48047   0.671   9.154   0.695 -0.3014  0.1630 -0.0787
27768W        W48048   0.904   5.095   5.871  0.0693 -0.0072 -0.1933
27769W        W48049   0.001   5.232  15.352 -0.1232 -0.3055 -0.1075
27770W        W48050  13.120   8.576   3.175  0.0026 -0.1193  0.0849
27771W        W48051  10.814   8.426  12.486  0.1172  0.1267  0.1663
27772W        W48052  11.171  14.682   0.858  0.1661  0.0212 -0.0962
27773W        W48053   2.126  15.615  15.715 -0.0967  0.0199 -0.1881
27774W        W48054  10.004   1.067   2.562  0.3746  0.1347  0.3747
27775W        W48055   2.352   7.640   0.792  0.1496  0.0609 -0.1079
27776W        W48056  13.753   7.835  12.184 -0.0792  0.4906  0.2687
27777W        W48057   5.006  11.473   4.760 -0.0412  0.3308  0.3153
27778W        W48058   3.893  12.332   2.508  0.0313 -0.3819 -0.1581
27779W        W48059  13.027  10.276  13.950  0.0733 -0.4465 -0.0494
27780W        W48060   7.570  16.879   0.163 -0.0364 -0.1089 -0.0885
27781W        W48061   7.463  10.015   0.334  0.2740  0.0779  0.2659
27782W        W48062  11.580  12.748   3.621  0.1991  0.0614  0.3935
27783W        W48063   6.996  13.412  12.527  0.3467  0.0201  0.1742
27784W        W48064   2.492  16.676   1.339 -0.1711 -0.0542  0.0623
27785W        W48065   3.394  16.581   2.482 -0.2076  0.0310 -0.1490
27786W        W48066   7.846   3.188  13.718 -0.3868  0.0990 -0.0382
27787W        W48067   2.566   9.120  15.340 -0.5098  0.1242 -0.1254
27788W        W48068  17.522  13.049  14.327  0.1285 -0.0753 -0.1930
27789W        W48069  17.257   4.743  15.260 -0.0544  0.2861  0.1958
27790W        W48070  14.682  12.031  15.243  0.1159 -0.0380  0.1746
27791W        W48071  11.969   4.787   3.621 -0.1030  0.0266  0.2490
27792W        W48072  14.175  12.430   3.765 -0.0453  0.0161  0.0266
27793W        W48073   4.060  16.751  15.318 -0.0035  0.0754 -0.0188
27794W        W48074  12.444   3.019   4.806 -0.1276 -0.0544  0.1777
27795W        W48075  13.997  16.081   1.035  0.0467 -0.2069  0.1392
27796W        W48076  16.682   1.941   3.895  0.1848  0.2477 -0.1045
27797W        W48077   8.894   1.720   0.479  0.1423  0.0619  0.0485
27798W        W48078   4.908   1.108  13.956 -0.3636 -0.0973  0.1798
27799W        W48079   6.872   7.621  13.767 -0.0219 -0.1261 -0.2115
27800W        W48080   1.178  15.644  14.235  0.0286  0.1568 -0.0873
27801W        W48081   0.222   8.549   0.021  0.2937 -0.2732  0.2091
27802W        W48082   3.792   3.609  12.951 -0.0204 -0.2440 -0.1179
27803W        W48083   9.824   7.835   0.291 -0.1553  0.2751 -0.1831
27804W        W48084  13.662  12.886  15.002  0.1098 -0.1787 -0.0220
27805W        W48085  17.631   4.593  13.617  0.0297 -0.1171  0.1734
27806W        W48086   5.471  13.993  16.181 -0.0183 -0.1576  0.1359
27807W        W48087  11.332   1.353  15.171 -0.1891 -0.1247 -0.1599
27808W        W48088  14.431  11.584  14.064  0.1574  0.2211 -0.0274
27809W        W48089   3.523   6.518   1.451  0.0691 -0.0665 -0.1670
27810W        W48090  17.083   5.733   4.408  0.3669  0.3116  0.2553
27811W        W48091   5.363   2.867   5.037  0.1973 -0.3134  0.3537
27812W        W48092   8.397   6.685  15.203 -0.0614  0.2161  0.0354
27813W        W48093   7.042  14.929  16.841 -0.0746 -0.0100 -0.0355
27814W        W48094  13.790   1.729   4.490  0.1486 -0.1415  0.1110
27815W        W48095   1.333   2.996   2.992  0.3775  0.3714  0.3230
27816W        W48096   5.273  12.589  12.505 -0.0215 -0.1841  0.2379
27817W        W48097  16.240   1.848  13.387 -0.3068  0.0175 -0.3311
27818W        W48098   2.527  13.971  12.236  0.0383  0.1519  0.3026
27819W        W48099  17.170  10.341  14.544 -0.1472 -0.1684  0.0836
27820W        W48100  11.317  15.897   2.832 -0.0830 -0.0740 -0.1237
27821W        W48101  15.193  17.317   2.748  0.0723  0.1253 -0.0989
27822W        W48102   1.737  15.715   2.750 -0.0894  0.0764  0.0293
27823W        W48103   9.329  14.634   0.351  0.0392 -0.0105 -0.1307
27824W        W48104   0.716  15.993   3.377  0.0045 -0.2344  0.1244
27825W        W48105   0.956   7.490  16.265 -0.1494 -0.1540 -0.2514
27826W        W48106  14.987  17.461  16.303 -0.0124 -0.1958 -0.2538
27827W        W48107   9.847  13.382  12.531 -0.0084 -0.0234  0.0419
27828W        W48108  11.707   6.236  15.590 -0.3362 -0.2866 -0.1674
27829W        W48109  13.047   4.908  13.201  0.1768 -0.0463 -0.0829
27830W        W48110  16.215   9.731  14.316  0.1334 -0.1755  0.1500
27831W        W48111  10.611   1.805   4.360 -0.0954 -0.0002  0.1097
27832W        W48112  13.113   8.181  14.351  0.0974  0.2261  0.0094
27833W        W48113   0.049   9.495   0.362  0.2882  0.4579  0.3420
27834W        W48114   1.875   9.921  14.548  0.0410  0.5012 -0.0529
27835W        W48115  17.565   2.418   2.585  0.1323  0.2513 -0.0577
27836W        W48116   8.867   5.289   3.327  0.2553 -0.0303 -0.2124
27837W        W48117   1.163   0.602  15.197 -0.0602 -0.0814 -0.2097
27838W        W48118  14.695   9.312   4.587 -0.0127  0.2555 -0.1146
27839W        W48119  16.520  16.145  16.164  0.1637 -0.0439  0.1578
27840W        W48120  15.722  14.756  15.271 -0.1326 -0.0781  0.0423
27841W        W48121   0.082   8.605   3.726 -0.1586  0.2126 -0.4017
27842W        W48122   2.660  10.161  12.198 -0.0003  0.2511  0.0221
27843W        W48123   7.148   1.260   1.833  0.0086 -0.2368 -0.2830
27844W        W48124  16.070  10.067   1.803 -0.0827 -0.2003 -0.0765
27845W        W48125   8.369  16.926  13.607 -0.1772 -0.0143  0.0389
27846W        W48126   8.259  16.313   1.770 -0.0304  0.1567 -0.1125
27847W        W48127   9.592  15.266  13.936 -0.1682 -0.0597 -0.1108
27848W        W48128   1.838   2.034   4.636 -0.3577  0.0653 -0.0200
27849W        W48129  11.911  10.013  13.542  0.2370  0.1691 -0.0333
27850W        W48130  16.703   1.082  15.123 -0.0800 -0.0495 -0.2641
27851W        W48131  10.005   8.826  16.465  0.1753 -0.0155  0.1406
27852W        W48132   6.080  14.931  15.000 -0.2307  0.1870 -0.1226
27853W        W48133   0.690   7.359  13.902 -0.2578 -0.0292  0.1648
27854W        W48134  17.639   4.355   4.502 -0.0206 -0.0423  0.1979
27855W        W48135  14.204  15.721   0.604  0.2546  0.0521 -0.0686
27856W        W48136  12.413  14.194   1.283  0.0402  0.1537 -0.4389
27857W        W48137   6.533   2.333  15.190  0.1051  0.4720  0.0140
27858W        W48138   8.083   9.643   4.822 -0.3185  0.1552 -0.0323
27859W        W48139   4.351  10.539  15.664 -0.0766  0.0775 -0.1129
27860W        W48140   5.722   9.213  11.521  0.2088  0.1739 -0.0176
27861W        W48141   2.592   3.550  12.505  0.2240 -0.0465 -0.0611
27862W        W48142  16.115   1.202  15.030  0.0062 -0.1394 -0.1219
27863W        W48143  12.298   2.789  15.930  0.0911 -0.0891  0.2782
27864W        W48144  10.538   1.202   3.509 -0.2143 -0.1662 -0.2064
27865W        W48145   0.803  16.865  15.319  0.0518  0.0039  0.1629
27866W        W48146  15.404  12.967   3.646 -0.1235 -0.1374  0.0122
27867W        W48147   1.891   5.435  16.869  0.4799 -0.5335  0.2453
27868W        W48148   9.185   4.706   0.359 -0.2526 -0.1396  0.1696
27869W        W48149  13.677   6.285   4.605  0.4329  0.0636 -0.1336
27870W        W48150   7.852   9.644   4.303 -0.1640  0.0826  0.1277
27871W        W48151  10.907   0.908   3.334  0.1665  0.0297 -0.1423
27872W        W48152  13.498  16.691   2.392 -0.0773  0.0596 -0.2302
27873W        W48153   1.320   2.160   0.269 -0.0536  0.1794  0.0238
27874W        W48154  10.491  14.975   0.416 -0.5117 -0.1289 -0.1299
27875W        W48155  14.868  11.354   0.576 -0.2201  0.0327  0.4443
27876W        W48156   7.260  10.976  12.828  0.0834  0.3847  0.0391
27877W        W48157  15.901   3.648  14.571 -0.0613 -0.1732  0.0862
27878W        W48158   8.449  16.499  13.884 -0.0248 -0.1966 -0.0570
27879W        W48159   5.121  12.939   3.198 -0.4082  0.0177 -0.0156
27880W        W48160  12.962   3.634  15.955  0.4512  0.1107 -0.0292
27881W        W48161  14.712   0.598   4.575  0.1494  0.2348  0.2949
27882W        W48162  15.633   3.411  13.097 -0.0336 -0.1965  0.1974
27883W        W48163   4.661   5.036   0.242  0.0450 -0.1525 -0.1909
27884W        W48164  15.595  13.361   0.123  0.0261  0.1368 -0.1724
27885W        W48165   8.523   7.503   2.038 -0.0337 -0.2897  0.0144
27886W        W48166   3.081   7.378  15.046 -0.0980 -0.1047 -0.0361
27887W        W48167  14.442   5.668   3.517  0.1171 -0.0481 -0.0077
27888W        W48168  13.132   3.901   2.150 -0.0675  0.2162  0.2355
27889W        W48169   2.969   0.599   4.742  0.1508  0.1408 -0.0297
27890W        W48170  15.467  16.002  12.246 -0.1427 -0.0737 -0.0755
27891W        W48171  16.872   9.163  15.125  0.2125  0.2921 -0.4168
27892W        W48172   5.973  10.887  15.089  0.0227 -0.1048 -0.1183
27893W        W48173   7.521   9.988  15.365  0.0802  0.0427 -0.0847
27894W        W48174   7.093  16.282  12.797 -0.2037 -0.1913 -0.0566
27895W        W48175   7.748  13.639  16.459  0.1563  0.3722 -0.1925
27896W        W48176   0.207  10.140  12.147  0.1403  0.3478 -0.0229
27897W        W48177   6.294   0.149  16.249 -0.0861  0.1320  0.0909
27898W        W48178   5.162   3.429  14.512 -0.3829  0.1609 -0.0337
27899W        W48179  12.329  11.828   0.491 -0.1225  0.1272 -0.3202
27900W        W48180  10.310   3.142  16.169 -0.3122  0.2602  0.1499
27901W        W48181  16.761  11.348   1.452 -0.0068  0.2128 -0.2052
27902W        W48182  11.003  16.313  16.880  0.2250 -0.1766 -0.2045
27903W        W48183  17.394  12.547   3.051 -0.1596 -0.1250 -0.1128
27904W        W48184   4.901  17.505   2.885  0.0232  0.1516  0.1039
27905W        W48185  11.776  13.810   4.517 -0.2248 -0.1013 -0.0300
27906W        W48186   5.254   4.390   3.871 -0.2157 -0.0616 -0.0930
27907W        W48187   6.961   6.015  13.421  0.0183 -0.3059 -0.3208
27908W        W48188  11.047   8.252   0.760 -0.1119 -0.1630  0.0622
27909W        W48189  15.650   1.354  16.382  0.1027  0.0617  0.2038
27910W        W48190  13.723   7.452   1.961  0.0418  0.1285  0.0095
27911W        W48191  12.172   9.224   3.353 -0.1067 -0.1503 -0.3530
27912W        W48192   3.500  12.732   4.101  0.0522 -0.2006 -0.0826
27913W        W48193   7.242   1.632  15.139  0.2056 -0.0232  0.0338
27914W        W48194  11.442   1.443  16.522  0.0234 -0.1940 -0.1360
27915W        W48195   9.206   0.808  14.384 -0.0903 -0.0519  0.0461
27916W        W48196  17.723   7.362  13.976 -0.1711 -0.2652  0.1355
27917W        W48197   8.841  12.691  12.229 -0.2566 -0.0860  0.1948
27918W        W48198   1.277  14.386   3.849  0.0137  0.0756 -0.0516
27919W        W48199   6.492   1.129   0.400 -0.3711  0.1371 -0.0795
27920W        W48200  12.341   8.070  14.803  0.0021  0.0625 -0.1162
27921W        W48201  11.033  11.466  16.631 -0.1687 -0.3038  0.2904
27922W        W48202  15.591   1.039   2.488  0.3453 -0.0081  0.0622
27923W        W48203   6.638   4.355   2.054 -0.0362  0.0061 -0.3136
27924W        W48204  11.797  12.534  13.623  0.0375 -0.0150 -0.1380
27925W        W48205  15.687  17.696  16.892 -0.0343  0.0392 -0.0390
27926W        W48206   3.388  15.187   2.176  0.3694 -0.0878  0.0170
27927W        W48207   1.512   3.991   2.792  0.2239  0.0372 -0.3232
27928W        W48208  12.231  10.693   3.374  0.0955 -0.5344  0.1398
27929W        W48209  11.047  15.296  15.942  0.0181 -0.0790 -0.6283
27930W        W48210   2.837  10.482  15.123 -0.3491  0.0789  0.2533
27931W        W48211  13.863   2.494   4.919  0.1098 -0.1415 -0.2327
27932W        W48212   8.661   6.365  13.295  0.1142 -0.1508  0.0373
27933W        W48213  10.969  13.848   1.838 -0.0482  0.2150 -0.2945
27934W        W48214   0.521   3.009  15.939 -0.0178  0.0709  0.0697
27935W        W48215  17.461   6.123   1.191 -0.1039 -0.3011  0.0006
27936W        W48216  11.801  12.247   1.841 -0.0929 -0.1650 -0.2351
27937W        W48217   3.285   4.300   4.232 -0.1428 -0.3242  0.2895
27938W        W48218  11.772   9.783   3.994  0.0878 -0.3051  0.0032
27939W        W48219  14.090  11.869   3.659  0.0938 -0.0251  0.5409
27940W        W48220  13.851  14.526  15.244  0.2719  0.0551 -0.0476
27941W        W48221  12.521  16.465   3.184 -0.0050  0.2461  0.3669
27942W        W48222   9.696   4.677   4.521  0.2867  0.0758  0.0924
27943W        W48223   7.518   7.612  14.763 -0.2302 -0.1359  0.2758
27944W        W48224   9.339   2.658  16.146 -0.1849  0.1083 -0.1763
27945W        W48225   5.812  15.177  13.330  0.1968  0.1271  0.1238
27946W        W48226  16.009  10.115  14.072 -0.0467 -0.1110 -0.0242
27947W        W48227  12.051  14.319  15.574  0.0237  0.0415  0.0895
27948W        W48228   5.569  14.313   0.240  0.0726  0.0818 -0.1806
27949W        W48229   8.748  11.937   1.688  0.2762 -0.2473 -0.2461
27950W        W48230   4.279   5.699  16.409  0.0842  0.0898 -0.3030
27951W        W48231   6.595  11.046  15.862 -0.1028  0.1173 -0.2228
27952W        W48232   7.223  14.197   3.530  0.1817 -0.0234 -0.1246
27953W        W48233   2.663   9.664  13.140 -0.1525 -0.0878 -0.0495
27954W        W48234   3.118   8.885  14.838  0.0137 -0.3188  0.0654
27955W        W48235  13.550   0.694   2.424 -0.2854  0.0326  0.1653
27956W        W48236  14.207  12.546  12.446 -0.1525 -0.1043  0.2382
27957W        W48237  10.103  15.646  13.023 -0.1709 -0.0125 -0.0850
27958W        W48238  15.445   0.906  15.400  0.1696  0.0654  0.2007
27959W        W48239  13.946   1.283   2.718  0.2858  0.0960 -0.0335
27960W        W48240   7.289  13.868  16.014 -0.1463  0.2061 -0.1128
27961W        W48241  10.960   9.907   4.582  0.1188 -0.3666 -0.1993
27962W        W48242   9.227   4.950   0.827 -0.1312  0.1902 -0.0539
27963W        W48243   7.566   7.581   2.345 -0.0722  0.1255 -0.2369
27964W        W48244   2.103   8.848  16.505 -0.2660  0.0510 -0.0835
27965W        W48245  10.696   1.717   3.486  0.6817  0.1384  0.1464
27966W        W48246   7.342  11.482   1.154  0.1002 -0.0896  0.1418
27967W        W48247  15.092   1.912   4.669 -0.0246 -0.0333  0.3493
27968W        W48248   6.357   9.139  12.634  0.0806  0.2073 -0.0748
27969W        W48249   7.588  12.870   1.785 -0.0451  0.1172  0.0680
27970W        W48250  17.480   6.337   2.534 -0.2212  0.0961  0.1335
27971W        W48251  12.262   0.007  14.148 -0.0028  0.2491 -0.1105
27972W        W48252   6.780   1.374   1.029  0.0755 -0.0497 -0.2087
27973W        W48253   8.203  17.313  14.204 -0.2034 -0.4265 -0.0376
27974W        W48254  13.456   8.500  13.567 -0.2330  0.1050  0.1455
27975W        W48255   3.596   9.332  12.340 -0.1385  0.1658  0.0264
27976W        W48256   1.430   1.604   2.859  0.0025  0.3232 -0.4350
27977W        W48257   0.040  16.268  14.527  0.0738  0.1743 -0.2566
27978W        W48258  13.328  12.667  12.184 -0.1105 -0.1544  0.1835
27979W        W48259  13.647   6.995   2.924 -0.0168  0.1176 -0.2225
27980W        W48260   3.928   5.698  14.651 -0.4885 -0.0033 -0.0878
27981W        W48261  14.416   8.196  13.700 -0.2729 -0.1162 -0.0040
27982W        W48262   2.208   8.937   4.592  0.3008  0.1259 -0.0618
27983W        W48263  11.218   6.869  13.273  0.1359  0.5591 -0.0346
27984W        W48264   1.901   1.399  13.708 -0.0195  0.3000  0.0811
27985W        W48265  11.240   2.879  12.129 -0.0823  0.1320  0.0540
27986W        W48266  12.529  12.942   4.180 -0.2820 -0.0771 -0.1058
27987W        W48267   5.736   5.170   0.904 -0.0434  0.2364  0.2417
27988W        W48268  14.593   4.049  16.042 -0.0760 -0.1841  0.1228
27989W        W48269   6.295  10.338  11.509 -0.0948  0.0103  0.2720
27990W        W48270   0.595   6.372   2.572 -0.2503 -0.3545  0.0744
27991W        W48271  14.023  12.270  13.568 -0.0168 -0.0209 -0.0296
27992W        W48272  13.312  17.294   4.379 -0.0510  0.2301  0.1410
27993W        W48273  17.329   4.830  13.290  0.2420  0.0416  0.2926
27994W        W48274  10.225  13.186   4.280  0.1267 -0.1370  0.1246
27995W        W48275   9.657  16.998  14.593 -0.0296  0.0458 -0.0028
27996W        W48276   4.189   8.078   1.994 -0.0376  0.2121  0.0635
27997W        W48277  16.920   7.102   0.343 -0.2138 -0.0265  0.0427
27998W        W48278   2.006  12.175   0.225 -0.2203 -0.3894  0.2564
27999W        W48279   9.033  13.450  15.560  0.0841 -0.2282  0.2094
28000W        W48280   5.769   0.873  16.803 -0.2348 -0.1947  0.0126
28001W        W48281   7.106   4.517   0.212 -0.0299  0.0259 -0.0867
28002W        W48282   4.967   0.495   1.309  0.2856  0.0436  0.0080
28003W        W48283  16.516   4.111  14.698  0.2465 -0.0052  0.2104
28004W        W48284  11.739   1.816   3.889  0.0718  0.1002 -0.1690
28005W        W48285   6.096   0.535   1.036 -0.0598 -0.0335 -0.2324
28006W        W48286   0.385   6.699   1.728  0.1897  0.1389  0.0899
28007W        W48287  16.557   8.787   3.059 -0.0484  0.0591 -0.0367
28008W        W48288  10.571   1.985   1.200 -0.1648  0.0545  0.0433
28009W        W48289   0.313   7.740   5.868  0.1606 -0.2271  0.2084
28010W        W48290   9.065   5.305   0.301  0.1825 -0.1612  0.0107
28011W        W48291   2.645  16.239  12.277  0.0401  0.0738 -0.1537
28012W        W48292   0.697  15.612  13.391  0.0371 -0.2052  0.0492
28013W        W48293  13.233   4.074  13.966 -0.2818 -0.0944  0.2830
28014W        W48294  10.430   7.760  13.089 -0.0253 -0.1572 -0.2870
28015W        W48295   9.028  12.059   0.766 -0.0212 -0.3432  0.1892
28016W        W48296   3.403  13.040  14.730 -0.3348 -0.1665 -0.1921
28017W        W48297  17.362   8.979  13.445  0.0107 -0.1358  0.0352
28018W        W48298   7.786   2.694  14.826 -0.0277  0.2718 -0.1609
28019W        W48299   0.888  16.652  14.393 -0.2051  0.0351 -0.0891
28020W        W48300  10.218  14.923   2.563  0.1344  0.1158 -0.0317
28021W        W48301   2.511   6.209  13.798  0.4287 -0.1174 -0.3076
28022W        W48302  15.802  12.082  16.242 -0.0072  0.1990  0.3256
28023W        W48303   3.707   5.806   3.320  0.0907  0.0294  0.5208
28024W        W48304   0.814  15.556  13.905 -0.0113 -0.0541  0.0427
28025W        W48305  14.990   5.149  15.744  0.0687  0.2984 -0.4464
28026W        W48306   5.898  15.502   5.241 -0.1565  0.3361 -0.2735
28027W        W48307  13.463   0.572  15.492  0.1079  0.2320 -0.2530
28028W        W48308  17.238   2.014  14.903 -0.1087 -0.2344  0.1630
28029W        W48309   6.839   8.414  14.194 -0.3471 -0.1139 -0.5261
28030W        W48310   0.955   8.618  11.863  0.1721 -0.0471  0.0115
28031W        W48311   9.739   1.903  13.103 -0.3468  0.2605 -0.0077
28032W        W48312   8.756  15.607  14.172  0.1909 -0.3264 -0.2303
28033W        W48313   7.880   5.533   3.640 -0.0604  0.0149 -0.0043
28034W        W48314  17.568   1.449  12.656 -0.1535  0.0315  0.1059
28035W        W48315  10.935   9.836  12.829 -0.0131 -0.1267  0.1084
28036W        W48316  11.407  14.411   1.265 -0.1289 -0.0049  0.0282
28037W        W48317   0.216   7.739   4.464 -0.2639  0.2856  0.1121
28038W        W48318   9.903  16.745   3.679 -0.2067 -0.2924  0.1250
28039W        W48319  14.004   8.033   3.219  0.2553  0.1044  0.2481
28040W        W48320  12.613   3.595   1.380 -0.1236 -0.1412  0.1447
28041W        W48321  11.795   0.753   0.922 -0.2648  0.1488  0.1803
28042W        W48322  11.583   7.629   5.405  0.0370  0.1076  0.1282
28043W        W48323   7.161   6.511   1.798  0.0962  0.1497  0.2636
28044ION     NA48324   1.203  10.518   5.823 -0.1712  0.3345 -0.1704
28045ION     NA48325  15.074   0.549  14.628 -0.0681  0.0993 -0.0504
28046ION     NA48326   5.779   5.487  11.267 -0.1785 -0.1995 -0.1056
28047ION     NA48327  14.630   8.541  11.452  0.2604 -0.0782 -0.1520
28048ION     NA48328   5.234   9.315  14.152  0.1975  0.3606 -0.0312
28049ION     NA48329   6.329   1.686  11.680 -0.2247  0.1142 -0.1907
28050ION     NA48330  17.365  12.216  14.757  0.1964 -0.3411 -0.2827
28051ION     NA48331  10.145   7.175   5.785 -0.0014  0.2353 -0.1809
28052ION     NA48332   8.920   1.200  11.306  0.2048  0.1943 -0.2495
28053ION     NA48333   3.150  13.962  11.503 -0.1687  0.2826  0.0458
28054ION     NA48334   8.897   1.637   5.932  0.1001 -0.2952  0.0173
28055ION     NA48335  13.903  16.981   3.145  0.0700 -0.1034  0.4440
28056ION     NA48336   4.569  13.822   5.828  0.2435 -0.3055 -0.1344
28057ION     NA48337   4.411  12.075   5.592 -0.1088 -0.1427 -0.1924
28058ION     NA48338   6.206  10.764   4.025  0.1501 -0.1704  0.0492
28059ION     NA48339  10.690   3.919   0.720 -0.1713 -0.0929  0.0175
28060ION     NA48340  13.839   9.064   1.438 -0.1313 -0.3462  0.1780
28061ION     NA48341   4.684   9.381  11.599  0.0585  0.1804 -0.1747
28062ION     NA48342   2.857  12.004   5.755  0.0033  0.0674 -0.0358
28063ION     NA48343  12.294   7.171   5.700 -0.3118  0.0597  0.2007
28064ION     NA48344   3.730   4.364  12.814  0.1677 -0.2771  0.0259
28065ION     NA48345  11.648   0.853  11.380  0.0448  0.2527 -0.0239
28066ION     NA48346   9.463  14.136  11.023  0.1821  0.1081  0.1212
28067ION     NA48347  11.252   3.574  11.274  0.0616  0.0501  0.1096
28068ION     NA48348   0.635   9.695  11.528  0.1782 -0.3386  0.0739
28069ION     NA48349   8.417  16.180  12.187  0.1118 -0.1159  0.1389
28070ION     NA48350   0.261  17.571  11.429  0.2037 -0.0418  0.0112
28071ION     NA48351  16.813  11.974  11.761  0.1430  0.1222  0.0656
28072ION     NA48352  13.632   6.115  11.243 -0.1050 -0.2016 -0.0957
28073ION     NA48353   0.869   6.046   3.115  0.0916  0.1591  0.1134
28074ION     NA48354  10.767  11.889  11.219 -0.0722  0.3284 -0.1105
28075ION     NA48355   8.744  13.839  11.222 -0.2502  0.1315  0.0674
28076ION     NA48356  12.121  16.511   5.721 -0.0841 -0.0766  0.1081
28077ION     NA48357  14.340   0.795   5.832  0.0560  0.1436 -0.1585
28078ION     NA48358   2.752  12.049  11.412 -0.2265  0.3711  0.0381
28079ION     NA48359   2.767   2.360  11.401 -0.1063 -0.1007  0.0713
28080ION     NA48360  14.721   3.120  14.583 -0.0137 -0.0108  0.3629
28081ION     NA48361   6.245  16.552   5.856 -0.3756  0.3435 -0.0698
28082ION     NA48362   1.225   5.764  11.497 -0.1785 -0.0918 -0.0618
28083ION     NA48363  15.730  12.024   5.655 -0.3119  0.1033  0.0603
28084ION     NA48364   8.333   0.551  12.798  0.2847 -0.1896  0.0151
28085ION     NA48365  17.065   4.649  11.155  0.0517  0.0799 -0.0692
28086ION     NA48366   3.511  12.339  15.297 -0.3321 -0.2201  0.0326
28087ION     NA48367   0.105   2.508   5.960  0.1527 -0.1520  0.0661
28088ION     NA48368   9.345   2.814   5.627  0.1928 -0.0805  0.3771
28089ION     NA48369  14.767  17.197  11.487  0.4926 -0.2495  0.2471
28090ION     NA48370   9.895  10.446  11.296  0.0816 -0.3465  0.0261
28091ION     NA48371  13.119   2.830   5.916 -0.3584  0.1389  0.1040
28092ION     NA48372   8.720   7.856  11.149 -0.0228  0.1557  0.0444
28093ION     NA48373  16.456   9.921   5.898  0.0089 -0.0701  0.2443
28094ION     NA48374   2.272   6.236   2.190  0.1965 -0.2795 -0.1811
28095ION     NA48375   4.992   1.320   5.831  0.0953 -0.2984  0.3029
28096ION     NA48376  17.258  12.998   3.266 -0.1862  0.1333 -0.2783
28097ION     NA48377   4.175  17.462  14.711 -0.1029 -0.0701  0.1128
28098ION     NA48378   6.350  12.578  11.391 -0.0424  0.2094  0.1617
28099ION     NA48379   0.828   1.468  11.619  0.2339  0.0155  0.2243
28100ION     NA48380   2.291  14.967  11.335 -0.1371  0.0547 -0.0738
28101ION     NA48381   8.860   3.172  11.327  0.2188 -0.2737  0.1527
28102ION     NA48382   1.365  15.919   3.841  0.0145 -0.3674 -0.1820
28103ION     NA48383  16.314   7.527   3.695  0.3711  0.1231 -0.1806
28104ION     NA48384   7.240  17.454  11.585  0.4277  0.1478  0.1925
28105ION     NA48385   7.444   0.895   6.331  0.2427  0.1366  0.0915
28106ION     NA48386  12.944  16.903   1.595  0.2219  0.2225  0.0375
28107ION     NA48387   7.842   7.090   5.533  0.1114  0.1562 -0.1441
28108ION     NA48388   5.706  13.160  11.283 -0.2433 -0.0147  0.1456
28109ION     NA48389  15.152  13.973   0.699 -0.0206 -0.3755  0.0131
28110ION     NA48390   3.384   0.034   5.913 -0.2692 -0.2509  0.2082
28111ION     NA48391   7.136   2.473   5.526 -0.4915 -0.1301  0.1035
28112ION     NA48392  16.495   6.870   5.728  0.1051 -0.0119 -0.1287
28113ION     NA48393   8.219   9.694  11.262  0.0488 -0.3174 -0.2071
28114ION     NA48394   3.644  16.607  16.172  0.1836  0.3668 -0.2127
28115ION     NA48395  15.686  13.610   2.834  0.0326  0.4346  0.3780
28116ION     NA48396  13.336  11.322   3.789 -0.0763 -0.1948 -0.3126
28117ION     NA48397   6.489   0.066   5.945  0.1279 -0.1085  0.0198
28118ION     NA48398  13.183   0.874  11.228 -0.1606 -0.1936 -0.2244
28119ION     NA48399  10.825   2.876  11.275 -0.1908  0.3181 -0.0138
28120ION     NA48400  13.990   7.129  11.298 -0.2491 -0.1940  0.2575
28121ION     NA48401   3.313   7.536   5.887  0.0771 -0.2906  0.1418
28122ION     NA48402   2.330  16.628   5.882 -0.0898 -0.0043 -0.0467
28123ION     NA48403  16.517  11.048  12.609 -0.1911 -0.2044  0.1598
28124ION     NA48404   2.793   5.733   0.547  0.1320  0.2288  0.0831
28125ION     NA48405   9.892  17.037   5.801  0.2337 -0.1172  0.3058
28126ION     NA48406  16.434   6.283  11.281 -0.0652 -0.0327  0.2193
28127ION     NA48407  17.203  12.763  11.359  0.2170  0.0890  0.1896
28128ION     NA48408  13.101  11.401   1.566  0.2087  0.1752  0.1416
28129ION     NA48409   1.518  17.014   5.873  0.4692  0.1676 -0.0143
28130ION     NA48410   9.242   9.659  11.350 -0.0151  0.3366 -0.0673
28131ION     NA48411   7.600  13.256  11.336  0.2518 -0.1995  0.2823
28132ION     NA48412   4.798   5.603  11.265  0.1427 -0.1377  0.1111
28133ION     NA48413   2.123  14.688   5.995  0.2337  0.1554  0.1097
28134ION     NA48414  14.058   0.432   3.975  0.1377  0.1011  0.2694
28135ION     NA48415  10.809   7.637  11.263  0.2430 -0.1730  0.0687
28136ION     NA48416  15.175   3.566   4.910 -0.1488 -0.2175  0.0301
28137ION     NA48417   8.468   4.344   5.588  0.2716  0.2413  0.1127
28138ION     NA48418   8.661   7.800   1.671  0.0299 -0.0353 -0.0250
28139ION     NA48419   6.519   3.121   5.580  0.1381  0.1347 -0.0249
28140ION     NA48420   1.881   9.081  15.262 -0.3521  0.0861 -0.1609
28141ION     NA48421   1.844   4.030   5.931  0.2570  0.0605 -0.1578
28142ION     NA48422   8.906   5.049   4.343 -0.2549 -0.2026  0.1313
28143ION     NA48423   7.153  16.683   5.974  0.1704 -0.0833 -0.1884
28144ION     NA48424   0.956   3.980   5.977 -0.1027 -0.2063 -0.2748
28145ION     NA48425   3.581   7.316  11.274 -0.0005  0.0669  0.3542
28146ION     NA48426   0.227   1.867   5.877  0.0378 -0.2449  0.2305
28147ION     NA48427   5.972  14.967  12.521  0.1338  0.0772  0.3654
28148ION     NA48428  17.350  13.297  11.689 -0.0044 -0.0141 -0.0172
28149ION     NA48429  16.239   1.879  11.497 -0.1770  0.0824  0.1130
28150ION     NA48430   2.835   2.560   5.927  0.0249  0.4907 -0.0647
28151ION     NA48431   5.040  14.033  14.350 -0.1907 -0.2009 -0.3951
28152ION     NA48432   5.643   5.872   5.576  0.0830 -0.1702 -0.0405
28153ION     NA48433  12.727   0.109  15.596 -0.0119 -0.0851 -0.2170
28154ION     NA48434   5.742   5.548   2.621  0.0451  0.0548 -0.0179
28155ION     NA48435   4.319   7.853   2.963 -0.0587 -0.0289 -0.1493
28156ION     NA48436   7.153   5.778   5.834 -0.1183  0.1932  0.0122
28157ION     NA48437   5.094   8.439   5.728  0.0961 -0.0558 -0.2846
28158ION     NA48438  10.844   3.861   5.630  0.1237  0.4280  0.1213
28159ION     NA48439  15.231   5.985   4.787 -0.0258 -0.0474  0.1955
28160ION     NA48440   9.538   2.095  11.237  0.2531 -0.2577  0.0785
28161ION     NA48441   8.637   9.821   0.681 -0.0788 -0.1812 -0.0737
28162ION     NA48442  16.530   0.620   5.763  0.2594 -0.2525 -0.0063
28163ION     NA48443   3.404  11.707   4.461  0.0367  0.1182 -0.2057
28164ION     NA48444   2.020   6.867   4.408  0.1550 -0.1411 -0.3605
28165ION     NA48445  11.859  11.098   5.549 -0.1450  0.5003 -0.1541
28166ION     NA48446  10.667   2.857   2.831 -0.0220  0.3089  0.1185
28167ION     NA48447  14.131   8.531   3.008  0.3283  0.1831  0.0110
28168ION     NA48448   5.109  10.840   5.927  0.1765  0.1489 -0.1345
28169ION     NA48449  16.762  16.023  11.378  0.1620  0.1136  0.1601
28170ION     NA48450   0.986   3.532  15.153 -0.0171 -0.0293 -0.0506
28171ION     NA48451   2.316   3.246   5.878 -0.0734 -0.0852  0.0387
28172ION     NA48452   9.126   7.799   4.590 -0.3473  0.2204 -0.4655
28173ION     NA48453   8.335  13.992   5.827 -0.1464  0.0132 -0.2631
28174ION     NA48454   0.749  11.469   0.159  0.2084  0.2564  0.2574
28175ION     NA48455   7.057   2.157  11.426 -0.2278  0.0209  0.2181
28176ION     NA48456   7.135  16.399  12.299  0.3835  0.0030 -0.0043
28177ION     NA48457  17.101   1.524  11.714  0.1420 -0.3899 -0.2865
28178ION     NA48458   0.205  12.423  11.839  0.0099  0.0388 -0.0713
28179ION     NA48459   5.608   2.880   5.945  0.3894 -0.2663  0.1564
28180ION     NA48460   1.317  13.058   2.802 -0.0267  0.1089  0.0800
28181ION     NA48461   3.095   6.207   2.826 -0.1568  0.0605  0.1404
28182ION     NA48462  10.965  10.894   5.548 -0.1052 -0.3031 -0.0519
28183ION     NA48463   1.213   6.413  11.464 -0.0070 -0.1333 -0.0482
28184ION     NA48464  16.196   4.638   5.832  0.1734 -0.0057 -0.1383
28185ION     NA48465   8.924  11.577   1.381 -0.0540  0.0825  0.4037
28186ION     NA48466  17.000   2.404  11.496 -0.1702  0.2181 -0.0917
28187ION     NA48467  16.828  13.645   6.057  0.0508 -0.1724  0.1633
28188ION     NA48468  10.684   5.883  11.305 -0.0634 -0.2961  0.2018
28189ION     NA48469   4.284   7.703  11.615 -0.2077  0.3186  0.3368
28190ION     NA48470  14.795  12.864  11.344  0.1977 -0.2251 -0.2878
28191ION     NA48471  14.639  13.805   5.820  0.0728 -0.2354 -0.1528
28192ION     NA48472   3.981   9.256   5.805  0.1348 -0.2722  0.0891
28193ION     NA48473   9.346  16.312   5.779 -0.1795  0.0184 -0.0651
28194ION     NA48474   6.571  10.299   6.020 -0.0326 -0.1405  0.1680
28195ION     NA48475  16.949  15.842  11.805 -0.1664 -0.2576  0.2191
28196ION     NA48476  15.354   4.508   5.618 -0.1289  0.1667 -0.2003
28197ION     NA48477   5.211   3.603  12.542  0.0742  0.1440 -0.1443
28198ION     NA48478  16.601   8.317   6.216 -0.0637 -0.1686  0.1022
28199ION     NA48479   6.506   9.848  11.386 -0.0679  0.1499  0.2406
28200ION     NA48480   2.426  15.805   4.866 -0.0164 -0.1145 -0.0030
28201ION     NA48481   1.976   7.000   5.759  0.2088  0.2415  0.2646
28202ION     NA48482  12.010  10.298  11.339  0.1386  0.0059  0.0338
28203ION     NA48483  15.004   1.628  11.983  0.0656 -0.0036  0.1721
28204ION     NA48484   9.671   0.390   5.824 -0.0988  0.1896 -0.1157
28205ION     NA48485   8.935   1.771  12.516 -0.1716 -0.1133  0.1105
28206ION     NA48486  16.256  12.597  11.189  0.0117  0.0676  0.0070
28207ION     NA48487  12.539  12.087   5.710 -0.0452  0.1333 -0.4651
28208ION     NA48488  15.208  11.859  11.088  0.1559  0.2877  0.0221
28209ION     NA48489  13.734   2.348   5.443  0.1670 -0.1666  0.0159
28210ION     NA48490  13.741   8.981  11.085  0.1943  0.0332  0.2072
28211ION     NA48491   0.398   4.712  16.939 -0.0089 -0.0395  0.1229
28212ION     NA48492   7.894  16.940  11.275  0.1320  0.1977  0.2462
28213ION     NA48493   9.172  13.472   5.903 -0.1302  0.1187 -0.2193
28214ION     NA48494  11.231  10.936  11.197 -0.0436 -0.1157 -0.1408
28215ION     NA48495  15.147   4.270  11.405 -0.0528  0.0449 -0.0266
28216ION     NA48496   0.524   4.724   5.804 -0.1704  0.3366 -0.1139
28217ION     NA48497   8.303  11.284   2.364  0.0166 -0.1060 -0.0242
28218ION     NA48498   5.909  15.509  11.219 -0.2006 -0.1507  0.1173
28219ION     NA48499   4.566   4.965   4.059  0.1507 -0.0169 -0.0313
28220ION     NA48500   3.180   7.970   5.756 -0.1964 -0.1766 -0.1670
28221ION     NA48501   1.450  13.485  11.470 -0.3395 -0.1076  0.0795
28222ION     NA48502  13.647   3.527  11.227  0.0889 -0.0402 -0.2430
28223ION     NA48503  14.426   1.642   5.825 -0.0197 -0.1235 -0.0785
28224ION     NA48504   7.528   4.477   4.284  0.1128  0.0581 -0.4091
28225ION     NA48505  12.203   4.938   4.298  0.0582 -0.0169  0.0434
28226ION     NA48506   9.513  11.543   5.578 -0.2769  0.0330 -0.0493
28227ION     NA48507   3.112   5.792  12.377  0.3947  0.1802  0.0541
28228ION     NA48508  13.235   5.316   1.844 -0.0334  0.0145  0.4218
28229ION     NA48509  13.059  14.179   2.490 -0.0024  0.3577  0.0448
28230ION     NA48510   9.506   4.478   5.550  0.1023  0.2520  0.1422
28231ION     NA48511   4.843   7.030  11.431 -0.0304 -0.2740  0.0438
28232ION     NA48512   9.053   7.554   3.348  0.3868  0.2390 -0.0240
28233ION     NA48513  11.764  15.013  10.921  0.0519  0.2709  0.3310
28234ION     NA48514   3.539   1.970   5.782 -0.0777  0.0244 -0.0169
28235ION     NA48515   8.619  15.652   5.695  0.2325  0.2003 -0.0357
28236ION     NA48516  16.527   1.565   5.710  0.3962 -0.2495 -0.0223
28237ION     NA48517  12.761   3.354   3.602 -0.0820  0.0006  0.1232
28238ION     NA48518   5.707  14.733   5.524  0.0526  0.2361 -0.0452
28239ION     NA48519   9.367   2.936   5.055  0.0801  0.2480  0.0884
28240ION     NA48520  13.850  15.917   5.750  0.0609  0.0588  0.0127
28241ION     NA48521  14.374  11.963   5.705  0.0024 -0.0092 -0.0686
28242ION     NA48522   7.081   6.774   2.707  0.1187  0.4789 -0.2915
28243ION     NA48523  12.816   3.946  11.183  0.0681 -0.0890 -0.0458
28244ION     NA48524   3.794   6.568   5.804  0.1445 -0.0545 -0.1713
28245ION     NA48525   8.527   2.038  11.427 -0.0065  0.0566 -0.0210
28246ION     NA48526  13.915   5.073   5.913 -0.0516  0.1518 -0.3719
28247ION     NA48527  10.867  10.164  15.811  0.0111  0.0502 -0.0946
28248ION     NA48528   5.257  10.575  11.380 -0.1165 -0.3690 -0.0397
28249ION     NA48529   5.308   0.659  11.518  0.0344 -0.2584  0.0224
28250ION     NA48530   4.472  12.967   5.899  0.1628  0.0391  0.0302
28251ION     NA48531   1.824   2.956  16.396 -0.0074  0.1477  0.1046
28252ION     NA48532   9.122   0.746  11.204 -0.2477 -0.0991  0.2248
28253ION     NA48533  10.257  17.371   4.796 -0.0678  0.0911  0.0013
28254ION     NA48534  10.961  11.646   0.822 -0.2195 -0.1353  0.0593
28255ION     NA48535   1.702  15.754  12.522 -0.0503 -0.3152  0.0971
28256ION     NA48536   8.478   9.430   5.891  0.1837 -0.0322 -0.0284
28257ION     NA48537   1.935  12.041  11.508 -0.0231  0.2329 -0.1534
28258ION     NA48538   6.108   8.220  11.393  0.0131 -0.0801 -0.3521
28259ION     NA48539  15.059  10.298   5.581  0.2889 -0.5048  0.1196
28260ION     NA48540  15.422   4.847  12.757 -0.0797 -0.0907 -0.1897
28261ION     NA48541  12.579   5.147  16.518  0.2554 -0.0262  0.1306
28262ION     NA48542   2.164   9.256  11.459 -0.1557  0.0484 -0.0549
28263ION     NA48543   7.712   8.665   4.701  0.0620 -0.1878  0.3687
28264ION     NA48544  14.826   5.047  11.300 -0.0805  0.1999 -0.1106
28265ION     NA48545   3.884   2.745   5.791  0.4541 -0.0229  0.2836
28266ION     NA48546  13.181   1.889   6.067  0.0243  0.0300  0.2725
28267ION     NA48547   2.549  15.708   5.876  0.0365  0.4514  0.0381
28268ION     NA48548  12.100  14.024   2.688  0.0764 -0.0381  0.3303
28269ION     NA48549   3.877   9.894  11.893  0.0162 -0.1813  0.0221
28270ION     NA48550   6.943  11.998  11.385 -0.0517  0.0203  0.1641
28271ION     NA48551  10.974  10.130  11.392 -0.0799  0.0778  0.0744
28272ION     NA48552   2.679  10.289   5.933 -0.4050 -0.0303 -0.0623
28273ION     NA48553  16.817  15.046  11.463 -0.2233 -0.1979 -0.0243
28274ION     NA48554   3.663  13.414   5.969  0.0286  0.0398  0.0412
28275ION     NA48555  14.274   8.675  11.909  0.1775 -0.2122 -0.0221
28276ION     NA48556   7.999   1.041  11.458 -0.1107  0.1290  0.3067
28277ION     NA48557  12.128  14.149  12.911  0.1562  0.2622  0.0050
28278ION     NA48558   3.741  15.698  16.370  0.2714 -0.1169 -0.0983
28279ION     NA48559  15.814  10.534   5.632  0.0754 -0.0790  0.0042
28280ION     NA48560  14.445   8.593   5.723 -0.0379 -0.0638  0.2118
28281ION     NA48561  12.351  14.423   5.599 -0.3148 -0.0713 -0.1653
28282ION     NA48562  10.225   4.809   1.381  0.2220 -0.2875 -0.3349
28283ION     NA48563  14.389  16.617   5.814 -0.1969 -0.0367 -0.0868
28284ION     NA48564   0.842  17.224   5.728 -0.0170  0.2327 -0.3278
28285ION     NA48565  17.584  14.389   5.850  0.0075  0.0597  0.0483
28286ION     NA48566  15.355  13.990   5.897  0.4889  0.0353  0.3498
28287ION     NA48567  12.532  15.858   5.744  0.0018 -0.1755  0.2185
28288ION     NA48568  10.318  16.124  10.983  0.1462  0.0466 -0.3751
28289ION     NA48569  12.349   5.519   5.852 -0.0611 -0.0079  0.2588
28290ION     NA48570  10.088  14.746  11.045  0.1570  0.0508  0.0469
28291ION     NA48571  11.553   8.282  11.244 -0.2851  0.2950  0.0868
28292ION     NA48572  13.058   4.251  14.738 -0.2784  0.1023 -0.2729
28293ION     NA48573   9.128   4.768   2.166 -0.1724 -0.0326  0.0304
28294ION     NA48574  13.262  10.502   5.752 -0.0066  0.1106 -0.0791
28295ION     NA48575  13.025   8.436  11.436 -0.0215  0.0002 -0.2414
28296ION     NA48576   7.350  16.612   3.619 -0.0459 -0.1474  0.2036
28297ION     NA48577   5.451  12.290  11.309  0.0848 -0.2005 -0.0752
28298ION     NA48578   1.664  13.548  12.298 -0.0416 -0.0758  0.2799
28299ION     NA48579   2.642   1.689   5.860  0.0732  0.1619 -0.2452
28300ION     NA48580   0.292  12.572  11.338 -0.0465  0.2594  0.3007
28301ION     NA48581   5.363  13.198   5.948  0.0276  0.4041  0.3626
28302ION     NA48582   3.167   8.770   1.457 -0.1425  0.3126 -0.0092
28303ION     NA48583  17.700   7.556  11.226  0.2495  0.0817 -0.1235
28304ION     NA48584   8.365   8.777   5.800 -0.1569 -0.0766  0.0636
28305ION     NA48585   5.807   0.235   5.988  0.4378 -0.1136 -0.1098
28306ION     NA48586  15.248  12.130   5.745  0.0465  0.1271 -0.0339
28307ION     NA48587  17.041   4.525  15.635 -0.1192  0.1836 -0.0121
28308ION     NA48588  15.427  17.463   5.599 -0.1509  0.1161 -0.0556
28309ION     NA48589   0.379  11.629  16.320 -0.2375 -0.3611  0.1564
28310ION     NA48590   9.338   5.622  14.785  0.3034  0.1607  0.2355
28311ION     NA48591   2.950   6.403  15.553  0.3535  0.1527 -0.0808
28312ION     NA48592   4.703  12.150  14.513  0.0603  0.0774  0.0971
28313ION     NA48593   8.845  12.311   4.522  0.0093 -0.0643  0.0741
28314ION     NA48594   6.968   6.634   0.072  0.0523 -0.0977  0.2245
28315ION     NA48595   0.258   8.242   5.791  0.0911  0.0717  0.1224
28316ION     NA48596  10.184   8.858   5.836 -0.1685  0.1257 -0.0575
28317ION     NA48597   6.854   4.446  11.217 -0.1584  0.1207 -0.2157
28318ION     NA48598  17.439  17.466   5.857 -0.2048 -0.0220  0.1433
28319ION     NA48599   1.123  12.217  12.448  0.3618  0.2003  0.0274
28320ION     NA48600   9.266  14.665  14.447 -0.0212 -0.0930  0.0307
28321ION     NA48601   9.206   7.389   5.713 -0.0988 -0.0266  0.0593
28322ION     NA48602   1.431   9.705  11.819 -0.0215  0.0340 -0.2648
28323ION     NA48603   7.803  11.829   1.809 -0.0294 -0.1652 -0.0525
28324ION     NA48604  10.771   5.911   5.758 -0.0289 -0.0178 -0.5242
28325ION     NA48605  14.725   0.982  11.188 -0.1810  0.1191  0.2349
28326ION     NA48606   6.457  15.728   5.969 -0.0815  0.0308 -0.2306
28327ION     NA48607   7.897   9.937   6.026 -0.0278  0.2706  0.2125
28328ION     NA48608   6.750   0.408  14.086 -0.0652  0.0821 -0.1266
28329ION     NA48609  13.222  17.353  11.424  0.0902  0.2311  0.2975
28330ION     NA48610   9.758   0.878  13.395  0.1471  0.2433 -0.0049
28331ION     NA48611  15.886   8.349   5.764 -0.0901  0.1474 -0.2185
28332ION     NA48612   8.777  10.124   5.787  0.4648  0.1669 -0.0253
28333ION     NA48613   4.536  15.614   4.060 -0.2390  0.0825  0.2421
28334ION     NA48614   8.256   5.516   1.674  0.1923  0.0623 -0.2476
28335ION     NA48615  13.901  13.839   2.337  0.2027 -0.2092 -0.0822
28336ION     NA48616   6.481   6.510   5.775 -0.1510 -0.1966 -0.1114
28337ION     NA48617   3.928   4.233  11.996  0.3311 -0.0152  0.0952
28338ION     NA48618  12.539  15.150   1.026 -0.0005 -0.0227 -0.2029
28339ION     NA48619  13.447   5.262  11.281 -0.1506  0.0982 -0.0243
28340ION     NA48620  17.541   0.603   0.810  0.2508 -0.0721 -0.0963
28341ION     NA48621  14.037  12.747   0.376 -0.0145 -0.3782  0.0868
28342ION     NA48622  14.010  11.469   1.300 -0.1686  0.0204  0.1778
28343ION     NA48623   7.935   8.046  11.418 -0.4006 -0.0150  0.3773
28344ION     NA48624  13.658   2.556  11.430  0.0233  0.2174 -0.1456
28345ION     NA48625   1.968   2.414   5.829  0.2038 -0.1477  0.0829
28346ION     NA48626   4.398   7.342   6.098  0.2017 -0.1248  0.1740
28347ION     NA48627  14.741   9.429   5.878 -0.0935 -0.1991  0.1465
28348ION     NA48628   0.844  10.655  11.351  0.1840  0.2442 -0.0139
28349ION     NA48629  15.915   6.187   5.782 -0.4289 -0.1807  0.0258
28350ION     NA48630  13.636  15.780  13.457  0.2445 -0.0730 -0.1713
28351ION     NA48631   8.731   5.859   5.589 -0.1786 -0.0276 -0.1564
28352ION     NA48632  12.871  17.421   0.369  0.1353  0.2163 -0.1729
28353ION     NA48633   3.703   4.350   5.893  0.2963  0.2234 -0.2003
28354ION     NA48634   1.029   8.273   5.670  0.0401  0.1026 -0.1662
28355ION     NA48635   2.991   4.782  11.449 -0.1589  0.0739  0.1401
28356ION     NA48636   6.166  17.615  11.369 -0.0721  0.0448  0.2366
28357ION     NA48637   2.152  12.775  11.432  0.3635 -0.1437 -0.1328
28358ION     NA48638   2.881   3.274   4.361  0.3159  0.0432 -0.1948
28359ION     NA48639  15.617   3.047   5.586  0.1560 -0.2841 -0.0217
28360ION     NA48640  17.236   7.514   5.541 -0.0126 -0.0247 -0.2655
28361ION     NA48641   9.109   7.069  11.193 -0.2557 -0.0908 -0.1160
28362ION     NA48642   7.865  11.610  11.037  0.0579  0.0760 -0.0844
28363ION     NA48643   5.415  13.320   5.454  0.0299 -0.0336  0.0838
28364ION     NA48644   7.007   1.190  11.542  0.0893 -0.3548  0.0649
28365ION     NA48645   2.145   4.227  11.597  0.3204  0.1174 -0.1155
28366ION     NA48646  14.308   4.122  11.109  0.0122  0.1698  0.1236
28367ION     NA48647  13.301   5.718   5.755  0.1726  0.1327 -0.1151
28368ION     NA48648   7.771  14.919  11.291  0.2216  0.1073  0.0674
28369ION     NA48649  14.558  15.462  11.300 -0.1546 -0.3304 -0.0088
28370ION     NA48650  12.937  14.185  11.414  0.0315 -0.1266  0.0418
28371ION     NA48651   6.537  11.017  13.830  0.1893 -0.2174 -0.1672
28372ION     NA48652  12.425   9.315  11.515  0.0177  0.0350  0.0240
28373ION     NA48653   7.709  14.565   5.839  0.1109 -0.1206  0.0392
28374ION     NA48654   2.795   3.917  11.327  0.0627 -0.0220 -0.0408
28375ION     NA48655  10.729  13.315   5.800  0.0027  0.1411  0.0710
28376ION     NA48656  10.711   0.591  11.326  0.1031 -0.0618  0.1855
28377ION     NA48657  15.366   5.880  14.513  0.2216  0.1162  0.2361
28378ION     NA48658  17.385   6.588  12.132 -0.1169 -0.0731  0.1334
28379ION     NA48659   8.350  15.809  11.137  0.2268 -0.0047  0.3699
28380ION     NA48660   1.129   0.091  11.452 -0.0217 -0.0608 -0.2770
28381ION     NA48661  15.179   8.404  11.581  0.3825  0.0327  0.2673
28382ION     NA48662   9.501   7.899  11.208  0.1144  0.2108 -0.2389
28383ION     NA48663   7.543  12.737   5.890  0.1448  0.0703  0.0296
28384ION     NA48664   3.053  14.625   5.305  0.1447  0.2981  0.0380
28385ION     NA48665   3.552   5.193   5.847 -0.0092  0.0980 -0.0703
28386ION     NA48666  11.496  17.254   5.632 -0.0450 -0.0165 -0.1575
28387ION     NA48667   1.006   2.454   5.840  0.0851 -0.0145 -0.0431
28388ION     NA48668   6.846  13.182   3.600 -0.0187  0.2164 -0.0832
28389ION     NA48669  10.850   4.318  10.958 -0.1151  0.0799  0.3331
28390ION     NA48670  13.537  16.687   5.930 -0.0073 -0.1776 -0.2609
28391ION     NA48671   6.040   8.260  12.827  0.1068  0.0851  0.1807
28392ION     NA48672   0.842  14.135  11.408  0.4669  0.0909  0.2100
28393ION     NA48673  15.053   5.854  11.414  0.0273 -0.2338 -0.4217
28394ION     NA48674   0.428  11.570  11.391 -0.2368 -0.1297 -0.1731
28395ION     NA48675   8.242  13.110   2.160  0.0744 -0.2909  0.0243
28396ION     NA48676  13.644   7.202   5.667  0.3148 -0.0596  0.0277
28397ION     NA48677  14.482  11.041  16.572  0.1527  0.1160 -0.2086
28398ION     NA48678   3.898  15.642  11.221 -0.3501  0.1072  0.0245
28399ION     NA48679  17.010  12.050   5.805  0.0281  0.1046 -0.1515
28400ION     NA48680  11.925   1.276   0.820  0.1315  0.0383 -0.0369
28401ION     NA48681   1.802  16.505  11.468 -0.2007  0.0370  0.2366
28402ION     NA48682  10.099   2.127   5.599  0.2593  0.1693 -0.4390
28403ION     NA48683  16.095   2.355   5.535 -0.1453 -0.1208  0.1596
28404ION     NA48684   1.864  11.926   5.830 -0.0058  0.0437 -0.0156
28405ION     NA48685   0.025  11.911   3.264 -0.0689 -0.0883 -0.1066
28406ION     NA48686   0.357   1.175   5.677 -0.1242 -0.1804  0.2091
28407ION     NA48687   2.326  11.249  11.278 -0.0586 -0.0904 -0.1224
28408ION     NA48688   2.147   8.629  12.815 -0.1074 -0.2744  0.0348
28409ION     NA48689   4.753   2.864   5.732 -0.0511  0.2973  0.1135
28410ION     NA48690   6.424   7.521  11.143  0.1157 -0.0594 -0.0013
28411ION     NA48691   5.637  10.477  13.329 -0.2273 -0.2032 -0.0916
28412ION     NA48692   5.732  17.119   6.003  0.0742  0.1253  0.1675
28413ION     NA48693   4.350  11.178   5.772 -0.0004 -0.0135 -0.1118
28414ION     NA48694   1.494   8.866   5.567 -0.0928 -0.3472 -0.2952
28415ION     NA48695  17.707  16.353  11.488  0.0289  0.4091 -0.1116
28416ION     NA48696  14.509  13.245   5.748 -0.2047 -0.0751  0.0510
28417ION     NA48697  13.509   2.382   0.799 -0.1772 -0.0054 -0.1004
28418ION     NA48698  15.569  10.235  11.465 -0.2284 -0.0737 -0.0463
28419ION     NA48699   6.901  17.514   2.028  0.2754 -0.3068 -0.2564
28420ION     NA48700   7.317   7.404  11.256 -0.0781 -0.2136  0.0154
28421ION     NA48701   8.099  11.903   4.435  0.0653  0.1716 -0.0031
28422ION     NA48702  10.075  14.908   6.048  0.1648 -0.2040 -0.0555
28423ION     NA48703   3.650   8.377   5.783 -0.0059 -0.1800  0.1354
28424ION     NA48704   3.195   1.033   5.964 -0.0601  0.3464  0.3255
28425ION     NA48705  12.014  12.657   1.569 -0.2891  0.1296 -0.2844
28426ION     NA48706  15.421  15.385  16.745 -0.1275 -0.0546 -0.1157
28427ION     NA48707   9.212   9.390   5.574  0.0653 -0.2700 -0.3002
28428ION     NA48708   1.460  11.668   4.321 -0.2794 -0.1133 -0.0766
28429ION     NA48709   6.856  15.210  11.213 -0.2273 -0.0393  0.1879
28430ION     NA48710   5.946  16.712  11.527 -0.0665  0.2247  0.0211
28431ION     NA48711   7.434   1.937  15.593  0.1357  0.0778 -0.0934
28432ION     NA48712   6.571  10.241   5.511  0.1733 -0.0767  0.0990
28433ION     NA48713   0.124   8.400  11.457 -0.2351 -0.1889 -0.1372
28434ION     NA48714  11.684  15.012   2.478  0.1572  0.0498 -0.1139
28435ION     NA48715   2.963   5.102   5.773 -0.0690 -0.0335  0.1167
28436ION     NA48716   5.583   6.859   4.322 -0.0930 -0.1859  0.2291
28437ION     NA48717  11.162   8.414   5.891  0.2930  0.1592  0.2189
28438ION     NA48718  11.749   2.136   5.949  0.0292  0.1421 -0.0721
28439ION     NA48719   0.300   6.388   5.793  0.2626 -0.0005  0.0909
28440ION     NA48720  11.577  16.984  11.049  0.3049 -0.1058  0.0523
28441ION     NA48721   6.749  11.326   6.028 -0.0048  0.1742  0.1974
28442ION     NA48722   1.483  17.230  12.130 -0.2404 -0.1972  0.1232
28443ION     NA48723   9.969   4.557  11.181 -0.1757  0.2492  0.2894
28444ION     NA48724  13.460   3.453  15.795 -0.0912 -0.0849  0.1688
28445ION     NA48725   3.832  14.910   5.853  0.3452 -0.1335  0.2815
28446ION     NA48726  12.716  16.899   5.768  0.1660  0.0724  0.0718
28447ION     NA48727   5.170  15.193   5.988  0.0002 -0.0752 -0.2132
28448ION     NA48728   4.127  14.438  11.772  0.2725 -0.0842 -0.1056
28449ION     NA48729   9.706   1.572  11.294  0.0082  0.0109 -0.0141
28450ION     NA48730  10.021  13.369  12.061  0.0114 -0.0569 -0.1227
28451ION     NA48731  11.433   4.667   5.681  0.2127 -0.0819  0.5207
28452ION     NA48732   2.764  15.180  14.694 -0.0439 -0.3063 -0.2448
28453ION     NA48733  11.228   2.017   0.883 -0.0528  0.1246 -0.0930
28454ION     NA48734  13.555   6.355   5.613  0.1080  0.0460 -0.0594
28455ION     NA48735   5.210   7.809  11.608 -0.3647  0.0788 -0.1863
28456ION     NA48736   1.495   9.149   1.997 -0.0517 -0.0795 -0.2176
28457ION     NA48737   8.274   4.553  15.629  0.1178 -0.1719 -0.3077
28458ION     NA48738   1.747   9.815   5.500  0.2835  0.2906  0.1767
28459ION     NA48739   5.230   2.921  11.427  0.3559 -0.1812  0.2698
28460ION     NA48740   7.462   5.074  11.306 -0.0181 -0.2831  0.1768
28461ION     NA48741   2.887  15.837  11.219  0.0260 -0.0807 -0.1655
28462ION     NA48742   7.754   2.415   5.985  0.0053 -0.0019 -0.2857
28463ION     NA48743   7.684   9.240  12.924  0.4612 -0.0950  0.1191
28464ION     NA48744   1.958   0.299  11.376  0.0193  0.1705 -0.3180
28465ION     NA48745  11.737   0.056  11.127 -0.0698  0.3207 -0.1231
28466ION     NA48746  16.510   5.414   5.740 -0.0303  0.1264  0.4131
28467ION     NA48747   9.284   2.298   5.755  0.2215  0.0216  0.0765
28468ION     NA48748  15.871   2.711   0.193 -0.4731  0.0151 -0.0631
28469ION     NA48749   8.725   8.204  12.431  0.0265 -0.2184 -0.1441
28470ION     NA48750   6.311  11.297   0.601 -0.0285  0.0885 -0.0363
28471ION     NA48751  16.206  13.849  11.591 -0.0393  0.0584  0.3330
28472ION     NA48752   0.378  16.603  11.300 -0.2923 -0.0808 -0.2278
28473ION     NA48753  14.891  10.777   5.792 -0.3174  0.1566  0.0119
28474ION     NA48754   1.420   3.186   5.861 -0.2469 -0.2476 -0.0148
28475ION     NA48755  17.151  13.759   2.617  0.4730  0.0493  0.0847
28476ION     NA48756   6.727   8.902  16.200  0.1141 -0.1171 -0.2081
28477ION     NA48757  12.472  12.955  11.248  0.1719  0.1027  0.2422
28478ION     NA48758  17.148   8.187   5.939  0.0590  0.2128 -0.0465
28479ION     NA48759   3.559  10.598   5.905 -0.0598 -0.1588  0.0755
28480ION     NA48760  14.319   7.426   2.115 -0.3296 -0.2608  0.1090
28481ION     NA48761   0.811  16.322   5.820 -0.1297 -0.0510  0.1535
28482ION     NA48762  14.281   5.888   5.831 -0.1209 -0.1171 -0.0806
28483ION     NA48763   7.747  14.082  11.590 -0.0861 -0.3461 -0.3146
28484ION     NA48764   7.681   4.146   5.509  0.1190  0.2829 -0.0373
28485ION     NA48765   1.649  16.074   5.868  0.2295  0.1426  0.0601
28486ION     NA48766   3.503  17.326  11.328  0.0570  0.1800  0.0497
28487ION     NA48767   1.810   8.002   5.745 -0.2152 -0.1565 -0.2209
28488ION     NA48768   9.557  16.660  11.193  0.5436  0.0910  0.0894
28489ION     NA48769  11.817  13.156  11.412 -0.1380  0.0084 -0.0317
28490ION     NA48770  11.254   8.901  12.429  0.2048  0.0443 -0.0722
28491ION     NA48771   1.228   4.309  11.636  0.0086 -0.5481  0.0122
28492ION     NA48772  14.230  11.614   4.164 -0.0637  0.0696 -0.2740
28493ION     NA48773   8.714  16.370  11.171  0.0288  0.1222 -0.1457
28494ION     NA48774   1.125   0.705   5.554  0.2071 -0.1029 -0.0409
28495ION     NA48775  17.590   3.819  11.374 -0.1041  0.4111 -0.0554
28496ION     NA48776   3.231   2.270  11.194 -0.2569 -0.1333  0.0253
28497ION     NA48777  10.295  16.351   5.846  0.0248 -0.1937 -0.1653
28498ION     NA48778  16.899   7.783  13.809 -0.0210 -0.0431  0.1916
28499ION     NA48779  16.731  10.082  11.403 -0.0019 -0.1447 -0.0820
28500ION     NA48780   7.549   2.996  16.241  0.0312  0.1847 -0.2895
28501ION     NA48781  15.756   8.313  11.326  0.0512 -0.1191 -0.0822
28502ION     NA48782   9.971   3.680   2.865  0.0231  0.0730  0.1273
28503ION     NA48783  13.383  15.230   5.759 -0.1730  0.0009 -0.1547
28504ION     NA48784   7.387  10.309  11.220 -0.2897  0.1384 -0.1022
28505ION     NA48785  12.796   6.713  11.170 -0.0814  0.1170 -0.1000
28506ION     NA48786   4.186  16.385   5.887 -0.0086  0.1811 -0.0296
28507ION     NA48787  17.372  10.491   5.771  0.0216  0.3147 -0.0947
28508ION     NA48788   8.270   7.047  11.212  0.1689 -0.1462  0.1225
28509ION     NA48789  16.385   1.079  11.419  0.2324  0.0912  0.2795
28510ION     NA48790  14.569   9.621  11.226 -0.2801  0.0728  0.1412
28511ION     NA48791  16.079  11.035   4.741  0.0037  0.2079 -0.0939
28512ION     NA48792  14.564   6.601  16.477 -0.1987 -0.1011 -0.0155
28513ION     NA48793  12.709  10.706  11.397 -0.0687 -0.0768  0.1858
28514ION     NA48794   2.383   5.499  11.321 -0.1042  0.0788 -0.0039
28515ION     NA48795   2.961   0.218  11.306  0.0119  0.3750  0.1457
28516ION     NA48796  14.714   2.858   5.698  0.2163 -0.0342 -0.0587
28517ION     NA48797  10.217   7.059  11.286 -0.0428  0.0787  0.0957
28518ION     NA48798  14.555  17.646   5.554 -0.0315 -0.0947  0.1357
28519ION     NA48799   8.624   3.759  16.473 -0.2276  0.0170  0.0372
28520ION     NA48800   6.895   1.683   6.133  0.1499 -0.0338 -0.0767
28521ION     NA48801   3.098  12.953   3.901 -0.2652 -0.0238  0.0889
28522ION     NA48802  13.776   3.787  16.008 -0.3829 -0.1694 -0.0948
28523ION     NA48803  12.685  10.877   3.271 -0.4032 -0.1111 -0.1652
28524ION     NA48804   2.282   3.235  11.537 -0.1253 -0.0801 -0.1711
28525ION     NA48805  16.173  16.134   5.737 -0.1040 -0.1683 -0.1990
28526ION     NA48806  13.402   3.281   5.774  0.0540  0.0765 -0.2096
28527ION     NA48807  14.330  11.623  11.294 -0.2006 -0.2209 -0.0994
28528ION     NA48808  17.088  17.250  11.373 -0.1938 -0.1523 -0.4984
28529ION     NA48809   5.557   4.410   4.303 -0.2304  0.1207  0.1452
28530ION     NA48810  10.008   0.802  12.180  0.0700  0.0040  0.0566
28531ION     NA48811   7.513   3.673  11.189  0.0895  0.2290 -0.0869
28532ION     NA48812   9.792   0.251  11.252  0.0624 -0.0312 -0.0318
28533ION     NA48813  14.847   4.190   4.166 -0.2375  0.0884  0.0351
28534ION     NA48814  16.829  12.732   5.738 -0.1948  0.3278 -0.2093
28535ION     NA48815  16.336  16.093  15.689 -0.0678  0.0181  0.0738
28536ION     NA48816   2.250  12.974  12.929 -0.0819  0.1779 -0.0464
28537ION     NA48817  15.386  13.039   5.775 -0.0374 -0.1768  0.1191
28538ION     NA48818   0.357   4.557  11.289 -0.0049  0.0787 -0.0387
28539ION     NA48819   2.446  13.831   5.970 -0.1891  0.1809 -0.0311
28540ION     NA48820  11.023  15.048  11.085  0.5337  0.2332  0.0575
28541ION     NA48821   9.867   3.148  11.309  0.1201  0.1998 -0.2147
28542ION     NA48822  17.399   6.844  11.116 -0.1482 -0.0192 -0.0484
28543ION     NA48823  16.194   8.539   2.709 -0.0609  0.0307  0.2877
28544ION     NA48824   5.842   2.864  13.554  0.0217 -0.2426 -0.1572
28545ION     NA48825   0.149   1.085  11.468 -0.3314  0.2997  0.1252
28546ION     NA48826  12.316   4.632   5.761  0.1365 -0.1050  0.3335
28547ION     NA48827  11.061  10.094   0.919 -0.0532  0.1718 -0.0199
28548ION     NA48828  15.192   0.731   1.592  0.1120 -0.4469 -0.1077
28549ION     NA48829   3.586   8.200  11.516 -0.1732  0.0912 -0.1212
28550ION     NA48830  14.308  15.264   0.883 -0.2085 -0.4853 -0.1399
28551ION     NA48831  16.918   1.707   3.423  0.2537  0.0131  0.1760
28552ION     NA48832  15.555  17.579  11.369  0.0779 -0.1277 -0.2428
28553ION     NA48833  15.897  13.970   5.958 -0.0255 -0.1693 -0.0267
28554ION     NA48834   8.279  12.155   5.655  0.0344  0.1671 -0.1563
28555ION     NA48835   4.586  11.814   2.068  0.0332 -0.2653 -0.2754
28556ION     NA48836   0.178   8.188  16.052  0.0162  0.0596  0.4043
28557ION     NA48837  12.710   2.234   5.213 -0.0090  0.0501 -0.3942
28558ION     NA48838   5.252   6.406  11.373 -0.1356  0.2573 -0.0134
28559ION     NA48839  12.446   5.434   1.399  0.2429 -0.3433 -0.0899
28560ION     NA48840   8.574   5.907   4.200 -0.0771 -0.2162 -0.2383
28561ION     NA48841   4.897  12.751  16.355  0.0388 -0.2685 -0.0300
28562ION     NA48842  13.687   9.329   4.990  0.1335  0.0036  0.1957
28563ION     NA48843  11.678  11.805  11.337  0.3347 -0.0106 -0.0560
28564ION     NA48844   9.244  15.122   5.741 -0.2899 -0.0230 -0.2356
28565ION     NA48845  11.169  16.787  16.878  0.0879  0.1108 -0.0025
28566ION     NA48846  12.961   5.082   5.927 -0.0355 -0.0917  0.0587
28567ION     NA48847  13.166   7.595  11.257  0.0761 -0.3201 -0.0250
28568ION     NA48848  14.040  13.019  11.159 -0.1906 -0.2720  0.0552
28569ION     NA48849  12.103   3.650   0.475  0.2269  0.0902  0.0324
28570ION     NA48850   3.247   3.176  11.471 -0.1742 -0.0812  0.1471
28571ION     NA48851   6.187   2.250   5.410 -0.0698 -0.2322 -0.2212
28572ION     NA48852   0.728  13.903  13.039 -0.1614 -0.0464  0.1392
28573ION     NA48853  14.671  16.334  11.419 -0.0362  0.1803 -0.0225
28574ION     NA48854  13.422   9.629  11.690  0.5267  0.0353  0.2821
28575ION     NA48855   4.977  16.481  11.333  0.1176 -0.0935  0.0456
28576ION     NA48856   2.434   2.691   4.153  0.0638 -0.0310 -0.2146
28577ION     NA48857  17.679   9.538  11.496  0.0200  0.1982 -0.3245
28578ION     NA48858   8.440   4.074  11.168 -0.3218  0.0906  0.0756
28579ION     NA48859  13.410   1.039  12.977 -0.0250 -0.3037 -0.3482
28580ION     NA48860   9.310   5.040  15.484 -0.1520 -0.0081  0.0669
28581ION     NA48861   6.785  12.224   5.744  0.3768 -0.2004  0.0505
28582ION     NA48862   0.071   1.378   3.787  0.2214 -0.3424 -0.0846
28583ION     NA48863   2.742  14.824   6.102 -0.1129 -0.1670  0.2003
28584ION     NA48864  16.106  10.865  11.772 -0.4775 -0.1190  0.1751
28585ION     NA48865   6.456   8.871  11.827 -0.0443 -0.2421  0.0187
28586ION     NA48866  11.268  11.795   5.531  0.0769 -0.0780 -0.1223
28587ION     NA48867  14.851   5.233   5.618  0.0256 -0.1259  0.2301
28588ION     NA48868  15.845  16.559   5.789 -0.2512  0.0822  0.1113
28589ION     NA48869   0.644  15.062  11.347  0.0008  0.0016  0.0113
28590ION     NA48870  16.505  14.727  14.546  0.0698  0.1923  0.0056
28591ION     NA48871   4.114  14.037  14.130 -0.0644  0.2569 -0.0131
28592ION     NA48872   5.171  12.458   5.771 -0.2551 -0.0325  0.0260
28593ION     NA48873   7.840   6.297   5.669 -0.1185  0.1457  0.0659
28594ION     NA48874   4.591   8.044   5.800  0.0494  0.1527  0.1393
28595ION     NA48875   8.155  11.310   5.713 -0.2590 -0.1048  0.3799
28596ION     NA48876   8.621   3.338   5.657  0.0446  0.1394 -0.0808
28597ION     NA48877   0.898   0.564  11.611  0.1869 -0.0966 -0.0336
28598ION     NA48878   7.040  14.572  11.374  0.0066 -0.0462  0.1353
28599ION     NA48879   4.245  14.057   1.741 -0.0260 -0.0517  0.0334
28600ION     NA48880   6.985   5.162   5.742  0.1337 -0.1510  0.2167
28601ION     NA48881   0.869  10.983   3.335  0.3128 -0.3775 -0.1342
28602ION     NA48882  17.395   5.174  11.385 -0.1449  0.2090 -0.0503
28603ION     NA48883  13.792  14.141  11.188  0.1073 -0.0640 -0.2988
28604ION     NA48884  16.108  13.240   5.796  0.2533 -0.1379 -0.1406
28605ION     NA48885   5.680   4.865   3.056 -0.1877  0.0287 -0.2144
28606ION     NA48886  14.297  15.213   5.912  0.0254  0.2269  0.2224
28607ION     NA48887   6.994   6.613   5.842  0.1175 -0.0278 -0.1436
28608ION     NA48888  12.356   9.854  13.211  0.1047 -0.1287  0.2851
28609ION     NA48889   9.022   0.819   5.365 -0.0116  0.0854  0.0320
28610ION     NA48890  12.742   0.152   5.842 -0.1407  0.0162  0.3117
28611ION     NA48891  15.009   3.654   5.816  0.0706  0.1596  0.1163
28612ION     NA48892  10.223   2.359  11.134 -0.1950 -0.2723 -0.0878
28613ION     NA48893   0.592   7.301   5.655  0.0570 -0.0836 -0.2255
28614ION     NA48894   4.983   6.597   5.825 -0.0247 -0.0230 -0.0793
28615ION     NA48895  15.198  15.046  11.390  0.2349 -0.2478  0.2015
28616ION     NA48896   0.403   9.884   5.786 -0.0899 -0.1514 -0.1633
28617ION     NA48897  10.624  15.499   5.577 -0.0821 -0.3327  0.0285
28618ION     NA48898  12.758  13.471   3.218 -0.2957 -0.0360 -0.5194
28619ION     NA48899   7.788  16.784  11.737  0.0594 -0.2003  0.0404
28620ION     NA48900  13.759   9.168  16.411 -0.2296  0.0647 -0.1093
28621ION     NA48901   5.616   2.054  16.376 -0.2106 -0.1569  0.2204
28622ION     NA48902  12.151   1.403   5.793  0.1632  0.1723 -0.1265
28623ION     NA48903   1.942   4.608   0.568 -0.0083 -0.0541  0.3186
28624ION     NA48904   1.154  15.751  11.722  0.0763  0.1957  0.1382
28625ION     NA48905  11.951  16.925  11.791  0.1897 -0.1926 -0.1830
28626ION     NA48906  16.891  11.453  14.630 -0.2329 -0.1886 -0.1184
28627ION     NA48907  16.219   8.196  12.734  0.0482  0.2227  0.2377
28628ION     NA48908   3.704  12.550   5.866 -0.1555  0.0065 -0.2239
28629ION     NA48909   4.758  14.956  13.596 -0.2067 -0.0471 -0.2551
28630ION     NA48910  13.097   7.883   5.767 -0.0440  0.0461 -0.0312
28631ION     NA48911  16.623  14.204   6.192 -0.2240  0.0979 -0.3486
28632ION     NA48912   2.093   1.709  11.569  0.0609  0.0245 -0.0932
28633ION     NA48913  11.994   8.213   5.793 -0.1276 -0.1466 -0.0379
28634ION     NA48914  16.617  12.679  12.034 -0.3003  0.2405 -0.2383
28635ION     NA48915  15.565   1.801  15.282 -0.2189  0.0970 -0.1412
28636ION     NA48916   8.951   5.678  11.266  0.0028  0.1275 -0.1701
28637ION     NA48917  12.272   7.604  11.074 -0.0260 -0.1251  0.4810
28638ION     NA48918  15.777   4.799   4.822 -0.0716  0.0791 -0.0303
28639ION     NA48919  14.538   0.901  16.068 -0.0221  0.0293 -0.2576
28640ION     NA48920   4.302   0.201   6.060 -0.0008  0.1392 -0.0951
28641ION     NA48921  12.998   8.676   2.344  0.2297  0.0557 -0.0878
28642ION     NA48922  11.841   0.235   5.721 -0.1336 -0.0654  0.4494
28643ION     NA48923  16.963  16.646  14.219  0.1648  0.1707 -0.0855
28644ION     NA48924   9.110   6.370  16.528 -0.1622  0.1498 -0.0641
28645ION     NA48925   1.890  10.452  11.328  0.5534 -0.3029 -0.0622
28646ION     NA48926   7.355  10.847   5.844  0.1844 -0.2657 -0.0247
28647ION     NA48927  13.161  11.465  11.789  0.2230 -0.1120  0.0295
28648ION     NA48928   5.184   4.954  11.299 -0.1818  0.0905  0.2428
28649ION     NA48929   1.220  12.718  11.415  0.1254  0.1621 -0.2427
28650ION     NA48930  10.411  14.533   5.860 -0.1414  0.0539 -0.0628
28651ION     NA48931   0.522  11.762   5.967 -0.0220  0.3219  0.0296
28652ION     NA48932   2.759   7.955  11.590  0.3233  0.0676 -0.1450
28653ION     NA48933  11.695   7.763   5.904 -0.0324 -0.0093 -0.5698
28654ION     NA48934   0.549  13.316  11.723 -0.1463  0.0265 -0.0613
28655ION     NA48935  17.720   0.049   3.494  0.1027  0.1959 -0.4039
28656ION     NA48936   5.223   2.122   5.801  0.1008  0.0194 -0.1347
28657ION     NA48937   5.057   0.825   5.979 -0.1524  0.0276 -0.2741
28658ION     NA48938   7.559   7.116  16.982  0.3460 -0.1135  0.0586
28659ION     NA48939  13.263  13.793   1.578  0.0961  0.2425  0.0100
28660ION     NA48940   2.103  11.479   5.718 -0.0083 -0.4491 -0.0333
28661ION     NA48941   7.041   9.524   5.856 -0.0392  0.1021  0.0699
28662ION     NA48942  15.701  12.552  11.231  0.1677  0.0452 -0.0903
28663ION     NA48943  15.645   7.031  11.561  0.0588  0.2591  0.0537
28664ION     NA48944   3.435  10.819  11.166 -0.2340 -0.0469 -0.0350
28665ION     NA48945  11.360  16.525   5.708  0.2714 -0.0819  0.0276
28666ION     NA48946  10.459   6.244  16.199  0.1129 -0.1653 -0.1993
28667ION     NA48947  17.434   8.890   5.912 -0.1903 -0.0567  0.0525
28668ION     NA48948   5.542   7.368  11.296  0.2946  0.0024  0.1643
28669ION     NA48949  11.794   8.796  11.193 -0.2173  0.1676  0.1161
28670ION     NA48950   3.021   6.105   5.841  0.0321 -0.0264  0.1220
28671ION     NA48951   0.318   0.286   5.809 -0.1518 -0.2400 -0.1457
28672ION     NA48952   5.981   9.838   5.848 -0.2834 -0.3288  0.0985
28673ION     NA48953   2.134  15.760  11.406 -0.2808  0.0383 -0.2779
28674ION     NA48954   4.871  17.692   5.958 -0.0731 -0.0072  0.0157
28675ION     NA48955   9.204  15.609   2.867  0.0169  0.2622 -0.0086
28676ION     NA48956   9.722  11.391  16.779 -0.1390  0.0329  0.2046
28677ION     NA48957   6.518   3.046   1.316  0.1580 -0.0652 -0.0935
28678ION     NA48958   7.579   8.084  13.661 -0.3187 -0.2183 -0.3230
28679ION     NA48959   7.891  10.590   5.744 -0.2854  0.0508 -0.1549
28680ION     NA48960   4.139   2.583  14.136  0.3642  0.0112 -0.2779
28681ION     NA48961  12.526  11.148  11.189 -0.1363  0.0841 -0.2573
28682ION     NA48962  10.495   8.423  15.861  0.0267 -0.1293  0.0368
28683ION     NA48963   7.826  16.122   5.532 -0.2673  0.2871 -0.2413
28684ION     NA48964  15.860  15.434  14.492  0.0005 -0.1447  0.1205
28685ION     NA48965  15.427   2.268  11.417  0.1651  0.1666  0.1299
28686ION     NA48966   6.749  13.789  11.430  0.1037 -0.2851  0.0497
28687ION     NA48967  12.396  10.500   5.400  0.0502 -0.1550 -0.0649
28688ION     NA48968  13.104  15.967  11.278 -0.1410 -0.0706 -0.1771
28689ION     NA48969  12.799   7.191   3.320 -0.0402 -0.0231 -0.0187
28690ION     NA48970  17.354   4.605   5.888  0.0630 -0.0412 -0.2496
28691ION     NA48971   2.539   0.883   1.062  0.0028 -0.2224 -0.0296
28692ION     NA48972  12.626  16.686  14.112  0.0429  0.0808  0.1050
28693ION     NA48973   7.494  11.805   5.807 -0.0915 -0.1368 -0.0932
28694ION     NA48974   6.033   9.006   5.998  0.0827  0.1479 -0.1031
28695ION     NA48975  16.924   7.413   1.527  0.0230  0.0247  0.0227
28696ION     NA48976   6.703  13.148   5.871 -0.1341  0.1429 -0.0102
28697ION     NA48977   1.420   4.789   5.905 -0.2686  0.4127  0.1616
28698ION     NA48978   2.472   0.407   5.703 -0.0695  0.0812  0.2627
28699ION     NA48979  14.696   4.363   0.905  0.1362  0.1332 -0.0407
28700ION     NA48980  13.224   1.682  11.325  0.1860  0.4455 -0.1075
28701ION     NA48981  12.180   6.521   4.662  0.0359 -0.2838 -0.0494
28702ION     NA48982   8.608  11.888  16.098  0.2105  0.2199  0.0269
28703ION     NA48983   2.460   7.059  11.277  0.0580  0.0599 -0.3654
28704ION     NA48984  15.472  13.338  11.316 -0.0680 -0.0973 -0.0643
28705ION     NA48985   8.633   8.731  11.277 -0.0648 -0.1698 -0.0470
28706ION     NA48986   2.799   1.757   5.391  0.2118 -0.0428  0.3859
28707ION     NA48987   0.681   2.348   0.977 -0.2811 -0.0621  0.0835
28708ION     NA48988   9.650   1.181   5.671 -0.2745  0.0156  0.4277
28709ION     NA48989  15.879  12.583  16.107 -0.2533 -0.2196 -0.0893
28710ION     NA48990  10.559  16.968  11.184 -0.0848 -0.1963 -0.2858
28711ION     NA48991   6.796   7.472   5.612 -0.1152  0.0690  0.2191
28712ION     NA48992   5.034  14.607  11.389 -0.2222  0.0461  0.0301
28713ION     NA48993   3.459  17.135  14.714 -0.0946  0.1496 -0.2751
28714ION     NA48994   4.249   1.032  11.447  0.0662  0.2109 -0.0236
28715ION     NA48995  14.174  17.500   5.890 -0.2086 -0.2918 -0.1400
28716ION     NA48996   0.117  11.993  15.447  0.0541  0.0642 -0.1339
28717ION     NA48997   1.705   1.177  11.402 -0.2387  0.2142  0.1062
28718ION     NA48998  10.969  12.661   2.542 -0.0327 -0.1228  0.1899
28719ION     NA48999   5.359   7.458   5.653 -0.2215 -0.1983 -0.1837
28720ION     NA49000   9.274   8.287   5.764  0.3313  0.2189  0.1882
28721ION     NA49001   8.429   0.394  11.601  0.3492  0.2897 -0.1869
28722ION     NA49002  15.652  16.635   5.355  0.0719  0.0478 -0.0318
28723ION     NA49003  11.877  13.699   5.792  0.3388 -0.0738 -0.1496
28724ION     NA49004  16.821  10.341   5.883 -0.0028 -0.2254  0.1677
28725ION     NA49005   6.961   8.184  11.230  0.1336 -0.2150  0.2502
28726ION     NA49006  15.250   8.827   5.861  0.2230  0.3810 -0.0749
28727ION     NA49007   3.065   9.519  13.457 -0.1498  0.1439  0.0750
28728ION     NA49008   4.348   6.203   0.092 -0.1493  0.2796  0.1527
28729ION     NA49009   2.927   8.785   5.962  0.0285  0.1385 -0.0145
28730ION     NA49010   4.861  16.815  13.101  0.0142 -0.1985 -0.2485
28731ION     NA49011   5.218  15.967  11.324 -0.1472 -0.2529 -0.2222
28732ION     NA49012   4.010  17.155   5.970 -0.0153  0.3613  0.2374
28733ION     NA49013   0.579   9.039   5.891  0.0092 -0.1135  0.3041
28734ION     NA49014  10.462   3.026   4.112  0.0532 -0.2435 -0.0505
28735ION     NA49015   6.768   9.009  11.432 -0.0245 -0.2740  0.0116
28736ION     NA49016   0.565   3.233   5.822 -0.1917 -0.1993 -0.0979
28737ION     NA49017  12.670   1.165   5.746 -0.1095  0.1812 -0.1972
28738ION     NA49018   7.772   1.551  11.311  0.0091 -0.0534 -0.2798
28739ION     NA49019   5.704  11.934  16.550 -0.3256 -0.0163  0.1151
28740ION     NA49020  12.467   8.494  11.455  0.0041  0.1628  0.1675
28741ION     NA49021   8.530   2.940   5.358 -0.0817 -0.1926 -0.0771
28742ION     NA49022  12.124   4.109  11.214  0.1852  0.2030  0.0579
28743ION     NA49023  17.340   7.007   5.559 -0.3142  0.1439 -0.0511
28744ION     NA49024   6.010  14.775   5.952 -0.2255  0.0691 -0.3536
28745ION     NA49025  14.314  16.422   5.162 -0.0955  0.1806 -0.0209
28746ION     NA49026  16.216   2.778  11.488  0.1140  0.2235 -0.5771
28747ION     NA49027  16.949   2.375   5.745  0.0050  0.3060 -0.1617
28748ION     NA49028   4.548   0.822  13.253 -0.2459 -0.1463 -0.0002
28749ION     NA49029   5.020   4.131  11.535 -0.3192 -0.2230 -0.1121
28750ION     NA49030  17.298   9.520   6.000 -0.2582 -0.3197  0.0315
28751ION     NA49031   1.896  15.157   4.870  0.1448 -0.0224 -0.0616
28752ION     NA49032  12.648   8.655   5.705  0.3012  0.1955  0.1699
28753ION     NA49033  11.807   8.478   4.399 -0.0094  0.1395 -0.1831
28754ION     NA49034   1.125   9.881  11.464 -0.2805  0.0677 -0.0890
28755ION     NA49035   8.883   2.651  11.351 -0.3702  0.1012 -0.0946
28756ION     NA49036   1.298  15.368   5.756  0.0937  0.1159 -0.2130
28757ION     NA49037   3.360   7.677   0.599  0.0288 -0.0227  0.0178
28758ION     NA49038   1.498  12.153  16.169 -0.1848 -0.1537 -0.2477
28759ION     NA49039  17.355   3.164   5.535  0.0296  0.0107 -0.2199
28760ION     NA49040   3.894   0.659  15.850 -0.1647 -0.0979  0.0197
28761ION     NA49041   9.931  13.069   5.640  0.1320  0.0300  0.1376
28762ION     NA49042   2.522   0.757  11.365  0.1152 -0.2071  0.1449
28763ION     NA49043   0.231   3.118   3.875 -0.1551  0.1127 -0.0949
28764ION     NA49044  13.616   1.096   5.812 -0.2496  0.0252 -0.2473
28765ION     NA49045   4.410   4.784  11.432  0.0497  0.0082  0.2841
28766ION     NA49046   8.009   9.431  14.482 -0.0980 -0.0315 -0.0754
28767ION     NA49047  16.340   0.216  11.377 -0.1449 -0.0523 -0.0639
28768ION     NA49048   4.355   6.748  11.315  0.1977  0.0106  0.1510
28769ION     NA49049   4.701  10.222   5.758  0.2042  0.0184 -0.0575
28770ION     NA49050  12.175  16.330  11.243 -0.2242 -0.1025  0.0304
28771ION     NA49051  16.084  12.444   5.796 -0.0191  0.4336  0.1154
28772ION     NA49052   2.361   0.933   5.729  0.0306  0.0404 -0.3622
28773ION     NA49053  15.426  15.493  11.455 -0.2212  0.2536  0.2005
28774ION     NA49054  11.716   0.837   4.643 -0.1781 -0.0516 -0.2663
28775ION     NA49055  10.192  14.029   5.839  0.1145 -0.1218 -0.0741
28776ION     NA49056  12.435  17.293   3.352 -0.1324 -0.3168 -0.0860
28777ION     NA49057  11.424   5.467   0.163 -0.3159  0.0001  0.1304
28778ION     NA49058   2.089   2.684  11.566 -0.1238  0.0688 -0.3578
28779ION     NA49059  11.125  14.260   5.921  0.1143 -0.2164 -0.1037
28780ION     NA49060  15.609   0.583  11.425 -0.0309  0.1755 -0.1731
28781ION     NA49061  11.918  12.615   0.194  0.2156 -0.1991  0.2595
28782ION     NA49062   9.957   6.116   4.918  0.0818  0.0932 -0.1414
28783ION     NA49063  12.015  15.487  12.488 -0.1583 -0.0533 -0.2478
28784ION     NA49064  16.018   9.634  11.384  0.1086 -0.2145 -0.0316
28785ION     NA49065   0.100   2.033  11.313  0.0128 -0.0671  0.1088
28786ION     NA49066  16.115   4.476  11.184  0.0364  0.0411  0.2609
28787ION     NA49067   1.297   5.220  11.318  0.0110  0.0381  0.3235
28788ION     NA49068  16.193  10.686  11.247  0.2233  0.0479 -0.0162
28789ION     NA49069   4.997   1.836   0.647  0.0123  0.0121  0.3786
28790ION     NA49070   3.501  13.429  11.338  0.2512 -0.3342  0.0705
28791ION     NA49071  12.802   0.330  12.997 -0.0265  0.0414 -0.2647
28792ION     NA49072  10.673  12.637   3.844 -0.0204  0.1953 -0.0316
28793ION     NA49073  11.680   4.916  11.303  0.3072 -0.0231 -0.0554
28794ION     NA49074   2.679   6.641   5.180  0.1247  0.0698 -0.0644
28795ION     NA49075   4.354  17.008  11.384 -0.2999 -0.0582  0.1604
28796ION     NA49076  17.664  10.368  11.397  0.4426 -0.0207 -0.0281
28797ION     NA49077  10.889   2.560   5.808 -0.0380  0.0842  0.1268
28798ION     NA49078  16.247   7.262  15.224 -0.2633  0.1547 -0.2145
28799ION     NA49079   2.088   8.368  11.474 -0.4467  0.0932 -0.2225
28800ION     NA49080  17.400   1.133  16.267 -0.1823  0.1404 -0.0120
28801ION     NA49081   3.483   8.685  15.200  0.1974  0.0475  0.2021
28802ION     NA49082   9.675   6.212  11.193 -0.0885  0.1357  0.0070
28803ION     NA49083  13.863   9.403   5.749  0.0867  0.1161 -0.2994
28804ION     NA49084  12.018   3.736  15.593 -0.1248 -0.0256 -0.0212
28805ION     NA49085   1.787   1.032   1.585 -0.1329 -0.0990  0.1037
28806ION     NA49086  16.840   9.590  11.393  0.1307 -0.2355 -0.1022
28807ION     NA49087  10.534   0.954   5.559 -0.0768  0.0508 -0.2233
28808ION     NA49088  12.959   0.584  15.451  0.1351 -0.0128  0.0064
28809ION     NA49089   8.758  11.863  11.134  0.0830 -0.0420  0.2071
28810ION     NA49090  16.179   8.766  11.363 -0.2002 -0.2131  0.1258
28811ION     NA49091   6.862  14.551   5.996 -0.0989 -0.1945 -0.3140
28812ION     NA49092   6.602   9.231   5.897 -0.2688  0.3075 -0.2588
28813ION     NA49093   2.812   7.386  13.814 -0.0842  0.2261 -0.2225
28814ION     NA49094   1.269  12.322   1.466  0.0882  0.2094 -0.1899
28815ION     NA49095  10.705   5.906   2.275  0.1324 -0.1408 -0.0213
28816ION     NA49096  10.074  10.849   5.665 -0.1946  0.0468 -0.1609
28817ION     NA49097   5.957   7.935  15.507  0.1266 -0.1412  0.3219
28818ION     NA49098   1.940   6.967  11.402  0.0977 -0.1619 -0.1341
28819ION     NA49099   9.752  14.158   2.433  0.1776 -0.3252 -0.1961
28820ION     NA49100   9.999   9.169  11.341  0.1148 -0.1751 -0.1270
28821ION     NA49101   4.345  15.522   5.847  0.1352 -0.0223  0.3236
28822ION     NA49102  16.867   3.188  11.169 -0.3862 -0.3076 -0.0660
28823ION     NA49103   9.393  13.165  11.145  0.0509  0.2152  0.2534
28824ION     NA49104  10.715   0.138   3.685 -0.0206  0.3171 -0.0929
28825ION     NA49105   5.558  13.475  13.308  0.1856 -0.0683  0.1149
28826ION     NA49106  14.749  14.315  11.124 -0.2513  0.0320 -0.2506
28827ION     NA49107   7.204  15.344   5.700 -0.2252  0.0783 -0.2674
28828ION     NA49108   4.198  13.704  11.191  0.1468 -0.4510 -0.2113
28829ION     NA49109   3.542  14.107   5.954  0.0376  0.2335 -0.4598
28830ION     NA49110   8.679   6.371  11.267 -0.0257 -0.2043  0.1097
28831ION     NA49111  12.043   3.448  11.446  0.1981  0.1108  0.0549
28832ION     NA49112  15.850   0.889   5.394  0.0276 -0.2407  0.1375
28833ION     NA49113  16.553   7.906   4.941 -0.0821 -0.3314  0.0316
28834ION     NA49114  10.871  13.484   0.282 -0.3107 -0.3565 -0.4551
28835ION     NA49115  15.621   8.877   4.360  0.1469 -0.3609 -0.3127
28836ION     NA49116  12.203  11.372   5.188  0.0908  0.3973  0.3736
28837ION     NA49117  13.419   0.649   5.782 -0.4113 -0.0419  0.1465
28838ION     NA49118   1.168  12.438   5.716  0.0691  0.2784 -0.1053
28839ION     NA49119   5.968   6.856  11.340 -0.0753 -0.2225 -0.1335
28840ION     NA49120  13.201   6.644   4.741 -0.0551 -0.2650 -0.0569
28841ION     NA49121  13.653  13.593   5.724  0.2170  0.0412  0.1803
28842ION     NA49122  10.244   9.375   5.597 -0.1129  0.3218  0.0262
28843ION     NA49123  16.599   8.939   6.093  0.2980  0.0882  0.1055
28844ION     NA49124   7.566  17.027   5.761  0.1933  0.0926  0.0615
28845ION     NA49125   1.962   9.668  16.368 -0.1960 -0.0971 -0.0768
28846ION     NA49126  11.847  14.492   5.653  0.0660 -0.0531 -0.1741
28847ION     NA49127   0.540  17.405   1.661  0.0688  0.0340  0.0756
28848ION     NA49128   9.319   8.664  11.330 -0.0269 -0.0215 -0.3058
28849ION     NA49129  11.116  16.404  10.806 -0.3710  0.0812  0.2089
28850ION     NA49130  12.654   2.303  11.484 -0.1538 -0.1185  0.1071
28851ION     NA49131  15.457   4.087   0.233 -0.1948 -0.3012 -0.0934
28852ION     NA49132  13.438   4.449  11.449  0.1429 -0.0133 -0.0193
28853ION     NA49133   4.240  16.193  11.236 -0.1262 -0.0847 -0.0247
28854ION     NA49134  12.859  12.938   5.814  0.3523  0.1829 -0.1484
28855ION     NA49135  11.407  12.702   5.867  0.0448  0.3568 -0.0467
28856ION     NA49136   5.701   6.626   5.822  0.0684 -0.3014  0.2680
28857ION     NA49137  14.946  16.817   5.705 -0.1453 -0.2788 -0.0526
28858ION     NA49138  15.087   0.483   5.585  0.1523 -0.4154 -0.2404
28859ION     NA49139   2.663   6.262  11.465  0.0650  0.0720  0.2961
28860ION     NA49140  14.671   7.710  11.238 -0.2839  0.2869  0.0961
28861ION     NA49141   6.260  16.792   2.128  0.3136 -0.1496  0.0008
28862ION     NA49142   9.051   6.489  14.693  0.1338  0.0463 -0.0133
28863ION     NA49143  11.713  14.772  16.707  0.2625  0.0349 -0.1051
28864ION     NA49144   0.101   2.919  11.367  0.1270 -0.2477  0.0046
28865ION     NA49145  12.710   0.838   1.953  0.3330 -0.1051 -0.0124
28866ION     NA49146  16.580  11.792   5.788  0.2469  0.0787 -0.0111
28867ION     NA49147  13.288  14.991  11.259 -0.1044  0.0892 -0.2524
28868ION     NA49148  11.114   9.712   2.679  0.2568  0.2426  0.1276
28869ION     NA49149  11.674   9.126   5.862  0.1705  0.1691 -0.0873
28870ION     NA49150  11.130  15.116   5.711 -0.0076 -0.1622  0.0229
28871ION     NA49151  14.484   0.125  14.014 -0.1478  0.1141  0.1506
28872ION     NA49152  17.725  16.638   5.894  0.1149  0.1459 -0.0409
28873ION     NA49153   5.069   8.678  15.841 -0.1708 -0.6210 -0.0724
28874ION     NA49154  12.563  15.212   5.757 -0.0550 -0.0521  0.1661
28875ION     NA49155   8.469  14.322  11.176  0.1883  0.0807 -0.2693
28876ION     NA49156   0.069  15.300   1.190  0.2457 -0.0406  0.0813
28877ION     NA49157  14.348   8.086  11.287  0.1908  0.2650  0.0606
28878ION     NA49158   1.219   5.935   5.650  0.2098  0.2939 -0.0949
28879ION     NA49159   1.035   7.360  11.302 -0.0542 -0.1212 -0.3210
28880ION     NA49160  12.711   1.840  15.262  0.1234  0.1363  0.2863
28881ION     NA49161  10.608  11.068  11.234  0.3637  0.0180 -0.0699
28882ION     NA49162   0.583  11.055  11.362  0.0905  0.3001 -0.3443
28883ION     NA49163   2.039  12.989   5.997 -0.1018 -0.0731  0.0721
28884ION     NA49164  16.020  11.718  11.279 -0.1594  0.0219 -0.3351
28885ION     NA49165  15.399  11.067  11.205 -0.0069 -0.0747 -0.1366
28886ION     NA49166   9.491  11.385  11.216 -0.0914 -0.1228  0.0183
28887ION     NA49167   6.587   5.251  11.145  0.2109  0.2198  0.1170
28888ION     NA49168   7.969   9.033  16.847 -0.0406  0.3408 -0.2296
28889ION     NA49169   2.804  14.536   2.006 -0.3418  0.0559 -0.0082
28890ION     NA49170   3.516  10.730   2.539 -0.3757 -0.3604  0.0369
28891ION     NA49171   8.373   5.039  11.286  0.3784  0.0654 -0.2760
28892ION     NA49172  15.319  15.089   4.634 -0.1096 -0.0408  0.4159
28893ION     NA49173   6.835   6.665  11.241  0.0638  0.0199 -0.0170
28894ION     NA49174   1.444   3.426  11.864  0.1474 -0.0072  0.1938
28895ION     NA49175  11.480   9.673  11.190  0.1226  0.2292 -0.2094
28896ION     NA49176   6.911  11.078  11.381  0.2858  0.0589  0.0029
28897ION     NA49177  14.169  16.907   1.616  0.0151 -0.2692 -0.1073
28898ION     NA49178  15.757   3.835   4.321 -0.0864  0.0499  0.1799
28899ION     NA49179   9.361   8.912   5.820  0.1502  0.3497 -0.3089
28900ION     NA49180  17.133  15.878   5.941 -0.1522 -0.1876  0.0420
28901ION     NA49181  12.840   7.053   5.821  0.1835  0.0325 -0.0262
28902ION     NA49182   0.009  13.902   5.676  0.0840 -0.1268  0.4248
28903ION     NA49183   2.915  15.956   2.797  0.2334  0.0116 -0.0961
28904ION     NA49184   5.810   1.559   5.912  0.3315  0.2177  0.0595
28905ION     NA49185  10.359   3.712  10.967 -0.0864 -0.1599 -0.0572
28906ION     NA49186   2.738  10.636   3.604  0.0498  0.1799 -0.0678
28907ION     NA49187  11.651   2.020   5.465  0.0719 -0.0544 -0.1198
28908ION     NA49188  10.916   6.894   5.957 -0.2442  0.2687  0.1133
28909ION     NA49189   6.607  17.314   5.924  0.3021  0.0545  0.0858
28910ION     NA49190   2.660  17.586  11.593  0.1681  0.1999 -0.2363
28911ION     NA49191   3.015  11.122   5.950 -0.0469  0.1557 -0.0707
28912ION     NA49192   9.088   2.868   0.911 -0.2073  0.1503  0.1770
28913ION     NA49193  12.910  13.793   5.560 -0.0801  0.0342  0.2087
28914ION     NA49194   6.006  12.673   5.828 -0.1698 -0.0368  0.0303
28915ION     NA49195   4.373   0.169  11.401  0.1302  0.1068 -0.0815
28916ION     NA49196  11.019  11.341  12.356 -0.1127  0.2688  0.0444
28917ION     NA49197   2.659  16.808  11.449  0.1612  0.0476 -0.3361
28918ION     NA49198   4.123   2.681  11.210 -0.0658 -0.0073  0.0128
28919ION     NA49199  17.363  11.315   5.669 -0.2081  0.2205 -0.2774
28920ION     NA49200  15.523  14.101  11.425  0.1667 -0.0423 -0.0117
28921ION     NA49201   4.893  16.152   5.923  0.1874 -0.0722 -0.2225
28922ION     NA49202   5.889   4.516  11.300 -0.5141 -0.0380 -0.1540
28923ION     NA49203  16.103  15.150   0.983  0.1043 -0.3572  0.1029
28924ION     NA49204  12.760   9.895  11.234  0.0442 -0.1054 -0.2273
28925ION     NA49205   2.937   8.852  11.618 -0.2307 -0.0085  0.2429
28926ION     NA49206   5.086   4.434  12.738 -0.1703  0.3448  0.0984
28927ION     NA49207   8.787   5.157   5.737 -0.2257 -0.0395 -0.1486
28928ION     NA49208   0.451   6.825  11.397  0.2201  0.1512  0.2462
28929ION     NA49209  15.153  14.453  16.358  0.0844 -0.3191 -0.0451
28930ION     NA49210   1.054   3.856   5.006  0.1747 -0.0130  0.0961
28931ION     NA49211  10.849  17.369  11.264 -0.1645 -0.0114  0.2965
28932ION     NA49212  17.591  15.294   5.731 -0.2021 -0.0972  0.3036
28933ION     NA49213   5.309   8.778  11.562  0.0640  0.1893  0.1421
28934ION     NA49214  12.963   4.623   2.487 -0.3732  0.1640  0.2068
28935ION     NA49215  10.830   1.194  11.295  0.1851  0.1266  0.0107
28936ION     NA49216  15.618   5.150  11.616 -0.1874  0.1649  0.0197
28937ION     NA49217   4.814   3.591   2.656  0.1725 -0.0007  0.1311
28938ION     NA49218   1.427  13.132   0.330  0.3681  0.3148 -0.4010
28939ION     NA49219   7.791   4.972   5.542  0.3473  0.0378 -0.0413
28940ION     NA49220   3.913  15.174   4.580 -0.0927 -0.1141 -0.1984
28941ION     NA49221   2.569   1.585  11.408  0.2158  0.1174  0.0033
28942ION     NA49222  11.357  15.969  11.016  0.0870  0.1603  0.0271
28943ION     NA49223   0.983  16.007  11.342  0.1089  0.0256 -0.0805
28944ION     NA49224  17.503  10.263  11.845 -0.2303 -0.0835  0.1455
28945ION     NA49225   4.421  15.173   1.546  0.0357  0.0030  0.0539
28946ION     NA49226  12.754   4.814  11.489  0.0616 -0.3546  0.0710
28947ION     NA49227   1.579   1.574   5.819 -0.0364  0.0066  0.2839
28948ION     NA49228  17.172   8.899  11.570 -0.1064 -0.1231 -0.0852
28949ION     NA49229   5.250   6.722   2.514 -0.0154  0.0184 -0.0606
28950ION     NA49230   7.114   3.110  11.014  0.1259 -0.0854 -0.0329
28951ION     NA49231   1.085   8.262  11.444  0.1720 -0.0084  0.1714
28952ION     NA49232   7.543   8.750  11.308 -0.0927 -0.1101 -0.1090
28953ION     NA49233  12.727   2.721  12.296  0.4777  0.1431  0.3136
28954ION     NA49234  16.429   7.551   6.028  0.2185  0.0792  0.1848
28955ION     NA49235  16.228  14.709   2.287  0.2009 -0.1721  0.1251
28956ION     NA49236   1.436  11.392  11.552 -0.0580  0.0714  0.1807
28957ION     NA49237  13.745   6.649  11.279  0.0842 -0.2303 -0.0486
28958ION     NA49238   4.189   3.523   5.843 -0.1379  0.2029 -0.3073
28959ION     NA49239   3.197   3.517   5.795 -0.1671  0.3579  0.0279
28960ION     NA49240   9.834  17.382   2.441  0.2374  0.0014 -0.0963
28961ION     NA49241  10.664  17.188   5.793 -0.0177 -0.0274  0.0537
28962ION     NA49242   9.976  12.616  11.149 -0.1691 -0.2752 -0.3954
28963ION     NA49243  14.757   3.492  11.322 -0.1929  0.1373 -0.1437
28964ION     NA49244  17.538   3.143  16.563  0.0021  0.1734 -0.2623
28965ION     NA49245  14.336   6.743   5.504  0.2338  0.3191 -0.0678
28966ION     NA49246  11.351  17.185   1.896 -0.2957 -0.0622 -0.4821
28967ION     NA49247   5.290  11.295   6.045 -0.1875  0.1066  0.3047
28968ION     NA49248   0.193  15.715  11.375  0.0369 -0.0828  0.0017
28969ION     NA49249   6.274  15.680   5.509  0.1835  0.1994  0.0095
28970ION     NA49250  11.994  11.347  11.405 -0.0131  0.1033 -0.2831
28971ION     NA49251   4.135   5.864  11.459  0.0711  0.0578 -0.0761
28972ION     NA49252  16.680   5.640  11.380 -0.0279  0.1211 -0.1672
28973ION     NA49253   5.076   3.929   5.983 -0.0150 -0.1986 -0.2787
28974ION     NA49254  12.559   9.140   5.648 -0.0069  0.1961 -0.1730
28975ION     NA49255   7.219  15.193   0.656 -0.1821  0.0866  0.0369
28976ION     NA49256   0.377   5.787   5.820  0.0787 -0.3056  0.1149
28977ION     NA49257  16.320   1.206   4.042  0.0674  0.0314  0.2576
28978ION     NA49258   4.469   5.078   5.786 -0.1514 -0.0755  0.2113
28979ION     NA49259   1.996  10.518   4.942  0.1037  0.2683 -0.2016
28980ION     NA49260   0.490   6.006  11.487 -0.1775 -0.0758  0.0919
28981ION     NA49261   5.528   2.195  11.411  0.0752 -0.0018  0.1782
28982ION     NA49262  16.395   0.682  13.882 -0.0577 -0.1512 -0.3130
28983ION     NA49263   8.567  12.871  11.291 -0.1206 -0.0397 -0.2591
28984ION     NA49264   3.904   7.391   6.016  0.0854  0.2269 -0.1851
28985ION     NA49265   2.543  13.568  11.437  0.0655 -0.2737 -0.1349
28986ION     NA49266  12.768  10.909   5.717 -0.1592  0.1218  0.2264
28987ION     NA49267   9.175  14.722  10.947 -0.0545  0.1967 -0.0518
28988ION     NA49268   3.540  15.886  12.578  0.2184  0.0728  0.5384
28989ION     NA49269  10.423  11.589   5.584 -0.1861  0.1314 -0.2089
28990ION     NA49270   7.265   5.916  11.187 -0.0579  0.3206  0.0075
28991ION     NA49271  17.082   1.990   1.249 -0.1504 -0.1055  0.0706
28992ION     NA49272  11.224  13.548  11.120  0.1393  0.2264 -0.1788
28993ION     NA49273  10.662  15.521   3.954 -0.0969 -0.0900 -0.0362
28994ION     NA49274  14.191  14.980  11.285 -0.0145  0.0408  0.1441
28995ION     NA49275  16.647   4.894   5.843  0.2192 -0.1383  0.1117
28996ION     NA49276  17.280   7.437  16.494 -0.1839 -0.1648 -0.0027
28997ION     NA49277  10.999   6.768  11.529  0.0588  0.2077  0.0351
28998ION     NA49278   0.142   4.064   5.977 -0.0651 -0.2389 -0.2025
28999ION     NA49279  16.024  16.317  11.690  0.1630 -0.0960 -0.0337
29000ION     NA49280  15.479  11.493  15.231 -0.0062 -0.0106 -0.1335
29001ION     NA49281   1.792   7.940  11.474  0.0508  0.3325 -0.0595
29002ION     NA49282  11.736   3.860   5.697  0.3647 -0.1506  0.0013
29003ION     NA49283  11.301   1.085  15.648  0.1228  0.0054  0.0883
29004ION     NA49284  16.096   3.014   3.988 -0.3020 -0.1644  0.2230
29005ION     NA49285   6.932  16.601  11.446 -0.0142  0.1259 -0.1716
29006ION     NA49286   9.272   8.802  15.630  0.1110 -0.2772 -0.1479
29007ION     NA49287  13.218   8.121   5.336  0.1748  0.0525 -0.0057
29008ION     NA49288   5.407   7.243   5.189  0.0972  0.2535  0.2490
29009ION     NA49289   5.464  17.642   2.770  0.2314 -0.1815 -0.0828
29010ION     NA49290  15.093   1.374   5.747 -0.0788  0.1052  0.2029
29011ION     NA49291  13.684  14.417   5.444 -0.0041  0.2752 -0.2598
29012ION     NA49292   9.669  14.753  15.843 -0.2419  0.1408 -0.0496
29013ION     NA49293  15.647   7.455   5.859 -0.0597 -0.3855 -0.2196
29014ION     NA49294  12.321  10.144   5.757 -0.1633 -0.1956 -0.0499
29015ION     NA49295  12.963  16.073   5.756 -0.0955  0.2517  0.1806
29016ION     NA49296   7.991   0.277   5.502  0.3230 -0.1126  0.0533
29017ION     NA49297  14.091  10.322   5.685  0.1929  0.0711  0.1334
29018ION     NA49298   4.234  10.892   3.224  0.0739  0.0882 -0.3753
29019ION     NA49299  14.431   6.190   3.317  0.1399  0.0373 -0.0200
29020ION     NA49300  10.403  13.484  11.142  0.1442  0.1340  0.3138
29021ION     NA49301  10.806   5.122  11.048 -0.2219 -0.1773  0.1159
29022ION     NA49302   2.069   4.773  11.607 -0.0109 -0.1725  0.0280
29023ION     NA49303  17.260   7.619  12.463 -0.2426 -0.0367  0.2785
29024ION     NA49304   9.381  10.434  11.265 -0.0833  0.2798 -0.1252
29025ION     NA49305  13.259  12.515  11.189  0.0186  0.3269 -0.2743
29026ION     NA49306   5.950  11.875   5.899  0.0842  0.0509  0.1413
29027ION     NA49307   8.162   0.886   5.777  0.1686 -0.1845 -0.2825
29028ION     NA49308  10.559  17.297  14.058  0.1950 -0.2696 -0.1685
29029ION     NA49309   9.880   7.040  13.644  0.0249  0.0659  0.1484
29030ION     NA49310  10.200   8.320   5.872  0.2584 -0.0379 -0.1280
29031ION     NA49311  11.942  12.769   5.793 -0.3059 -0.1709  0.3991
29032ION     NA49312  14.196   8.789   3.771  0.0218  0.0733 -0.0763
29033ION     NA49313   6.688   3.865  11.364  0.1715  0.1844 -0.0307
29034ION     NA49314  12.098   5.768  15.410  0.0237 -0.0500  0.0063
29035ION     NA49315  10.159   8.439  11.385 -0.1728  0.0191 -0.0275
29036ION     NA49316   8.191  12.545  11.196 -0.0202  0.0662 -0.0133
29037ION     NA49317  13.872  15.984  11.451 -0.0131  0.2342 -0.1725
29038ION     NA49318  15.815  12.591   0.568 -0.2809 -0.2499 -0.4132
29039ION     NA49319   6.364   0.880   1.736 -0.0165 -0.1002 -0.0997
29040ION     NA49320   1.068  16.330  14.808 -0.1281 -0.1516  0.1067
29041ION     NA49321  16.100  11.937   3.975  0.0037 -0.0632 -0.1839
29042ION     NA49322   7.728  10.610  11.175 -0.1160 -0.1939 -0.1608
29043ION     NA49323  14.151  11.203   5.804  0.1359  0.1197 -0.0129
29044ION     NA49324   8.351  17.556   2.142 -0.0675  0.2630 -0.1207
29045ION     NA49325  13.199  17.535   5.982  0.1068  0.3456  0.0973
29046ION     NA49326   4.640  13.064   3.167  0.0178  0.2355 -0.3084
29047ION     NA49327   7.676   3.179   5.626 -0.0788  0.0136  0.2254
29048ION     NA49328   8.404  16.499   5.609 -0.1810  0.2249 -0.0731
29049ION     NA49329   1.930   0.655  12.418  0.1136 -0.2042 -0.0155
29050ION     NA49330   9.778  11.465  14.297 -0.1827  0.2636  0.2668
29051ION     NA49331   2.127  10.606   5.897  0.1204 -0.2192 -0.3301
29052ION     NA49332   9.417  15.746  11.049  0.0767  0.0626 -0.0659
29053ION     NA49333   9.803   2.373  16.143  0.6386  0.1720  0.2397
29054ION     NA49334   0.443  13.084   5.896  0.0834 -0.2179  0.3691
29055ION     NA49335  14.022   5.277  11.476  0.2037  0.1453 -0.1578
29056ION     NA49336   7.836   1.042   3.964 -0.0346  0.0635  0.0967
29057ION     NA49337   0.116  11.800   4.610  0.1895 -0.1402 -0.2324
29058ION     NA49338  17.693  12.993   5.997  0.1234  0.3071 -0.0509
29059ION     NA49339   7.895  13.918   4.692  0.1381  0.1775 -0.0044
29060ION     NA49340  15.460  16.743  11.427  0.0410  0.2610 -0.1623
29061ION     NA49341   1.339   1.449  11.615  0.1203  0.0487  0.3258
29062ION     NA49342  10.065   9.762  11.662  0.0096 -0.0628  0.1081
29063ION     NA49343   2.932  12.453   5.861  0.3494 -0.0917 -0.2191
29064ION     NA49344  14.631  12.754   5.824  0.2637 -0.0400 -0.2375
29065ION     NA49345  11.728   9.350  15.036 -0.2176 -0.1053  0.1435
29066ION     NA49346   1.184  11.822  13.470  0.3127 -0.0249  0.1729
29067ION     NA49347   8.631  14.738   5.943  0.2212 -0.1058 -0.1714
29068ION     NA49348  10.763   7.712   5.936 -0.3543 -0.3927  0.0488
29069ION     NA49349   8.990   3.633   5.536 -0.1279 -0.0678  0.3217
29070ION     NA49350  15.880  17.419  12.289  0.0085  0.1167 -0.1096
29071ION     NA49351  16.636  10.866   5.938  0.2295 -0.0722  0.1057
29072ION     NA49352   9.412   3.893  11.089  0.0457  0.3031  0.2662
29073ION     NA49353   3.739   9.076  11.447 -0.1271  0.0689  0.2158
29074ION     NA49354  16.305   3.551  12.084 -0.0948 -0.0261  0.0593
29075ION     NA49355  14.792   0.350  11.368  0.0098 -0.0639 -0.2631
29076ION     NA49356   4.799   1.506  11.408  0.0330 -0.4215 -0.1063
29077ION     NA49357   5.603   3.835  14.561 -0.1145 -0.0623  0.1672
29078ION     NA49358   3.262  16.844   5.803 -0.0200 -0.0207  0.1505
29079ION     NA49359  13.870   2.331   5.977 -0.0862  0.0970  0.0622
29080ION     NA49360  14.138  14.250  12.690 -0.0850 -0.0409  0.1393
29081ION     NA49361  14.788  15.889   5.798  0.0581 -0.0075  0.0843
29082ION     NA49362   2.312   7.744   5.783 -0.0936 -0.0121 -0.0096
29083ION     NA49363  17.390   6.049  11.309  0.3015  0.1333 -0.2239
29084ION     NA49364  15.616   6.509  11.512  0.1727 -0.0253  0.0249
29085ION     NA49365   3.869  10.035   0.455  0.1058  0.3464 -0.0267
29086ION     NA49366   4.589  15.882   1.068 -0.2220 -0.0724  0.0923
29087ION     NA49367   4.598   4.509  15.163 -0.1067  0.2904  0.0055
29088ION     NA49368   5.179  17.375  11.420 -0.2757 -0.0071  0.2308
29089ION     NA49369  11.500   5.856  11.427 -0.0875 -0.2586 -0.1579
29090ION     NA49370   5.411  14.129   5.713  0.2578 -0.0254  0.0796
29091ION     NA49371   8.555   6.727   5.332 -0.2604 -0.0927  0.1605
29092ION     NA49372  10.402   4.388   5.447 -0.1463  0.2620 -0.0110
29093ION     NA49373  15.219   6.838   5.380  0.1056  0.0003 -0.0128
29094ION     NA49374   2.480   4.647   5.959  0.2706 -0.1514 -0.0046
29095ION     NA49375   4.076  15.023   0.169  0.1070  0.1560 -0.0323
29096ION     NA49376  10.223  16.844  12.959 -0.0963 -0.2109  0.2738
29097ION     NA49377  11.295   5.602   5.769  0.1100  0.0118  0.1679
29098ION     NA49378  12.329   4.700  13.199  0.0639 -0.2029 -0.0212
29099ION     NA49379  16.107  15.144   6.182 -0.0617  0.1654  0.1211
29100ION     NA49380   1.467  14.807  11.567  0.2434  0.1193  0.2403
29101ION     NA49381   1.472   6.317  13.450  0.0210 -0.0280  0.0973
29102ION     NA49382   6.023  10.947   5.778  0.0848  0.0867  0.3695
29103ION     NA49383   7.047   4.599   5.505 -0.1459  0.0021  0.1098
29104ION     NA49384  13.572   1.931  13.152 -0.0740  0.0339  0.0413
29105ION     NA49385  12.295   1.554  11.651 -0.1156  0.2039  0.1146
29106ION     NA49386   2.884  14.066   6.052 -0.0931 -0.0079  0.1363
29107ION     NA49387  10.968   9.376   5.690  0.2379  0.1572 -0.2364
29108ION     NA49388  14.672   7.502   5.611 -0.0725 -0.2036  0.0015
29109ION     NA49389   0.432  12.592  16.657 -0.1937 -0.0326 -0.1565
29110ION     NA49390  12.420   3.260   5.673  0.0130  0.0749 -0.2964
29111ION     NA49391  11.314   1.128   5.499 -0.1413 -0.3217 -0.0192
29112ION     NA49392  13.554   4.192   5.798 -0.0158 -0.0731  0.0749
29113ION     NA49393  15.484   7.410  11.826  0.2061 -0.2235  0.3409
29114ION     NA49394  17.447   3.277   2.594  0.1717  0.3047 -0.1856
29115ION     NA49395  10.692  16.897   5.338 -0.0592 -0.1326 -0.4019
29116ION     NA49396   3.282   5.660  11.555 -0.0328  0.0475  0.0939
29117ION     NA49397   5.088  17.479  16.660  0.0077  0.0278  0.1129
29118ION     NA49398   4.141   2.485   4.702  0.0096 -0.0028 -0.1243
29119ION     NA49399  11.824  14.498  15.098  0.3253  0.0298 -0.0890
29120ION     NA49400   4.447   8.614  11.441  0.1020 -0.1504  0.1702
29121ION     NA49401  14.949  17.007   4.863  0.2784 -0.1571 -0.0192
29122ION     NA49402   1.285  14.372   2.931 -0.1993 -0.2606 -0.1064
29123ION     NA49403   4.269  12.914  11.423 -0.0149  0.4155  0.0322
29124ION     NA49404  11.369   0.743   2.901  0.0724  0.2604 -0.0262
29125ION     NA49405  17.644  11.653  11.284 -0.1254  0.2228 -0.1305
29126ION     NA49406   5.322   4.975   5.809 -0.0276 -0.5547 -0.1233
29127ION     NA49407   3.362  15.608   5.935  0.0535  0.3221  0.2340
29128ION     NA49408  15.308  11.894  13.730  0.0571 -0.2917 -0.1002
29129ION     NA49409  13.818   8.040  11.267 -0.2112 -0.2043  0.0549
29130ION     NA49410  16.781   6.190  14.007 -0.0869  0.1583  0.2981
29131ION     NA49411   1.352   2.960  11.500 -0.1117  0.1221  0.0509
29132ION     NA49412  14.022   3.016   1.794 -0.2223 -0.1538  0.0387
29133ION     NA49413   6.051   3.733   2.874 -0.0787  0.0803 -0.0409
29134ION     NA49414   2.389  14.464  11.304  0.2298  0.2662 -0.2270
29135ION     NA49415   4.370   3.584   1.966  0.1915 -0.0173 -0.4568
29136ION     NA49416   5.547   9.675  11.699  0.0094 -0.3249  0.0270
29137ION     NA49417  11.157   2.335  13.690  0.0557 -0.1474 -0.3740
29138ION     NA49418   7.830   2.420  11.409  0.0978  0.0786 -0.1021
29139ION     NA49419  11.670  16.933   3.966 -0.1688 -0.4557 -0.0538
29140ION     NA49420  16.024   3.835   5.690 -0.0895 -0.0820  0.0103
29141ION     NA49421   4.612  17.222  12.314 -0.2077  0.0772  0.3510
29142ION     NA49422   8.481  13.194   5.771 -0.2841  0.4606  0.3314
29143ION     NA49423  13.392  11.584  11.360  0.2544 -0.0948 -0.1709
29144ION     NA49424   1.749  14.781  15.304 -0.2729 -0.0001  0.2071
29145ION     NA49425   0.612  15.748   5.547 -0.1790 -0.0297  0.3051
29146ION     NA49426  14.911  15.108  13.569  0.2277  0.0298 -0.2859
29147ION     NA49427   3.500   6.477  11.421 -0.1078 -0.2809 -0.0611
29148ION     NA49428   5.329  10.458  12.353 -0.1432 -0.2604 -0.0279
29149ION     NA49429   1.548  10.947   1.236 -0.2157 -0.0534  0.0567
29150ION     NA49430   7.756   8.110  11.856  0.1303  0.1126 -0.1779
29151ION     NA49431  11.464   3.086   5.219 -0.2812  0.1058 -0.1695
29152ION     NA49432   5.429  14.669   3.058 -0.0662 -0.5031 -0.1600
29153ION     NA49433   7.615  17.373  14.151  0.0843  0.1882  0.2671
29154ION     NA49434  16.980  10.896  11.464  0.1412  0.3437 -0.2577
29155ION     NA49435   7.223   0.287   5.330  0.1820 -0.0451 -0.1815
29156ION     NA49436  12.386  14.769  11.231  0.0123  0.3623  0.0514
29157ION     NA49437  16.969  14.938   6.136 -0.1378 -0.1093 -0.0899
29158ION     NA49438   4.101   1.185   5.915 -0.1967 -0.0263 -0.0465
29159ION     NA49439   7.321   9.711  11.469 -0.1488 -0.2113  0.3733
29160ION     NA49440  14.094  17.694  11.438  0.0186 -0.0712 -0.0942
29161ION     NA49441   0.099  16.693   5.406  0.4615 -0.0466 -0.0197
29162ION     NA49442  17.256   3.164   1.482 -0.2077  0.1281  0.2199
29163ION     NA49443   7.724   8.021   5.655  0.1832  0.0214 -0.2169
29164ION     NA49444   9.728   9.998   5.768  0.3868 -0.3025  0.2525
29165ION     NA49445  15.261   2.156   5.764  0.2000  0.2103 -0.0517
29166ION     NA49446  17.141   0.097   5.797  0.5272  0.2511 -0.1788
29167ION     NA49447  17.132   7.698  11.463  0.2922 -0.0585  0.0833
29168ION     NA49448  15.153   6.009   5.850 -0.1221  0.2263 -0.0081
29169ION     NA49449   9.041   4.719  11.217 -0.1195  0.5705  0.1184
29170ION     NA49450   7.739   6.549  11.662  0.2005 -0.0475 -0.2180
29171ION     NA49451   1.243  14.343  16.086 -0.1928  0.0019  0.0027
29172ION     NA49452   9.032  11.673   5.690 -0.0592  0.3954  0.0030
29173ION     NA49453  16.989  14.423  11.530  0.0215 -0.0676 -0.1040
29174ION     NA49454   3.459   4.614  11.636 -0.0895 -0.0704 -0.3339
29175ION     NA49455  14.905  16.732  13.678 -0.3221  0.0242 -0.1743
29176ION     NA49456  14.585  13.668  11.288  0.0670  0.0347  0.3967
29177ION     NA49457  16.470   5.218  11.567  0.2336 -0.0375  0.1535
29178ION     NA49458  13.821  16.720  11.344 -0.0859  0.1984 -0.0810
29179ION     NA49459  13.457   0.512  11.031  0.1395  0.0007 -0.0472
29180ION     NA49460   9.285  12.806  13.813 -0.0160  0.2005 -0.0092
29181ION     NA49461   8.053   1.412   5.977 -0.0119 -0.1252 -0.1196
29182ION     NA49462  16.070   9.997  16.720  0.1009 -0.1929 -0.0658
29183ION     NA49463   8.283   2.267   5.936 -0.0594 -0.2495  0.2439
29184ION     NA49464   1.356  13.418  15.087  0.2810 -0.0494  0.4777
29185ION     NA49465  13.097  14.957  15.094 -0.1158  0.2045  0.0984
29186ION     NA49466  17.119   6.756  15.161  0.0942  0.0820  0.3212
29187ION     NA49467  13.983  14.784   3.441  0.0164 -0.0676  0.1545
29188ION     NA49468   1.866  13.795   5.640 -0.0175 -0.0779  0.1771
29189ION     NA49469  11.648   2.594  11.197 -0.0133 -0.1788  0.0515
29190ION     NA49470  12.614   6.238   5.594  0.0911 -0.0079  0.3840
29191ION     NA49471   2.127   6.511   1.373 -0.1599 -0.1410 -0.1856
29192ION     NA49472  10.646  12.274   5.940 -0.0968  0.2448  0.2743
29193ION     NA49473   1.153  13.011   5.822  0.1711 -0.0679  0.2088
29194ION     NA49474  17.707  14.844  11.476  0.0010  0.2720  0.1267
29195ION     NA49475   3.132   3.283   3.506 -0.0793 -0.0478  0.0876
29196ION     NA49476  10.869   8.859  14.770 -0.0882 -0.3192  0.1264
29197ION     NA49477   9.874   1.083  11.217 -0.1872 -0.0756 -0.2578
29198ION     NA49478   4.284  15.076   5.586 -0.2503 -0.1455 -0.0369
29199ION     NA49479   7.037  15.539   4.727 -0.0504 -0.1587  0.0953
29200ION     NA49480   4.989   7.348   3.693  0.0476  0.0433 -0.1175
29201ION     NA49481  12.449   1.332  11.194  0.0265  0.2716  0.0602
29202ION     NA49482  16.936   3.968   5.794 -0.0822 -0.1622  0.0966
29203ION     NA49483  14.696  10.787  11.161 -0.0611  0.0589  0.0205
29204ION     NA49484  15.294   3.243   2.194  0.2182  0.0623  0.0015
29205ION     NA49485   5.923   6.067  11.302 -0.2622  0.1460  0.1337
29206ION     NA49486   4.351   7.459  13.611  0.0091 -0.0524 -0.0565
29207ION     NA49487   3.335  16.301  11.252 -0.0114 -0.0715 -0.3311
29208ION     NA49488  15.714   5.371   5.514  0.0560 -0.0467  0.0271
29209ION     NA49489  14.444   4.416   5.706 -0.0695 -0.0767 -0.0018
29210ION     NA49490   6.063  10.729  11.554  0.3402 -0.1638  0.3324
29211ION     NA49491   6.997   8.440   5.782 -0.2669  0.1809  0.0204
29212ION     NA49492  16.823  16.797   5.857 -0.0213  0.0035  0.1915
29213ION     NA49493   6.068  14.404  11.432  0.1676  0.1587  0.0253
29214ION     NA49494   2.738  10.428  11.216 -0.0313 -0.1767 -0.0103
29215ION     NA49495  16.405   6.289   5.676 -0.1963  0.1110  0.2255
29216ION     NA49496  16.510   6.763  11.553  0.0098 -0.1586 -0.1278
29217ION     NA49497   1.005  17.033  11.441  0.1413 -0.1143 -0.1817
29218ION     NA49498  13.692   9.706  11.225  0.3830  0.0969 -0.0736
29219ION     NA49499   0.614  14.710   5.751  0.3830 -0.2275 -0.2194
29220ION     NA49500   6.353   0.838  11.447  0.0924  0.0032 -0.3451
29221ION     NA49501   8.656   8.297   3.235 -0.1799  0.2666 -0.5900
29222ION     NA49502   4.412  14.188   5.520  0.0273  0.0036  0.0862
29223ION     NA49503   1.323  11.134   5.804 -0.1413 -0.1482  0.1733
29224ION     NA49504  15.070   8.017   5.844  0.2232 -0.0093 -0.0716
29225ION     NA49505   9.088  12.505   5.658  0.1410 -0.1954  0.1021
29226ION     NA49506   8.029   2.965  11.397  0.3747 -0.2148 -0.0248
29227ION     NA49507  10.814   8.660  11.460  0.0720  0.1842  0.1281
29228ION     NA49508   3.045  15.353  11.289  0.0140 -0.0848 -0.3756
29229ION     NA49509  10.092   3.989   4.062 -0.1280  0.0974 -0.3674
29230ION     NA49510  10.443  13.375   2.334 -0.0616  0.1934 -0.0846
29231ION     NA49511   9.649   2.233   2.464  0.0730  0.0867 -0.0396
29232ION     NA49512  11.730   6.100   5.783 -0.2980  0.0674 -0.1635
29233ION     NA49513   7.457  13.232   5.789  0.0460  0.1951 -0.1597
29234ION     NA49514  17.644   1.810   4.680  0.3651 -0.1165 -0.0471
29235ION     NA49515   4.459   2.744  11.736  0.2019  0.1305 -0.3163
29236ION     NA49516  15.510   1.471  11.419  0.1729  0.0123  0.0926
29237ION     NA49517   3.260   2.989  12.313  0.1780  0.2138  0.4392
29238ION     NA49518   5.497   5.126   5.021 -0.2774  0.0309 -0.1848
29239ION     NA49519  12.661   4.108   5.716  0.1470  0.1385  0.0676
29240ION     NA49520  12.412   8.786  13.378  0.0854  0.0102  0.3359
29241ION     NA49521  15.357   5.391   0.995 -0.5672  0.2506  0.0318
29242ION     NA49522   3.620  11.692   6.051 -0.3520  0.1639 -0.2178
29243ION     NA49523  17.729   1.962  15.123  0.1765 -0.3070 -0.2759
29244ION     NA49524  12.583  11.347   0.620 -0.1415  0.2257 -0.0947
29245ION     NA49525   1.168   6.377   5.842  0.0471 -0.1571  0.0231
29246ION     NA49526   8.169  11.051  11.182  0.0218  0.0740 -0.2339
29247ION     NA49527  12.911  11.173  14.238 -0.2846  0.1036 -0.5271
29248ION     NA49528   0.831   4.687   4.300  0.1657  0.2151 -0.2270
29249ION     NA49529   7.339  12.390  11.283 -0.2011 -0.1909  0.0832
29250ION     NA49530   0.387  10.870   5.903 -0.1647  0.3284 -0.0936
29251ION     NA49531   6.735  13.996   5.959  0.3249 -0.2077 -0.1140
29252ION     NA49532  17.093   8.197  11.300  0.2040  0.1420 -0.0588
29253ION     NA49533   0.385   5.390  11.421  0.0559  0.1731 -0.1470
29254ION     NA49534   9.904  17.482  11.433  0.2196 -0.1154  0.0743
29255ION     NA49535  16.284  17.588   5.602  0.2925 -0.0510 -0.1140
29256ION     NA49536   0.009  13.970  11.527 -0.1432 -0.0420  0.1212
29257ION     NA49537   1.227  11.964   5.439  0.0229 -0.0185  0.1849
29258ION     NA49538  12.156  14.002  11.216  0.0359  0.2399 -0.0911
29259ION     NA49539  10.330   3.244   5.566  0.0032 -0.1618  0.1845
29260ION     NA49540  13.834  12.777   5.644  0.1683  0.0387 -0.0387
29261ION     NA49541   8.174   0.167  15.121  0.0112 -0.2943 -0.0473
29262ION     NA49542   0.327  16.019   2.351 -0.2742  0.0570 -0.0509
29263ION     NA49543  11.715  15.803   5.524  0.1030 -0.3795 -0.1732
29264ION     NA49544   7.075  17.207  16.051 -0.0500 -0.1686 -0.1677
29265ION     NA49545  14.131  12.078  12.091 -0.3745 -0.0640  0.1340
29266ION     NA49546  17.383   1.045   5.918 -0.3725 -0.2704 -0.3120
29267ION     NA49547   4.397  10.386   4.536  0.0046 -0.0996  0.3277
29268ION     NA49548  16.031  14.770  11.630  0.0448 -0.1179 -0.0196
29269ION     NA49549   4.177  13.851   4.016  0.3202  0.2614 -0.0893
29270ION     NA49550   4.394   2.039   5.778 -0.2040 -0.3270 -0.1271
29271ION     NA49551   5.636   1.279  11.205 -0.2487  0.1416 -0.0082
29272ION     NA49552   5.440  13.813  11.404 -0.2276 -0.0455  0.0094
29273ION     NA49553  16.881   5.400   2.615 -0.2760 -0.2330  0.1274
29274ION     NA49554  12.386  17.197  11.127 -0.2505 -0.1048  0.0380
29275ION     NA49555   2.809  13.496   5.649  0.1105 -0.0373 -0.3682
29276ION     NA49556  17.209   6.104   5.784 -0.3900 -0.0230  0.1910
29277ION     NA49557  11.531  10.139   5.808 -0.1380  0.0701  0.1137
29278ION     NA49558  15.362   3.270  11.205  0.1740 -0.1506  0.0361
29279ION     NA49559  11.563   1.659  11.120  0.1093 -0.1232  0.0050
29280ION     NA49560  10.218   0.171   5.761  0.1749  0.1771  0.0132
29281ION     NA49561  14.782   6.692  11.340  0.0779  0.1997 -0.0826
29282ION     NA49562   8.363   7.948   5.689 -0.2226 -0.2225  0.0579
29283ION     NA49563   8.588  10.076  11.064 -0.1843 -0.0090 -0.1959
29284ION     NA49564   2.548   7.153  16.608  0.0473 -0.2831 -0.2138
29285ION     NA49565  11.905   6.682  11.341  0.0253  0.4631  0.1736
29286ION     NA49566  15.265  12.748  12.560 -0.0809 -0.0749  0.3234
29287ION     NA49567  15.162  10.103  11.185 -0.1377 -0.0085 -0.3050
29288ION     NA49568   5.438  11.405  11.417  0.0340 -0.1312 -0.0975
29289ION     NA49569   3.256   1.475  11.539  0.1560 -0.0172 -0.2219
29290ION     NA49570   4.849  17.139   5.774  0.1801 -0.1545 -0.0342
29291ION     NA49571  15.463  11.139   5.866  0.0423 -0.0031  0.0579
29292ION     NA49572   6.283   2.651  11.253 -0.0576 -0.1482 -0.1854
29293ION     NA49573  16.791   4.150  11.400  0.0727 -0.0090  0.1607
29294ION     NA49574  16.089   2.248   2.339  0.1943 -0.1854  0.1803
29295ION     NA49575  10.705  17.691  11.702  0.1601  0.4300  0.0765
29296ION     NA49576   5.965   8.079   5.664  0.2953 -0.0184 -0.2364
29297ION     NA49577   4.770  15.195  11.836 -0.2928 -0.1255 -0.0632
29298ION     NA49578   9.596   5.668   5.563 -0.2172  0.2264 -0.1950
29299ION     NA49579   5.609   7.254   2.953 -0.2727  0.0169 -0.0135
29300ION     NA49580  13.500  11.830   5.802  0.0185 -0.0472 -0.2363
29301ION     NA49581  11.675  14.231  11.039 -0.1809 -0.1052 -0.0758
29302ION     NA49582   6.751  12.997  11.543 -0.1377  0.1352 -0.2354
29303ION     NA49583  12.885   9.581   5.664 -0.0977  0.2264 -0.1983
29304ION     NA49584  14.175   3.600   5.690  0.2932  0.4465  0.0224
29305ION     NA49585   3.305   3.447  15.415  0.1758 -0.2720 -0.2021
29306ION     NA49586   9.111  12.268  11.199  0.1694 -0.1166  0.4122
29307ION     NA49587   4.570   4.366   1.509  0.2728  0.1258 -0.0099
29308ION     NA49588   6.882   2.606  11.267  0.2091 -0.0193 -0.2594
29309ION     NA49589   4.857  12.915  11.384  0.3312 -0.2061 -0.0543
29310ION     NA49590   1.980  12.501   5.814 -0.2537 -0.2286  0.0655
29311ION     NA49591  16.490   3.154   5.656  0.2561  0.0571  0.0735
29312ION     NA49592   0.657   3.765  11.370 -0.0928  0.4252 -0.0026
29313ION     NA49593   6.390   5.980   5.744 -0.0866  0.0405  0.1994
29314ION     NA49594   3.785   8.122  12.428  0.0404 -0.1316 -0.1938
29315ION     NA49595  12.960   3.022  11.257  0.0718 -0.1316  0.1993
29316ION     NA49596  11.037   2.132  11.497 -0.0023  0.1497  0.1101
29317ION     NA49597   2.205   8.953   5.968 -0.1001  0.4171  0.3001
29318ION     NA49598   5.671  15.058  11.317  0.1816 -0.2172 -0.0873
29319ION     NA49599   6.564   0.631   2.495  0.1139 -0.1187 -0.0057
29320ION     NA49600  14.128   1.682  11.306 -0.1164 -0.2191 -0.1089
29321ION     NA49601   4.080   7.091   4.916  0.0124 -0.5889  0.0646
29322ION     NA49602  10.465   5.339   5.319  0.1567 -0.0794 -0.0774
29323ION     NA49603  13.388  10.702  11.203  0.1111  0.1047 -0.1167
29324ION     NA49604   9.354  14.396   5.994  0.2104 -0.0032 -0.2374
29325ION     NA49605   1.089   6.524  15.727  0.0282  0.0097  0.1421
29326ION     NA49606  15.355   9.220  11.423  0.1980 -0.1424  0.0001
29327ION     NA49607  13.473  15.668   1.419  0.1883  0.0064  0.0363
29328ION     NA49608   7.526  14.621   0.002  0.1324  0.3861  0.1339
29329ION     NA49609   0.438  13.834   5.955  0.3153  0.1227  0.0072
29330ION     NA49610   7.204  12.750  16.389  0.0471  0.0289  0.0233
29331ION     NA49611   9.816   3.739   4.897  0.0220 -0.0504 -0.1221
29332ION     NA49612  14.836  17.395  14.850  0.1283 -0.1176  0.0353
29333ION     NA49613  15.211  15.020   6.017 -0.1265  0.0883  0.0980
29334ION     NA49614   3.431   9.918  11.240  0.3493  0.0656 -0.0120
29335ION     NA49615   9.250  17.321   5.961  0.0389 -0.2928 -0.0854
29336ION     NA49616   5.890   3.568  11.364  0.2660 -0.2576 -0.2417
29337ION     NA49617   0.246  12.092   5.714 -0.0272 -0.1106 -0.1333
29338ION     NA49618  17.201   0.513  11.320 -0.2026  0.1244 -0.1471
29339ION     NA49619   6.150  16.220  11.391  0.0452  0.2446 -0.3352
29340ION     NA49620   4.334   8.744   5.325 -0.2400  0.1891  0.0345
29341ION     NA49621   9.887   5.438  11.090 -0.2804  0.1450  0.0524
29342ION     NA49622   3.970   1.941  11.416  0.3833  0.0728  0.0869
29343ION     NA49623   7.067   2.659  12.919  0.0160  0.0679  0.1929
29344ION     NA49624  15.743  11.790  11.662  0.0376  0.0807  0.1409
29345ION     NA49625  10.885  12.695  11.170  0.1355 -0.0015 -0.2729
29346ION     NA49626  10.337   6.291   5.812  0.0593  0.1499 -0.0656
29347ION     NA49627   5.562   0.616   1.430  0.0199 -0.2213  0.2249
29348ION     NA49628   3.527  11.724  11.395 -0.1360  0.1597 -0.1880
29349ION     NA49629   1.591   0.184   5.784 -0.1707 -0.0131  0.2561
29350ION     NA49630   4.153   5.864   5.512  0.0473  0.0402 -0.0682
29351ION     NA49631   4.672  11.837  11.376 -0.1129 -0.0291 -0.2493
29352ION     NA49632   6.512   0.964   6.025 -0.1107 -0.0892  0.1144
29353ION     NA49633   3.552   0.591  11.452 -0.0090  0.1938  0.0581
29354ION     NA49634  15.634   9.679   5.762 -0.0042 -0.1077 -0.0411
29355ION     NA49635   6.876   3.714   5.789  0.1146 -0.1396 -0.0269
29356ION     NA49636   4.322  12.128  11.115  0.1436  0.2663  0.0376
29357ION     NA49637   5.178   9.347   5.736  0.0947 -0.0570  0.1504
29358ION     NA49638   1.615  14.552   5.965  0.0197 -0.1553 -0.3027
29359ION     NA49639   8.737   6.135  12.422  0.1709 -0.3322  0.0016
29360ION     NA49640   6.136   4.925   5.756 -0.1266 -0.1113 -0.0411
29361ION     NA49641   9.462   6.539   5.605  0.0259 -0.1366 -0.2105
29362ION     NA49642  16.305   7.693  11.506 -0.0742 -0.3985 -0.0282
29363ION     NA49643   8.117   5.724  11.301  0.0400 -0.0776  0.0395
29364ION     NA49644   2.191   5.495   5.845 -0.2872 -0.1599  0.0597
29365ION     NA49645   7.212  16.156   5.930  0.3532  0.0722 -0.3090
29366ION     NA49646   4.273  12.398   2.989 -0.0616  0.0489  0.1339
29367ION     NA49647   0.053  14.559  14.259 -0.0269  0.2085  0.0537
29368ION     NA49648  16.076   3.650  11.102  0.1253 -0.1110  0.0611
29369ION     NA49649   2.308   8.774   5.457  0.1041 -0.0733  0.0740
29370ION     NA49650   3.338  12.487  11.298  0.1002 -0.1096  0.2555
29371ION     NA49651   6.190  14.471   3.514 -0.0333  0.0604 -0.2357
29372ION     NA49652   2.607   6.846   6.109 -0.0079  0.0852 -0.3331
29373ION     NA49653   8.765  17.238  11.230  0.0066  0.1416  0.0681
29374ION     NA49654  13.947   8.000   5.792  0.0036 -0.1105  0.1487
29375ION     NA49655   4.733   4.244   5.834 -0.0740  0.0868 -0.3740
29376ION     NA49656  11.060   0.214   5.592  0.2218 -0.2801  0.0445
29377ION     NA49657  14.540   2.650  11.427  0.0834  0.0786  0.0823
29378ION     NA49658   7.155  10.803   3.968  0.0400  0.0554 -0.2705
29379ION     NA49659   6.781  14.113   0.218 -0.1931  0.0169  0.0598
29380ION     NA49660   2.218   5.860  12.261  0.1564 -0.0933 -0.0699
29381ION     NA49661   6.216  11.627  11.460  0.0579 -0.2214 -0.1026
29382ION     NA49662   9.384  12.655   1.766 -0.0781  0.0959 -0.1031
29383ION     NA49663   2.654   9.619   5.669  0.0170  0.0819  0.1765
29384ION     NA49664  16.182   7.394   2.846 -0.0751 -0.1211  0.2036
29385ION     NA49665  16.844  13.467  14.661  0.0340  0.0032 -0.1347
29386ION     NA49666   6.260   7.295   5.757  0.0522 -0.0178  0.0079
29387ION     NA49667  13.381  16.260   5.119  0.3532 -0.1497 -0.0776
29388ION     NA49668  11.271   2.937   5.674  0.1061  0.2553  0.1129
29389ION     NA49669  12.473   0.430  11.007  0.1157 -0.3908 -0.1650
29390ION     NA49670   4.347  10.261  11.264 -0.1094  0.0596  0.3526
29391ION     NA49671   7.056   0.232  11.536  0.1653  0.2089  0.0257
29392ION     NA49672   0.552  13.222   5.154 -0.1578 -0.2196  0.0561
29393ION     NA49673   9.891   3.035  13.166  0.0317 -0.0161  0.2962
29394ION     NA49674   1.071  17.381   1.128  0.1108  0.1709  0.1471
29395ION     NA49675   4.304  11.128  11.321  0.0292  0.0889  0.1083
  17.73936  17.73936  17.02242
